Title t= 475.00000 step= 237500
19942
    1ASP      N    1   1.487   2.489   2.913
    1ASP    HT1    2   1.486   2.479   2.810
    1ASP    HT2    3   1.520   2.586   2.928
    1ASP    HT3    4   1.388   2.492   2.947
    1ASP     CA    5   1.568   2.400   2.989
    1ASP     HA    6   1.670   2.424   2.961
    1ASP     CB    7   1.535   2.413   3.141
    1ASP    HB1    8   1.425   2.403   3.150
    1ASP    HB2    9   1.557   2.520   3.164
    1ASP     CG   10   1.610   2.325   3.234
    1ASP    OD1   11   1.589   2.352   3.358
    1ASP    OD2   12   1.694   2.246   3.193
    1ASP      C   13   1.556   2.255   2.938
    1ASP      O   14   1.632   2.212   2.855
    2ALA      N   15   1.453   2.179   2.987
    2ALA     HN   16   1.382   2.222   3.042
    2ALA     CA   17   1.426   2.039   2.951
    2ALA     HA   18   1.522   1.991   2.938
    2ALA     CB   19   1.346   1.965   3.060
    2ALA    HB1   20   1.251   2.014   3.090
    2ALA    HB2   21   1.408   1.955   3.151
    2ALA    HB3   22   1.324   1.862   3.026
    2ALA      C   23   1.347   2.025   2.820
    2ALA      O   24   1.259   2.102   2.790
    3ASP      N   25   1.398   1.926   2.735
    3ASP     HN   26   1.464   1.858   2.768
    3ASP     CA   27   1.340   1.894   2.609
    3ASP     HA   28   1.364   1.989   2.562
    3ASP     CB   29   1.411   1.777   2.540
    3ASP    HB1   30   1.362   1.764   2.442
    3ASP    HB2   31   1.406   1.680   2.594
    3ASP     CG   32   1.555   1.795   2.514
    3ASP    OD1   33   1.611   1.696   2.450
    3ASP    OD2   34   1.621   1.896   2.540
    3ASP      C   35   1.189   1.869   2.591
    3ASP      O   36   1.114   1.815   2.677
    4GLY      N   37   1.131   1.907   2.473
    4GLY     HN   38   1.177   1.970   2.411
    4GLY     CA   39   0.989   1.871   2.450
    4GLY    HA1   40   0.958   1.914   2.356
    4GLY    HA2   41   0.933   1.923   2.526
    4GLY      C   42   0.955   1.725   2.454
    4GLY      O   43   1.049   1.647   2.442
    5PRO      N   44   0.828   1.684   2.447
    5PRO     CD   45   0.727   1.792   2.458
    5PRO    HD1   46   0.739   1.868   2.378
    5PRO    HD2   47   0.712   1.838   2.558
    5PRO     CA   48   0.773   1.553   2.432
    5PRO     HA   49   0.762   1.510   2.530
    5PRO     CB   50   0.643   1.592   2.365
    5PRO    HB1   51   0.571   1.508   2.373
    5PRO    HB2   52   0.662   1.626   2.260
    5PRO     CG   53   0.591   1.715   2.446
    5PRO    HG1   54   0.516   1.776   2.391
    5PRO    HG2   55   0.557   1.693   2.549
    5PRO      C   56   0.853   1.442   2.357
    5PRO      O   57   0.894   1.453   2.243
    6GLY      N   58   0.887   1.330   2.424
    6GLY     HN   59   0.883   1.325   2.523
    6GLY     CA   60   0.929   1.204   2.365
    6GLY    HA1   61   0.974   1.142   2.442
    6GLY    HA2   62   1.012   1.225   2.300
    6GLY      C   63   0.826   1.141   2.278
    6GLY      O   64   0.721   1.193   2.253
    7ASP      N   65   0.861   1.022   2.227
    7ASP     HN   66   0.949   0.979   2.246
    7ASP     CA   67   0.762   0.945   2.148
    7ASP     HA   68   0.744   1.010   2.064
    7ASP     CB   69   0.832   0.830   2.085
    7ASP    HB1   70   0.769   0.789   2.004
    7ASP    HB2   71   0.866   0.755   2.160
    7ASP     CG   72   0.951   0.878   2.009
    7ASP    OD1   73   1.060   0.823   2.019
    7ASP    OD2   74   0.932   0.970   1.923
    7ASP      C   75   0.627   0.915   2.226
    7ASP      O   76   0.629   0.901   2.349
    8PRO      N   77   0.517   0.909   2.152
    8PRO     CD   78   0.500   0.958   2.012
    8PRO    HD1   79   0.507   0.872   1.942
    8PRO    HD2   80   0.580   1.030   1.984
    8PRO     CA   81   0.385   0.907   2.221
    8PRO     HA   82   0.378   0.983   2.297
    8PRO     CB   83   0.289   0.940   2.110
    8PRO    HB1   84   0.196   0.990   2.146
    8PRO    HB2   85   0.278   0.844   2.055
    8PRO     CG   86   0.365   1.023   2.007
    8PRO    HG1   87   0.306   1.019   1.913
    8PRO    HG2   88   0.373   1.130   2.037
    8PRO      C   89   0.349   0.779   2.295
    8PRO      O   90   0.268   0.791   2.387
    9ASP      N   91   0.400   0.662   2.265
    9ASP     HN   92   0.459   0.647   2.186
    9ASP     CA   93   0.374   0.545   2.351
    9ASP     HA   94   0.283   0.558   2.408
    9ASP     CB   95   0.351   0.415   2.264
    9ASP    HB1   96   0.324   0.330   2.329
    9ASP    HB2   97   0.446   0.387   2.212
    9ASP     CG   98   0.255   0.440   2.151
    9ASP    OD1   99   0.282   0.409   2.030
    9ASP    OD2  100   0.137   0.469   2.177
    9ASP      C  101   0.492   0.526   2.445
    9ASP      O  102   0.487   0.438   2.531
   10ALA      N  103   0.595   0.609   2.440
   10ALA     HN  104   0.585   0.689   2.381
   10ALA     CA  105   0.712   0.595   2.523
   10ALA     HA  106   0.727   0.489   2.539
   10ALA     CB  107   0.832   0.661   2.455
   10ALA    HB1  108   0.836   0.625   2.351
   10ALA    HB2  109   0.929   0.640   2.506
   10ALA    HB3  110   0.813   0.770   2.446
   10ALA      C  111   0.684   0.656   2.658
   10ALA      O  112   0.603   0.746   2.671
   11GLY      N  113   0.761   0.615   2.766
   11GLY     HN  114   0.826   0.540   2.762
   11GLY     CA  115   0.759   0.685   2.893
   11GLY    HA1  116   0.660   0.704   2.933
   11GLY    HA2  117   0.827   0.768   2.882
   11GLY      C  118   0.819   0.587   2.996
   11GLY    OT1  119   0.749   0.536   3.083
   11GLY    OT2  120   0.941   0.563   2.981
   12LIT    LIT  121   2.596   1.983   1.252
   13LIT    LIT  122   2.412   2.312   1.906
   14LIT    LIT  123   6.043   5.995   4.356
   15LIT    LIT  124   2.709   2.590   2.546
   16LIT    LIT  125   0.362   0.038   3.164
   17LIT    LIT  126   0.188   4.728   1.457
   18LIT    LIT  127   0.385   5.285   2.429
   19LIT    LIT  128   5.870   0.469   0.318
   20LIT    LIT  129   4.894   3.691   0.083
   21LIT    LIT  130   3.373   4.497   3.269
   22LIT    LIT  131   3.769   3.742   0.859
   23LIT    LIT  132   3.243   2.103   3.124
   24LIT    LIT  133   2.727   4.926   4.316
   25LIT    LIT  134   5.057   0.994   1.428
   26LIT    LIT  135   2.128   0.967   5.105
   27LIT    LIT  136   0.112   0.057   4.052
   28LIT    LIT  137   1.838   2.149   3.169
   29LIT    LIT  138   2.495   4.369   3.526
   30LIT    LIT  139   1.360   1.394   2.301
   31LIT    LIT  140   4.801   1.393   5.137
   32LIT    LIT  141   4.604   4.788   1.563
   33LIT    LIT  142   5.606   2.262   2.344
   34CLA    CLA  143   5.270   3.031   1.330
   35CLA    CLA  144   0.594   2.012   0.302
   36CLA    CLA  145   5.263   3.938   0.672
   37CLA    CLA  146   2.063   0.689   2.808
   38CLA    CLA  147   1.825   4.292   5.028
   39CLA    CLA  148   0.524   3.910   1.696
   40CLA    CLA  149   0.703   1.875   3.158
   41CLA    CLA  150   1.522   2.772   2.345
   42CLA    CLA  151   0.108   0.351   4.586
   43CLA    CLA  152   1.670   3.521   2.665
   44CLA    CLA  153   5.020   2.692   4.836
   45CLA    CLA  154   0.619   5.755   2.051
   46CLA    CLA  155   5.911   0.126   2.157
   47CLA    CLA  156   2.248   0.949   4.911
   48CLA    CLA  157   4.236   4.757   2.212
   49CLA    CLA  158   5.340   4.473   0.161
   50CLA    CLA  159   3.996   3.164   3.231
   51CLA    CLA  160   0.291   0.502   1.386
   52TIP3   OH2  161   2.504   5.975   1.603
   52TIP3    H1  162   2.552   5.897   1.631
   52TIP3    H2  163   2.469   5.952   1.518
   53TIP3   OH2  164   2.168   4.832   4.809
   53TIP3    H1  165   2.081   4.873   4.811
   53TIP3    H2  166   2.177   4.800   4.719
   54TIP3   OH2  167   0.973   3.432   0.330
   54TIP3    H1  168   0.910   3.362   0.316
   54TIP3    H2  169   0.946   3.471   0.414
   55TIP3   OH2  170   6.329   0.608   4.703
   55TIP3    H1  171   6.363   0.526   4.668
   55TIP3    H2  172   6.334   0.599   4.798
   56TIP3   OH2  173   4.887   0.222   0.773
   56TIP3    H1  174   4.803   0.258   0.745
   56TIP3    H2  175   4.901   0.260   0.860
   57TIP3   OH2  176   1.237   3.540   2.520
   57TIP3    H1  177   1.266   3.449   2.527
   57TIP3    H2  178   1.141   3.536   2.529
   58TIP3   OH2  179   0.943   3.604   3.546
   58TIP3    H1  180   0.938   3.690   3.503
   58TIP3    H2  181   0.969   3.544   3.477
   59TIP3   OH2  182   6.325   4.917   0.576
   59TIP3    H1  183   6.273   4.880   0.504
   59TIP3    H2  184   6.285   5.002   0.592
   60TIP3   OH2  185   3.180   0.130   2.332
   60TIP3    H1  186   3.250   0.099   2.390
   60TIP3    H2  187   3.216   0.208   2.291
   61TIP3   OH2  188   4.824   2.244   0.394
   61TIP3    H1  189   4.744   2.194   0.382
   61TIP3    H2  190   4.890   2.198   0.343
   62TIP3   OH2  191   4.879   4.524   1.634
   62TIP3    H1  192   4.948   4.576   1.674
   62TIP3    H2  193   4.801   4.578   1.640
   63TIP3   OH2  194   6.007   4.406   0.241
   63TIP3    H1  195   6.083   4.461   0.262
   63TIP3    H2  196   5.962   4.396   0.324
   64TIP3   OH2  197   0.256   3.812   2.336
   64TIP3    H1  198   0.319   3.865   2.287
   64TIP3    H2  199   0.306   3.735   2.364
   65TIP3   OH2  200   1.163   5.738   0.032
   65TIP3    H1  201   1.122   5.813  -0.012
   65TIP3    H2  202   1.239   5.717  -0.022
   66TIP3   OH2  203   3.343   3.937   2.008
   66TIP3    H1  204   3.323   4.024   2.044
   66TIP3    H2  205   3.269   3.918   1.950
   67TIP3   OH2  206   0.299   5.038   0.138
   67TIP3    H1  207   0.206   5.025   0.155
   67TIP3    H2  208   0.340   5.035   0.224
   68TIP3   OH2  209   3.835   3.716   2.401
   68TIP3    H1  210   3.854   3.798   2.446
   68TIP3    H2  211   3.752   3.687   2.440
   69TIP3   OH2  212   1.997   5.014   4.215
   69TIP3    H1  213   1.959   5.061   4.289
   69TIP3    H2  214   1.935   5.028   4.143
   70TIP3   OH2  215   2.681   4.908   2.832
   70TIP3    H1  216   2.750   4.858   2.788
   70TIP3    H2  217   2.628   4.842   2.877
   71TIP3   OH2  218   5.430   4.812   4.062
   71TIP3    H1  219   5.454   4.737   4.008
   71TIP3    H2  220   5.470   4.795   4.147
   72TIP3   OH2  221   1.406   5.505   4.496
   72TIP3    H1  222   1.424   5.580   4.441
   72TIP3    H2  223   1.481   5.499   4.555
   73TIP3   OH2  224   0.513   5.130   2.837
   73TIP3    H1  225   0.601   5.101   2.815
   73TIP3    H2  226   0.525   5.193   2.908
   74TIP3   OH2  227   0.574   5.580   0.166
   74TIP3    H1  228   0.548   5.663   0.126
   74TIP3    H2  229   0.657   5.598   0.209
   75TIP3   OH2  230   3.965   2.090   3.115
   75TIP3    H1  231   4.041   2.035   3.097
   75TIP3    H2  232   3.972   2.111   3.208
   76TIP3   OH2  233   1.217   0.993   2.162
   76TIP3    H1  234   1.179   0.981   2.249
   76TIP3    H2  235   1.170   0.931   2.106
   77TIP3   OH2  236   0.521   2.067   2.441
   77TIP3    H1  237   0.433   2.029   2.446
   77TIP3    H2  238   0.558   2.052   2.528
   78TIP3   OH2  239   6.404   3.373   4.540
   78TIP3    H1  240   6.380   3.465   4.552
   78TIP3    H2  241   6.365   3.349   4.456
   79TIP3   OH2  242   4.117   0.364   1.344
   79TIP3    H1  243   4.166   0.415   1.408
   79TIP3    H2  244   4.146   0.274   1.357
   80TIP3   OH2  245   5.172   3.385   0.226
   80TIP3    H1  246   5.077   3.402   0.222
   80TIP3    H2  247   5.201   3.432   0.304
   81TIP3   OH2  248   1.451   2.228   4.119
   81TIP3    H1  249   1.387   2.159   4.101
   81TIP3    H2  250   1.495   2.242   4.035
   82TIP3   OH2  251   5.250   6.000   3.653
   82TIP3    H1  252   5.338   5.977   3.622
   82TIP3    H2  253   5.199   5.920   3.644
   83TIP3   OH2  254   5.453   3.152   3.123
   83TIP3    H1  255   5.416   3.094   3.190
   83TIP3    H2  256   5.477   3.094   3.051
   84TIP3   OH2  257   3.830   0.810   3.198
   84TIP3    H1  258   3.888   0.883   3.175
   84TIP3    H2  259   3.743   0.850   3.203
   85TIP3   OH2  260   1.872   3.090   2.588
   85TIP3    H1  261   1.859   3.041   2.506
   85TIP3    H2  262   1.932   3.036   2.639
   86TIP3   OH2  263   3.947   2.888   1.096
   86TIP3    H1  264   3.951   2.823   1.166
   86TIP3    H2  265   4.031   2.933   1.101
   87TIP3   OH2  266   3.338   3.711   4.812
   87TIP3    H1  267   3.292   3.761   4.879
   87TIP3    H2  268   3.358   3.774   4.743
   88TIP3   OH2  269   0.192   1.646   0.607
   88TIP3    H1  270   0.209   1.626   0.699
   88TIP3    H2  271   0.214   1.565   0.561
   89TIP3   OH2  272   6.056   5.256   4.315
   89TIP3    H1  273   6.089   5.283   4.401
   89TIP3    H2  274   5.966   5.291   4.313
   90TIP3   OH2  275   3.572   5.023   1.447
   90TIP3    H1  276   3.657   5.013   1.489
   90TIP3    H2  277   3.518   5.068   1.512
   91TIP3   OH2  278   4.142   5.429   4.070
   91TIP3    H1  279   4.153   5.410   4.163
   91TIP3    H2  280   4.089   5.357   4.037
   92TIP3   OH2  281   4.802   2.355   1.379
   92TIP3    H1  282   4.893   2.330   1.367
   92TIP3    H2  283   4.799   2.397   1.465
   93TIP3   OH2  284   3.644   1.433   2.699
   93TIP3    H1  285   3.656   1.500   2.632
   93TIP3    H2  286   3.575   1.377   2.664
   94TIP3   OH2  287   3.886   5.460   3.970
   94TIP3    H1  288   3.938   5.504   4.037
   94TIP3    H2  289   3.841   5.530   3.924
   95TIP3   OH2  290   0.142   3.359   1.833
   95TIP3    H1  291   0.197   3.290   1.795
   95TIP3    H2  292   0.170   3.365   1.924
   96TIP3   OH2  293   6.097   5.664   3.806
   96TIP3    H1  294   6.011   5.707   3.811
   96TIP3    H2  295   6.119   5.666   3.713
   97TIP3   OH2  296   2.362   0.339   4.856
   97TIP3    H1  297   2.450   0.303   4.844
   97TIP3    H2  298   2.304   0.263   4.852
   98TIP3   OH2  299   2.591   1.788   3.801
   98TIP3    H1  300   2.543   1.856   3.848
   98TIP3    H2  301   2.649   1.836   3.741
   99TIP3   OH2  302   1.823   0.433   3.901
   99TIP3    H1  303   1.868   0.466   3.822
   99TIP3    H2  304   1.752   0.495   3.916
  100TIP3   OH2  305   4.100   1.424   3.445
  100TIP3    H1  306   4.064   1.416   3.534
  100TIP3    H2  307   4.024   1.438   3.389
  101TIP3   OH2  308   3.407   3.023   4.412
  101TIP3    H1  309   3.454   3.086   4.467
  101TIP3    H2  310   3.474   2.984   4.356
  102TIP3   OH2  311   2.482   2.885   0.934
  102TIP3    H1  312   2.571   2.868   0.965
  102TIP3    H2  313   2.457   2.967   0.977
  103TIP3   OH2  314   3.298   4.249   4.415
  103TIP3    H1  315   3.299   4.239   4.510
  103TIP3    H2  316   3.389   4.236   4.389
  104TIP3   OH2  317   2.468   0.571   3.305
  104TIP3    H1  318   2.476   0.476   3.303
  104TIP3    H2  319   2.542   0.601   3.358
  105TIP3   OH2  320   6.201   4.693   1.569
  105TIP3    H1  321   6.271   4.690   1.635
  105TIP3    H2  322   6.140   4.758   1.603
  106TIP3   OH2  323   0.992   4.954   2.117
  106TIP3    H1  324   0.982   5.015   2.043
  106TIP3    H2  325   1.062   4.895   2.090
  107TIP3   OH2  326   2.295   0.712   4.363
  107TIP3    H1  327   2.274   0.628   4.405
  107TIP3    H2  328   2.260   0.778   4.423
  108TIP3   OH2  329   6.292   3.982   3.379
  108TIP3    H1  330   6.377   3.959   3.417
  108TIP3    H2  331   6.243   3.900   3.380
  109TIP3   OH2  332   4.267   0.262   4.804
  109TIP3    H1  333   4.318   0.201   4.751
  109TIP3    H2  334   4.239   0.330   4.742
  110TIP3   OH2  335   2.396   0.316   1.668
  110TIP3    H1  336   2.376   0.400   1.710
  110TIP3    H2  337   2.442   0.265   1.734
  111TIP3   OH2  338   1.624   2.479   2.336
  111TIP3    H1  339   1.563   2.406   2.342
  111TIP3    H2  340   1.569   2.557   2.329
  112TIP3   OH2  341   1.379   1.576   2.833
  112TIP3    H1  342   1.458   1.630   2.829
  112TIP3    H2  343   1.338   1.600   2.916
  113TIP3   OH2  344   6.283   1.287   0.071
  113TIP3    H1  345   6.231   1.273  -0.008
  113TIP3    H2  346   6.242   1.231   0.136
  114TIP3   OH2  347   0.705   3.782   0.398
  114TIP3    H1  348   0.736   3.840   0.468
  114TIP3    H2  349   0.613   3.767   0.418
  115TIP3   OH2  350   5.767   0.744   1.985
  115TIP3    H1  351   5.766   0.747   2.081
  115TIP3    H2  352   5.857   0.766   1.962
  116TIP3   OH2  353   1.205   0.135   0.951
  116TIP3    H1  354   1.279   0.122   1.010
  116TIP3    H2  355   1.229   0.089   0.871
  117TIP3   OH2  356   2.324   4.480   0.377
  117TIP3    H1  357   2.408   4.461   0.336
  117TIP3    H2  358   2.324   4.575   0.390
  118TIP3   OH2  359   3.591   3.440   2.792
  118TIP3    H1  360   3.509   3.395   2.815
  118TIP3    H2  361   3.608   3.497   2.867
  119TIP3   OH2  362   5.387   0.302   3.145
  119TIP3    H1  363   5.402   0.208   3.152
  119TIP3    H2  364   5.407   0.336   3.232
  120TIP3   OH2  365   0.877   1.174   1.173
  120TIP3    H1  366   0.909   1.088   1.200
  120TIP3    H2  367   0.809   1.196   1.237
  121TIP3   OH2  368   4.444   1.987   3.647
  121TIP3    H1  369   4.459   1.910   3.592
  121TIP3    H2  370   4.523   2.040   3.638
  122TIP3   OH2  371   0.609   1.450   3.978
  122TIP3    H1  372   0.516   1.428   3.973
  122TIP3    H2  373   0.616   1.536   3.936
  123TIP3   OH2  374   4.241   0.165   1.969
  123TIP3    H1  375   4.302   0.218   2.020
  123TIP3    H2  376   4.296   0.112   1.912
  124TIP3   OH2  377   1.610   3.275   1.763
  124TIP3    H1  378   1.681   3.334   1.788
  124TIP3    H2  379   1.532   3.330   1.761
  125TIP3   OH2  380   3.187   5.005   1.559
  125TIP3    H1  381   3.133   4.987   1.635
  125TIP3    H2  382   3.252   5.069   1.590
  126TIP3   OH2  383   0.464   0.086   0.898
  126TIP3    H1  384   0.542   0.140   0.905
  126TIP3    H2  385   0.478   0.015   0.962
  127TIP3   OH2  386   1.102   2.907   3.189
  127TIP3    H1  387   1.138   2.818   3.190
  127TIP3    H2  388   1.132   2.946   3.271
  128TIP3   OH2  389   2.092   1.029   3.764
  128TIP3    H1  390   2.093   1.040   3.669
  128TIP3    H2  391   2.182   1.047   3.791
  129TIP3   OH2  392   1.893   1.612   1.366
  129TIP3    H1  393   1.856   1.626   1.453
  129TIP3    H2  394   1.970   1.669   1.364
  130TIP3   OH2  395   0.764   4.671   4.026
  130TIP3    H1  396   0.829   4.607   3.997
  130TIP3    H2  397   0.704   4.679   3.951
  131TIP3   OH2  398   1.425   4.811   4.610
  131TIP3    H1  399   1.435   4.898   4.572
  131TIP3    H2  400   1.337   4.812   4.648
  132TIP3   OH2  401   0.030   1.922   4.435
  132TIP3    H1  402  -0.003   1.889   4.351
  132TIP3    H2  403   0.071   2.006   4.413
  133TIP3   OH2  404   1.007   0.029   3.337
  133TIP3    H1  405   1.077  -0.021   3.377
  133TIP3    H2  406   1.038   0.120   3.340
  134TIP3   OH2  407   5.454   5.698   1.301
  134TIP3    H1  408   5.512   5.636   1.258
  134TIP3    H2  409   5.459   5.676   1.394
  135TIP3   OH2  410   6.307   2.638   2.863
  135TIP3    H1  411   6.353   2.575   2.807
  135TIP3    H2  412   6.301   2.594   2.948
  136TIP3   OH2  413   5.954   2.382   2.357
  136TIP3    H1  414   5.943   2.438   2.434
  136TIP3    H2  415   5.961   2.443   2.284
  137TIP3   OH2  416   3.230   0.784   4.695
  137TIP3    H1  417   3.280   0.820   4.623
  137TIP3    H2  418   3.258   0.834   4.772
  138TIP3   OH2  419   4.890   4.989   1.213
  138TIP3    H1  420   4.973   5.036   1.211
  138TIP3    H2  421   4.912   4.899   1.189
  139TIP3   OH2  422   4.306   3.858   2.232
  139TIP3    H1  423   4.356   3.778   2.241
  139TIP3    H2  424   4.252   3.862   2.312
  140TIP3   OH2  425   0.101   5.722   1.122
  140TIP3    H1  426   0.192   5.724   1.092
  140TIP3    H2  427   0.096   5.792   1.187
  141TIP3   OH2  428   5.466   2.463   3.167
  141TIP3    H1  429   5.419   2.457   3.084
  141TIP3    H2  430   5.401   2.499   3.228
  142TIP3   OH2  431   4.997   4.870   0.408
  142TIP3    H1  432   4.963   4.916   0.330
  142TIP3    H2  433   5.024   4.785   0.375
  143TIP3   OH2  434   6.298   2.315   2.252
  143TIP3    H1  435   6.253   2.376   2.311
  143TIP3    H2  436   6.387   2.308   2.289
  144TIP3   OH2  437   3.920   3.921   5.030
  144TIP3    H1  438   3.913   4.016   5.040
  144TIP3    H2  439   3.911   3.886   5.119
  145TIP3   OH2  440   5.793   3.265   2.589
  145TIP3    H1  441   5.844   3.294   2.665
  145TIP3    H2  442   5.786   3.170   2.601
  146TIP3   OH2  443   3.271   4.861   4.281
  146TIP3    H1  444   3.324   4.855   4.202
  146TIP3    H2  445   3.335   4.865   4.352
  147TIP3   OH2  446   0.179   1.208   4.794
  147TIP3    H1  447   0.250   1.179   4.852
  147TIP3    H2  448   0.217   1.277   4.740
  148TIP3   OH2  449   4.773   5.006   3.175
  148TIP3    H1  450   4.687   5.029   3.140
  148TIP3    H2  451   4.826   4.989   3.098
  149TIP3   OH2  452   1.539   0.177   3.472
  149TIP3    H1  453   1.629   0.147   3.486
  149TIP3    H2  454   1.548   0.264   3.433
  150TIP3   OH2  455   1.082   5.624   2.175
  150TIP3    H1  456   1.029   5.599   2.099
  150TIP3    H2  457   1.131   5.700   2.146
  151TIP3   OH2  458   5.130   1.423   1.325
  151TIP3    H1  459   5.046   1.394   1.360
  151TIP3    H2  460   5.118   1.517   1.310
  152TIP3   OH2  461   3.500   0.795   2.382
  152TIP3    H1  462   3.502   0.886   2.412
  152TIP3    H2  463   3.537   0.745   2.455
  153TIP3   OH2  464   1.846   0.822   3.659
  153TIP3    H1  465   1.890   0.879   3.597
  153TIP3    H2  466   1.758   0.809   3.623
  154TIP3   OH2  467   6.179   2.355   4.468
  154TIP3    H1  468   6.194   2.277   4.521
  154TIP3    H2  469   6.096   2.338   4.423
  155TIP3   OH2  470   5.711   5.730   2.222
  155TIP3    H1  471   5.632   5.775   2.254
  155TIP3    H2  472   5.783   5.785   2.251
  156TIP3   OH2  473   0.644   0.748   5.014
  156TIP3    H1  474   0.728   0.703   5.006
  156TIP3    H2  475   0.634   0.796   4.932
  157TIP3   OH2  476   5.665   0.547   2.809
  157TIP3    H1  477   5.690   0.457   2.788
  157TIP3    H2  478   5.584   0.561   2.761
  158TIP3   OH2  479   2.236   4.543   3.902
  158TIP3    H1  480   2.158   4.551   3.956
  158TIP3    H2  481   2.287   4.622   3.921
  159TIP3   OH2  482   2.250   3.988   3.102
  159TIP3    H1  483   2.280   3.904   3.136
  159TIP3    H2  484   2.238   3.973   3.008
  160TIP3   OH2  485   0.749   2.355   2.289
  160TIP3    H1  486   0.763   2.387   2.200
  160TIP3    H2  487   0.726   2.263   2.279
  161TIP3   OH2  488   2.736   4.117   2.081
  161TIP3    H1  489   2.670   4.064   2.036
  161TIP3    H2  490   2.817   4.101   2.033
  162TIP3   OH2  491   5.423   4.710   1.227
  162TIP3    H1  492   5.396   4.775   1.162
  162TIP3    H2  493   5.509   4.681   1.197
  163TIP3   OH2  494   5.138   3.654   4.757
  163TIP3    H1  495   5.085   3.729   4.730
  163TIP3    H2  496   5.134   3.594   4.682
  164TIP3   OH2  497   1.039   2.499   0.434
  164TIP3    H1  498   1.109   2.441   0.465
  164TIP3    H2  499   1.061   2.517   0.343
  165TIP3   OH2  500   1.470   2.648   4.099
  165TIP3    H1  501   1.404   2.600   4.150
  165TIP3    H2  502   1.535   2.674   4.164
  166TIP3   OH2  503   0.802   3.424   3.670
  166TIP3    H1  504   0.865   3.492   3.647
  166TIP3    H2  505   0.720   3.452   3.631
  167TIP3   OH2  506   5.851   2.568   1.511
  167TIP3    H1  507   5.829   2.625   1.438
  167TIP3    H2  508   5.946   2.557   1.506
  168TIP3   OH2  509   2.728   0.485   4.945
  168TIP3    H1  510   2.759   0.397   4.966
  168TIP3    H2  511   2.670   0.473   4.870
  169TIP3   OH2  512   4.443   0.970   1.898
  169TIP3    H1  513   4.397   1.052   1.880
  169TIP3    H2  514   4.374   0.904   1.902
  170TIP3   OH2  515   4.112   1.398   3.091
  170TIP3    H1  516   4.114   1.359   3.004
  170TIP3    H2  517   4.032   1.365   3.131
  171TIP3   OH2  518   1.554   4.703   0.030
  171TIP3    H1  519   1.559   4.620  -0.018
  171TIP3    H2  520   1.500   4.683   0.107
  172TIP3   OH2  521   3.918   1.745   0.298
  172TIP3    H1  522   3.913   1.840   0.288
  172TIP3    H2  523   3.925   1.731   0.393
  173TIP3   OH2  524   3.788   4.013   4.449
  173TIP3    H1  525   3.786   3.925   4.485
  173TIP3    H2  526   3.867   4.053   4.485
  174TIP3   OH2  527   3.811   1.921   5.140
  174TIP3    H1  528   3.744   1.929   5.071
  174TIP3    H2  529   3.773   1.964   5.216
  175TIP3   OH2  530   3.638   4.451   2.098
  175TIP3    H1  531   3.721   4.482   2.059
  175TIP3    H2  532   3.593   4.407   2.026
  176TIP3   OH2  533   2.401   2.743   2.913
  176TIP3    H1  534   2.386   2.697   2.830
  176TIP3    H2  535   2.469   2.807   2.892
  177TIP3   OH2  536   5.935   2.224   4.433
  177TIP3    H1  537   5.866   2.287   4.452
  177TIP3    H2  538   5.892   2.139   4.438
  178TIP3   OH2  539   0.611   5.392   4.968
  178TIP3    H1  540   0.606   5.320   4.906
  178TIP3    H2  541   0.621   5.349   5.054
  179TIP3   OH2  542   4.478   2.105   4.069
  179TIP3    H1  543   4.438   2.183   4.030
  179TIP3    H2  544   4.572   2.118   4.055
  180TIP3   OH2  545   6.194   4.542   0.375
  180TIP3    H1  546   6.152   4.626   0.358
  180TIP3    H2  547   6.264   4.562   0.438
  181TIP3   OH2  548   3.150   0.365   3.320
  181TIP3    H1  549   3.059   0.340   3.336
  181TIP3    H2  550   3.196   0.343   3.400
  182TIP3   OH2  551   0.087   5.386   1.552
  182TIP3    H1  552   0.089   5.461   1.493
  182TIP3    H2  553  -0.002   5.386   1.588
  183TIP3   OH2  554   2.899   4.832   1.252
  183TIP3    H1  555   2.843   4.888   1.307
  183TIP3    H2  556   2.887   4.744   1.288
  184TIP3   OH2  557   4.136   2.554   4.782
  184TIP3    H1  558   4.077   2.504   4.725
  184TIP3    H2  559   4.187   2.487   4.827
  185TIP3   OH2  560   4.341   4.471   2.950
  185TIP3    H1  561   4.291   4.390   2.964
  185TIP3    H2  562   4.275   4.541   2.955
  186TIP3   OH2  563   4.857   4.618   2.879
  186TIP3    H1  564   4.912   4.591   2.953
  186TIP3    H2  565   4.783   4.558   2.881
  187TIP3   OH2  566   2.205   2.038   4.386
  187TIP3    H1  567   2.210   1.997   4.472
  187TIP3    H2  568   2.117   2.076   4.382
  188TIP3   OH2  569   0.280   0.158   3.623
  188TIP3    H1  570   0.247   0.224   3.684
  188TIP3    H2  571   0.203   0.133   3.572
  189TIP3   OH2  572   5.005   1.708   1.861
  189TIP3    H1  573   5.081   1.683   1.913
  189TIP3    H2  574   5.023   1.798   1.833
  190TIP3   OH2  575   1.792   4.495   0.232
  190TIP3    H1  576   1.737   4.493   0.310
  190TIP3    H2  577   1.733   4.474   0.160
  191TIP3   OH2  578   1.393   4.075   2.724
  191TIP3    H1  579   1.478   4.116   2.711
  191TIP3    H2  580   1.412   3.981   2.729
  192TIP3   OH2  581   5.801   5.268   4.180
  192TIP3    H1  582   5.777   5.291   4.090
  192TIP3    H2  583   5.717   5.267   4.227
  193TIP3   OH2  584   6.006   3.227   4.141
  193TIP3    H1  585   5.960   3.145   4.158
  193TIP3    H2  586   5.936   3.292   4.133
  194TIP3   OH2  587   4.010   5.786   0.205
  194TIP3    H1  588   3.962   5.723   0.259
  194TIP3    H2  589   3.968   5.870   0.223
  195TIP3   OH2  590   6.254   4.755   3.878
  195TIP3    H1  591   6.315   4.809   3.827
  195TIP3    H2  592   6.206   4.705   3.812
  196TIP3   OH2  593   3.238   5.825   0.954
  196TIP3    H1  594   3.233   5.734   0.924
  196TIP3    H2  595   3.148   5.849   0.973
  197TIP3   OH2  596   4.400   0.128   2.426
  197TIP3    H1  597   4.325   0.135   2.367
  197TIP3    H2  598   4.405   0.035   2.447
  198TIP3   OH2  599   1.344   4.950   4.228
  198TIP3    H1  600   1.367   4.995   4.309
  198TIP3    H2  601   1.349   5.017   4.160
  199TIP3   OH2  602   1.668   0.360   4.263
  199TIP3    H1  603   1.692   0.308   4.340
  199TIP3    H2  604   1.750   0.403   4.237
  200TIP3   OH2  605   0.878   3.582   5.093
  200TIP3    H1  606   0.895   3.611   5.003
  200TIP3    H2  607   0.836   3.497   5.082
  201TIP3   OH2  608   2.608   4.599   0.133
  201TIP3    H1  609   2.689   4.551   0.147
  201TIP3    H2  610   2.562   4.548   0.066
  202TIP3   OH2  611   0.875   5.270   2.070
  202TIP3    H1  612   0.810   5.324   2.115
  202TIP3    H2  613   0.835   5.252   1.985
  203TIP3   OH2  614   3.624   3.337   0.701
  203TIP3    H1  615   3.691   3.273   0.680
  203TIP3    H2  616   3.573   3.297   0.771
  204TIP3   OH2  617   6.151   3.884   0.233
  204TIP3    H1  618   6.068   3.855   0.194
  204TIP3    H2  619   6.138   3.977   0.250
  205TIP3   OH2  620   2.015   1.856   3.815
  205TIP3    H1  621   2.016   1.762   3.834
  205TIP3    H2  622   2.075   1.866   3.742
  206TIP3   OH2  623   2.086   4.251   3.492
  206TIP3    H1  624   2.117   4.240   3.582
  206TIP3    H2  625   2.093   4.345   3.476
  207TIP3   OH2  626   2.181   1.997   1.101
  207TIP3    H1  627   2.196   2.084   1.063
  207TIP3    H2  628   2.159   1.942   1.026
  208TIP3   OH2  629   3.840   0.817   0.960
  208TIP3    H1  630   3.875   0.811   1.049
  208TIP3    H2  631   3.884   0.746   0.912
  209TIP3   OH2  632   2.184   0.613   1.518
  209TIP3    H1  633   2.127   0.625   1.441
  209TIP3    H2  634   2.123   0.611   1.592
  210TIP3   OH2  635   0.461   3.295   4.949
  210TIP3    H1  636   0.376   3.251   4.946
  210TIP3    H2  637   0.488   3.300   4.858
  211TIP3   OH2  638   4.315   4.379   0.351
  211TIP3    H1  639   4.253   4.382   0.278
  211TIP3    H2  640   4.302   4.292   0.390
  212TIP3   OH2  641   5.639   4.778   2.929
  212TIP3    H1  642   5.598   4.795   3.014
  212TIP3    H2  643   5.623   4.858   2.879
  213TIP3   OH2  644   1.795   2.792   4.566
  213TIP3    H1  645   1.786   2.773   4.660
  213TIP3    H2  646   1.744   2.723   4.524
  214TIP3   OH2  647   5.578   0.290   2.698
  214TIP3    H1  648   5.533   0.332   2.624
  214TIP3    H2  649   5.637   0.226   2.658
  215TIP3   OH2  650   1.625   3.298   1.425
  215TIP3    H1  651   1.555   3.327   1.483
  215TIP3    H2  652   1.705   3.304   1.479
  216TIP3   OH2  653   5.164   5.345   3.778
  216TIP3    H1  654   5.229   5.415   3.785
  216TIP3    H2  655   5.080   5.391   3.771
  217TIP3   OH2  656   4.602   4.249   2.642
  217TIP3    H1  657   4.591   4.200   2.561
  217TIP3    H2  658   4.668   4.316   2.621
  218TIP3   OH2  659   4.067   2.460   4.389
  218TIP3    H1  660   4.078   2.449   4.295
  218TIP3    H2  661   4.154   2.484   4.421
  219TIP3   OH2  662   0.890   5.615   1.954
  219TIP3    H1  663   0.816   5.676   1.949
  219TIP3    H2  664   0.850   5.528   1.957
  220TIP3   OH2  665   5.701   3.628   3.546
  220TIP3    H1  666   5.760   3.669   3.611
  220TIP3    H2  667   5.681   3.699   3.485
  221TIP3   OH2  668   0.814   3.079   5.132
  221TIP3    H1  669   0.811   2.984   5.137
  221TIP3    H2  670   0.837   3.098   5.041
  222TIP3   OH2  671   0.638   3.433   3.983
  222TIP3    H1  672   0.633   3.401   3.892
  222TIP3    H2  673   0.621   3.527   3.976
  223TIP3   OH2  674   0.171   0.064   3.129
  223TIP3    H1  675   0.160   0.127   3.057
  223TIP3    H2  676   0.108  -0.006   3.109
  224TIP3   OH2  677   4.260   1.308   1.754
  224TIP3    H1  678   4.300   1.271   1.675
  224TIP3    H2  679   4.280   1.402   1.748
  225TIP3   OH2  680   5.758   4.655   4.167
  225TIP3    H1  681   5.775   4.593   4.239
  225TIP3    H2  682   5.809   4.621   4.094
  226TIP3   OH2  683   3.430   2.015   3.123
  226TIP3    H1  684   3.503   2.052   3.173
  226TIP3    H2  685   3.441   1.920   3.131
  227TIP3   OH2  686   2.351   0.572   1.145
  227TIP3    H1  687   2.383   0.529   1.065
  227TIP3    H2  688   2.312   0.502   1.197
  228TIP3   OH2  689   0.540   1.266   3.379
  228TIP3    H1  690   0.465   1.220   3.416
  228TIP3    H2  691   0.612   1.245   3.437
  229TIP3   OH2  692   1.682   0.551   2.510
  229TIP3    H1  693   1.765   0.548   2.559
  229TIP3    H2  694   1.687   0.632   2.460
  230TIP3   OH2  695   2.730   4.550   3.916
  230TIP3    H1  696   2.735   4.508   3.830
  230TIP3    H2  697   2.639   4.578   3.923
  231TIP3   OH2  698   4.726   4.371   2.256
  231TIP3    H1  699   4.715   4.410   2.169
  231TIP3    H2  700   4.711   4.277   2.242
  232TIP3   OH2  701   0.918   3.554   2.522
  232TIP3    H1  702   0.840   3.609   2.521
  232TIP3    H2  703   0.883   3.465   2.534
  233TIP3   OH2  704   3.272   2.735   2.073
  233TIP3    H1  705   3.229   2.664   2.027
  233TIP3    H2  706   3.201   2.786   2.112
  234TIP3   OH2  707   3.149   5.103   4.326
  234TIP3    H1  708   3.230   5.153   4.332
  234TIP3    H2  709   3.173   5.024   4.278
  235TIP3   OH2  710   2.656   1.838   4.976
  235TIP3    H1  711   2.576   1.891   4.982
  235TIP3    H2  712   2.629   1.758   4.931
  236TIP3   OH2  713   1.243   4.048   4.631
  236TIP3    H1  714   1.318   4.089   4.589
  236TIP3    H2  715   1.177   4.117   4.637
  237TIP3   OH2  716   0.949   1.763   0.294
  237TIP3    H1  717   0.880   1.769   0.227
  237TIP3    H2  718   0.939   1.843   0.346
  238TIP3   OH2  719   0.187   3.187   2.932
  238TIP3    H1  720   0.142   3.169   3.014
  238TIP3    H2  721   0.203   3.101   2.893
  239TIP3   OH2  722   6.264   5.366   1.992
  239TIP3    H1  723   6.287   5.413   2.072
  239TIP3    H2  724   6.347   5.354   1.946
  240TIP3   OH2  725   3.860   0.737   1.884
  240TIP3    H1  726   3.781   0.694   1.852
  240TIP3    H2  727   3.886   0.686   1.961
  241TIP3   OH2  728   4.192   1.126   0.832
  241TIP3    H1  729   4.184   1.220   0.817
  241TIP3    H2  730   4.206   1.117   0.927
  242TIP3   OH2  731   5.215   5.308   3.205
  242TIP3    H1  732   5.168   5.265   3.276
  242TIP3    H2  733   5.270   5.240   3.167
  243TIP3   OH2  734   5.566   5.772   4.432
  243TIP3    H1  735   5.470   5.769   4.430
  243TIP3    H2  736   5.586   5.853   4.480
  244TIP3   OH2  737   2.214   5.637   0.381
  244TIP3    H1  738   2.240   5.730   0.380
  244TIP3    H2  739   2.138   5.634   0.439
  245TIP3   OH2  740   2.002   2.627   4.791
  245TIP3    H1  741   2.022   2.636   4.698
  245TIP3    H2  742   1.959   2.542   4.798
  246TIP3   OH2  743   1.288   0.199   0.425
  246TIP3    H1  744   1.281   0.271   0.488
  246TIP3    H2  745   1.285   0.120   0.478
  247TIP3   OH2  746   2.356   1.890   4.973
  247TIP3    H1  747   2.297   1.960   4.947
  247TIP3    H2  748   2.342   1.821   4.908
  248TIP3   OH2  749   2.689   5.534   0.186
  248TIP3    H1  750   2.626   5.479   0.233
  248TIP3    H2  751   2.770   5.484   0.187
  249TIP3   OH2  752   6.012   1.121   0.754
  249TIP3    H1  753   5.948   1.056   0.725
  249TIP3    H2  754   6.096   1.075   0.752
  250TIP3   OH2  755   0.728   4.933   0.684
  250TIP3    H1  756   0.734   4.971   0.772
  250TIP3    H2  757   0.756   5.003   0.626
  251TIP3   OH2  758   3.102   3.283   2.472
  251TIP3    H1  759   3.038   3.286   2.400
  251TIP3    H2  760   3.048   3.285   2.551
  252TIP3   OH2  761   3.253   5.992   1.659
  252TIP3    H1  762   3.238   6.086   1.647
  252TIP3    H2  763   3.348   5.983   1.666
  253TIP3   OH2  764   1.474   2.192   1.050
  253TIP3    H1  765   1.500   2.283   1.037
  253TIP3    H2  766   1.450   2.186   1.142
  254TIP3   OH2  767   5.426   1.255   2.234
  254TIP3    H1  768   5.460   1.183   2.286
  254TIP3    H2  769   5.364   1.214   2.174
  255TIP3   OH2  770   1.202   2.352   4.837
  255TIP3    H1  771   1.134   2.410   4.803
  255TIP3    H2  772   1.155   2.289   4.892
  256TIP3   OH2  773   0.936   5.500   2.392
  256TIP3    H1  774   0.947   5.408   2.368
  256TIP3    H2  775   0.973   5.549   2.319
  257TIP3   OH2  776   1.443   3.604   3.751
  257TIP3    H1  777   1.513   3.632   3.693
  257TIP3    H2  778   1.486   3.544   3.812
  258TIP3   OH2  779   2.793   1.612   3.473
  258TIP3    H1  780   2.837   1.690   3.438
  258TIP3    H2  781   2.704   1.642   3.493
  259TIP3   OH2  782   5.979   4.442   1.924
  259TIP3    H1  783   5.892   4.455   1.962
  259TIP3    H2  784   5.962   4.404   1.838
  260TIP3   OH2  785   4.990   0.910   2.037
  260TIP3    H1  786   4.933   0.847   1.993
  260TIP3    H2  787   5.072   0.906   1.989
  261TIP3   OH2  788   4.228   0.692   2.158
  261TIP3    H1  789   4.282   0.747   2.215
  261TIP3    H2  790   4.282   0.615   2.141
  262TIP3   OH2  791   1.763   4.685   1.243
  262TIP3    H1  792   1.786   4.593   1.228
  262TIP3    H2  793   1.784   4.729   1.161
  263TIP3   OH2  794   3.488   2.532   3.550
  263TIP3    H1  795   3.503   2.475   3.626
  263TIP3    H2  796   3.397   2.516   3.525
  264TIP3   OH2  797   0.756   1.148   1.838
  264TIP3    H1  798   0.807   1.068   1.846
  264TIP3    H2  799   0.798   1.210   1.898
  265TIP3   OH2  800   1.414   5.433   0.336
  265TIP3    H1  801   1.436   5.342   0.315
  265TIP3    H2  802   1.497   5.472   0.364
  266TIP3   OH2  803   5.592   1.497   3.190
  266TIP3    H1  804   5.575   1.549   3.270
  266TIP3    H2  805   5.647   1.554   3.137
  267TIP3   OH2  806   2.699   2.117   5.179
  267TIP3    H1  807   2.706   2.111   5.084
  267TIP3    H2  808   2.616   2.073   5.200
  268TIP3   OH2  809   5.283   2.872   4.783
  268TIP3    H1  810   5.242   2.952   4.751
  268TIP3    H2  811   5.213   2.807   4.782
  269TIP3   OH2  812   2.289   4.975   4.040
  269TIP3    H1  813   2.277   5.064   4.007
  269TIP3    H2  814   2.252   4.977   4.128
  270TIP3   OH2  815   1.225   1.337   3.008
  270TIP3    H1  816   1.133   1.342   2.983
  270TIP3    H2  817   1.245   1.423   3.045
  271TIP3   OH2  818   1.170   3.350   0.617
  271TIP3    H1  819   1.248   3.377   0.569
  271TIP3    H2  820   1.100   3.406   0.582
  272TIP3   OH2  821   4.679   3.962   2.794
  272TIP3    H1  822   4.670   4.011   2.713
  272TIP3    H2  823   4.763   3.917   2.786
  273TIP3   OH2  824   6.162   4.600   3.071
  273TIP3    H1  825   6.165   4.549   3.152
  273TIP3    H2  826   6.250   4.636   3.062
  274TIP3   OH2  827   2.931   2.318   4.364
  274TIP3    H1  828   2.845   2.278   4.353
  274TIP3    H2  829   2.952   2.304   4.456
  275TIP3   OH2  830   3.048   0.713   1.180
  275TIP3    H1  831   3.077   0.655   1.250
  275TIP3    H2  832   2.953   0.701   1.177
  276TIP3   OH2  833   3.569   1.151   2.702
  276TIP3    H1  834   3.659   1.117   2.706
  276TIP3    H2  835   3.537   1.121   2.616
  277TIP3   OH2  836   5.093   5.910   1.957
  277TIP3    H1  837   5.091   6.005   1.948
  277TIP3    H2  838   5.179   5.885   1.923
  278TIP3   OH2  839   4.239   3.301   0.414
  278TIP3    H1  840   4.153   3.313   0.455
  278TIP3    H2  841   4.301   3.343   0.474
  279TIP3   OH2  842   2.030   1.039   0.581
  279TIP3    H1  843   2.123   1.047   0.601
  279TIP3    H2  844   1.988   1.105   0.636
  280TIP3   OH2  845   5.902   2.494   4.276
  280TIP3    H1  846   5.830   2.486   4.339
  280TIP3    H2  847   5.893   2.417   4.220
  281TIP3   OH2  848   1.639   5.418   3.940
  281TIP3    H1  849   1.700   5.413   3.867
  281TIP3    H2  850   1.596   5.503   3.930
  282TIP3   OH2  851   2.259   3.972   1.147
  282TIP3    H1  852   2.214   4.015   1.075
  282TIP3    H2  853   2.200   3.982   1.222
  283TIP3   OH2  854   1.865   4.829   1.466
  283TIP3    H1  855   1.957   4.813   1.446
  283TIP3    H2  856   1.817   4.778   1.401
  284TIP3   OH2  857   3.500   4.619   0.863
  284TIP3    H1  858   3.422   4.660   0.827
  284TIP3    H2  859   3.527   4.676   0.935
  285TIP3   OH2  860   5.324   2.381   0.415
  285TIP3    H1  861   5.274   2.317   0.365
  285TIP3    H2  862   5.411   2.380   0.376
  286TIP3   OH2  863   5.702   0.305   4.069
  286TIP3    H1  864   5.746   0.277   3.988
  286TIP3    H2  865   5.702   0.227   4.124
  287TIP3   OH2  866   1.909   4.833   0.345
  287TIP3    H1  867   1.883   4.763   0.284
  287TIP3    H2  868   1.974   4.884   0.297
  288TIP3   OH2  869   5.622   4.986   2.746
  288TIP3    H1  870   5.706   4.946   2.723
  288TIP3    H2  871   5.643   5.077   2.765
  289TIP3   OH2  872   0.151   4.212   2.268
  289TIP3    H1  873   0.220   4.150   2.291
  289TIP3    H2  874   0.078   4.188   2.324
  290TIP3   OH2  875   4.396   2.554   3.075
  290TIP3    H1  876   4.410   2.629   3.017
  290TIP3    H2  877   4.383   2.593   3.161
  291TIP3   OH2  878   0.996   3.176   3.393
  291TIP3    H1  879   0.903   3.175   3.371
  291TIP3    H2  880   0.998   3.190   3.488
  292TIP3   OH2  881   5.727   5.357   3.453
  292TIP3    H1  882   5.765   5.315   3.531
  292TIP3    H2  883   5.726   5.451   3.475
  293TIP3   OH2  884   3.610   0.699   0.875
  293TIP3    H1  885   3.677   0.766   0.885
  293TIP3    H2  886   3.532   0.737   0.916
  294TIP3   OH2  887   0.187   5.338   2.465
  294TIP3    H1  888   0.097   5.308   2.452
  294TIP3    H2  889   0.182   5.399   2.538
  295TIP3   OH2  890   4.674   0.662   1.766
  295TIP3    H1  891   4.723   0.689   1.844
  295TIP3    H2  892   4.742   0.642   1.701
  296TIP3   OH2  893   3.459   1.570   4.735
  296TIP3    H1  894   3.490   1.480   4.718
  296TIP3    H2  895   3.366   1.567   4.715
  297TIP3   OH2  896   4.893   5.810   0.034
  297TIP3    H1  897   4.918   5.801   0.126
  297TIP3    H2  898   4.959   5.759  -0.014
  298TIP3   OH2  899   4.553  -0.067   3.289
  298TIP3    H1  900   4.483  -0.018   3.245
  298TIP3    H2  901   4.626  -0.005   3.293
  299TIP3   OH2  902   1.629   0.840   1.754
  299TIP3    H1  903   1.608   0.903   1.685
  299TIP3    H2  904   1.714   0.805   1.730
  300TIP3   OH2  905   3.944   2.560   0.031
  300TIP3    H1  906   4.040   2.554   0.038
  300TIP3    H2  907   3.916   2.595   0.115
  301TIP3   OH2  908   5.487   4.761   3.607
  301TIP3    H1  909   5.480   4.694   3.539
  301TIP3    H2  910   5.398   4.769   3.642
  302TIP3   OH2  911   1.769   4.406   2.859
  302TIP3    H1  912   1.844   4.389   2.916
  302TIP3    H2  913   1.693   4.406   2.917
  303TIP3   OH2  914   1.024   1.743   4.150
  303TIP3    H1  915   1.073   1.690   4.087
  303TIP3    H2  916   1.076   1.824   4.159
  304TIP3   OH2  917   1.003   3.652   2.294
  304TIP3    H1  918   1.010   3.737   2.338
  304TIP3    H2  919   0.958   3.596   2.357
  305TIP3   OH2  920   1.065   0.561   0.537
  305TIP3    H1  921   1.078   0.495   0.604
  305TIP3    H2  922   0.996   0.617   0.572
  306TIP3   OH2  923  -0.019   2.763   4.501
  306TIP3    H1  924  -0.042   2.728   4.415
  306TIP3    H2  925   0.063   2.809   4.487
  307TIP3   OH2  926   3.572   5.588   2.173
  307TIP3    H1  927   3.587   5.572   2.080
  307TIP3    H2  928   3.572   5.683   2.181
  308TIP3   OH2  929   1.180   5.935   0.352
  308TIP3    H1  930   1.164   5.862   0.292
  308TIP3    H2  931   1.271   5.923   0.380
  309TIP3   OH2  932   0.963   5.862   3.014
  309TIP3    H1  933   0.964   5.795   2.946
  309TIP3    H2  934   1.002   5.818   3.090
  310TIP3   OH2  935   5.636   3.510   3.822
  310TIP3    H1  936   5.571   3.496   3.891
  310TIP3    H2  937   5.597   3.577   3.766
  311TIP3   OH2  938   1.317   0.375   3.730
  311TIP3    H1  939   1.242   0.374   3.670
  311TIP3    H2  940   1.277   0.378   3.817
  312TIP3   OH2  941   6.333   5.509   0.656
  312TIP3    H1  942   6.284   5.591   0.663
  312TIP3    H2  943   6.398   5.525   0.587
  313TIP3   OH2  944   2.413   5.070   0.788
  313TIP3    H1  945   2.502   5.105   0.778
  313TIP3    H2  946   2.376   5.121   0.861
  314TIP3   OH2  947   5.647   0.021   1.483
  314TIP3    H1  948   5.732   0.029   1.526
  314TIP3    H2  949   5.619   0.112   1.469
  315TIP3   OH2  950   4.945   3.990   0.786
  315TIP3    H1  951   4.963   3.903   0.822
  315TIP3    H2  952   5.015   4.004   0.722
  316TIP3   OH2  953   5.737   4.266   2.585
  316TIP3    H1  954   5.729   4.173   2.604
  316TIP3    H2  955   5.821   4.291   2.623
  317TIP3   OH2  956   2.715   5.470   0.478
  317TIP3    H1  957   2.638   5.527   0.476
  317TIP3    H2  958   2.738   5.464   0.570
  318TIP3   OH2  959   1.213   5.169   1.301
  318TIP3    H1  960   1.281   5.158   1.367
  318TIP3    H2  961   1.215   5.263   1.280
  319TIP3   OH2  962   3.120   2.945   0.597
  319TIP3    H1  963   3.112   2.984   0.510
  319TIP3    H2  964   3.098   3.016   0.657
  320TIP3   OH2  965   0.851   3.068   2.662
  320TIP3    H1  966   0.889   2.981   2.651
  320TIP3    H2  967   0.797   3.081   2.583
  321TIP3   OH2  968   4.211   3.606   2.899
  321TIP3    H1  969   4.190   3.688   2.854
  321TIP3    H2  970   4.163   3.539   2.851
  322TIP3   OH2  971   4.898   4.306   1.137
  322TIP3    H1  972   4.965   4.259   1.186
  322TIP3    H2  973   4.860   4.367   1.199
  323TIP3   OH2  974   5.189   4.313   3.237
  323TIP3    H1  975   5.210   4.380   3.302
  323TIP3    H2  976   5.262   4.251   3.242
  324TIP3   OH2  977   5.422   2.960   2.227
  324TIP3    H1  978   5.404   3.030   2.163
  324TIP3    H2  979   5.374   2.885   2.194
  325TIP3   OH2  980   5.156   5.743   1.339
  325TIP3    H1  981   5.249   5.725   1.329
  325TIP3    H2  982   5.133   5.708   1.425
  326TIP3   OH2  983   4.852   0.506   2.623
  326TIP3    H1  984   4.882   0.567   2.691
  326TIP3    H2  985   4.802   0.560   2.562
  327TIP3   OH2  986   5.164   4.645   0.438
  327TIP3    H1  987   5.140   4.575   0.498
  327TIP3    H2  988   5.226   4.605   0.378
  328TIP3   OH2  989   1.432   1.946   3.872
  328TIP3    H1  990   1.487   2.024   3.874
  328TIP3    H2  991   1.399   1.941   3.783
  329TIP3   OH2  992   3.168   4.660   1.223
  329TIP3    H1  993   3.165   4.714   1.302
  329TIP3    H2  994   3.167   4.722   1.151
  330TIP3   OH2  995   1.842   5.851   1.182
  330TIP3    H1  996   1.895   5.809   1.250
  330TIP3    H2  997   1.790   5.780   1.145
  331TIP3   OH2  998   3.533   0.510   3.468
  331TIP3    H1  999   3.615   0.459   3.468
  331TIP3    H2 1000   3.474   0.462   3.410
  332TIP3   OH2 1001   1.270   4.720   2.309
  332TIP3    H1 1002   1.352   4.672   2.306
  332TIP3    H2 1003   1.277   4.786   2.240
  333TIP3   OH2 1004   3.126   5.393   2.415
  333TIP3    H1 1005   3.211   5.372   2.376
  333TIP3    H2 1006   3.062   5.375   2.346
  334TIP3   OH2 1007   4.346   3.661   1.000
  334TIP3    H1 1008   4.263   3.678   1.044
  334TIP3    H2 1009   4.404   3.628   1.069
  335TIP3   OH2 1010   3.666   2.820   0.524
  335TIP3    H1 1011   3.686   2.856   0.437
  335TIP3    H2 1012   3.699   2.730   0.520
  336TIP3   OH2 1013   3.012   5.355   0.755
  336TIP3    H1 1014   3.060   5.292   0.702
  336TIP3    H2 1015   2.961   5.406   0.691
  337TIP3   OH2 1016   5.615   3.630   4.182
  337TIP3    H1 1017   5.620   3.535   4.167
  337TIP3    H2 1018   5.702   3.653   4.214
  338TIP3   OH2 1019   6.321   1.102   2.199
  338TIP3    H1 1020   6.275   1.020   2.181
  338TIP3    H2 1021   6.332   1.103   2.294
  339TIP3   OH2 1022   3.827   0.036   1.404
  339TIP3    H1 1023   3.821   0.120   1.359
  339TIP3    H2 1024   3.894  -0.012   1.355
  340TIP3   OH2 1025   3.647   0.140   2.380
  340TIP3    H1 1026   3.733   0.182   2.368
  340TIP3    H2 1027   3.591   0.210   2.413
  341TIP3   OH2 1028   3.915   2.584   2.322
  341TIP3    H1 1029   3.975   2.627   2.262
  341TIP3    H2 1030   3.869   2.520   2.268
  342TIP3   OH2 1031   0.817   0.831   1.711
  342TIP3    H1 1032   0.868   0.875   1.780
  342TIP3    H2 1033   0.846   0.740   1.715
  343TIP3   OH2 1034   1.711   2.311   0.458
  343TIP3    H1 1035   1.718   2.407   0.454
  343TIP3    H2 1036   1.781   2.280   0.400
  344TIP3   OH2 1037   4.898   2.478   0.274
  344TIP3    H1 1038   4.838   2.421   0.323
  344TIP3    H2 1039   4.961   2.417   0.234
  345TIP3   OH2 1040   0.919   0.713   1.260
  345TIP3    H1 1041   0.996   0.737   1.312
  345TIP3    H2 1042   0.905   0.788   1.202
  346TIP3   OH2 1043   2.934   2.812   4.849
  346TIP3    H1 1044   2.951   2.724   4.884
  346TIP3    H2 1045   3.014   2.860   4.868
  347TIP3   OH2 1046   2.083   4.524   3.449
  347TIP3    H1 1047   2.023   4.542   3.521
  347TIP3    H2 1048   2.132   4.606   3.438
  348TIP3   OH2 1049   1.908   0.805   1.923
  348TIP3    H1 1050   1.889   0.829   2.013
  348TIP3    H2 1051   1.889   0.885   1.873
  349TIP3   OH2 1052   2.236   0.170   4.416
  349TIP3    H1 1053   2.257   0.244   4.358
  349TIP3    H2 1054   2.218   0.097   4.357
  350TIP3   OH2 1055   5.326   1.498   1.549
  350TIP3    H1 1056   5.331   1.445   1.469
  350TIP3    H2 1057   5.416   1.530   1.563
  351TIP3   OH2 1058   4.118   0.011   3.406
  351TIP3    H1 1059   4.155   0.090   3.367
  351TIP3    H2 1060   4.150   0.011   3.497
  352TIP3   OH2 1061   0.718   3.764   4.282
  352TIP3    H1 1062   0.759   3.750   4.196
  352TIP3    H2 1063   0.663   3.687   4.295
  353TIP3   OH2 1064   2.934   2.490   1.652
  353TIP3    H1 1065   3.018   2.457   1.618
  353TIP3    H2 1066   2.869   2.427   1.622
  354TIP3   OH2 1067   3.727   5.320   5.054
  354TIP3    H1 1068   3.792   5.345   5.119
  354TIP3    H2 1069   3.675   5.399   5.040
  355TIP3   OH2 1070   3.625   4.131   1.680
  355TIP3    H1 1071   3.544   4.106   1.724
  355TIP3    H2 1072   3.653   4.212   1.724
  356TIP3   OH2 1073   5.234   2.924   5.061
  356TIP3    H1 1074   5.200   2.892   4.978
  356TIP3    H2 1075   5.249   3.017   5.046
  357TIP3   OH2 1076   0.268   1.977   0.154
  357TIP3    H1 1077   0.323   1.996   0.230
  357TIP3    H2 1078   0.189   1.937   0.191
  358TIP3   OH2 1079   4.600   0.023   5.138
  358TIP3    H1 1080   4.692   0.024   5.113
  358TIP3    H2 1081   4.601   0.042   5.232
  359TIP3   OH2 1082   2.215   0.497   3.570
  359TIP3    H1 1083   2.264   0.578   3.588
  359TIP3    H2 1084   2.219   0.488   3.474
  360TIP3   OH2 1085   0.649   2.533   4.081
  360TIP3    H1 1086   0.567   2.485   4.087
  360TIP3    H2 1087   0.630   2.608   4.025
  361TIP3   OH2 1088   4.137   3.275   2.960
  361TIP3    H1 1089   4.073   3.337   2.926
  361TIP3    H2 1090   4.093   3.234   3.034
  362TIP3   OH2 1091   4.803   4.854   0.629
  362TIP3    H1 1092   4.772   4.767   0.605
  362TIP3    H2 1093   4.895   4.856   0.600
  363TIP3   OH2 1094   4.178   4.427   3.855
  363TIP3    H1 1095   4.128   4.506   3.833
  363TIP3    H2 1096   4.194   4.385   3.770
  364TIP3   OH2 1097   5.992   4.373   0.914
  364TIP3    H1 1098   5.934   4.298   0.899
  364TIP3    H2 1099   6.021   4.399   0.827
  365TIP3   OH2 1100   2.324   3.586   0.801
  365TIP3    H1 1101   2.418   3.596   0.787
  365TIP3    H2 1102   2.297   3.669   0.841
  366TIP3   OH2 1103   3.495   4.154   0.247
  366TIP3    H1 1104   3.531   4.232   0.205
  366TIP3    H2 1105   3.536   4.153   0.334
  367TIP3   OH2 1106   3.291   4.957   3.934
  367TIP3    H1 1107   3.263   4.997   3.851
  367TIP3    H2 1108   3.353   5.020   3.971
  368TIP3   OH2 1109   3.110   5.020   2.549
  368TIP3    H1 1110   3.132   4.928   2.567
  368TIP3    H2 1111   3.163   5.070   2.611
  369TIP3   OH2 1112   6.337   1.534   4.659
  369TIP3    H1 1113   6.391   1.569   4.730
  369TIP3    H2 1114   6.273   1.479   4.703
  370TIP3   OH2 1115   3.389   3.046   1.145
  370TIP3    H1 1116   3.336   3.009   1.075
  370TIP3    H2 1117   3.466   2.989   1.151
  371TIP3   OH2 1118   2.098   4.778   4.317
  371TIP3    H1 1119   2.073   4.854   4.265
  371TIP3    H2 1120   2.027   4.715   4.305
  372TIP3   OH2 1121   3.597   2.705   0.187
  372TIP3    H1 1122   3.609   2.655   0.106
  372TIP3    H2 1123   3.593   2.796   0.158
  373TIP3   OH2 1124   0.394   5.740   2.397
  373TIP3    H1 1125   0.485   5.718   2.375
  373TIP3    H2 1126   0.397   5.835   2.413
  374TIP3   OH2 1127   2.212   1.110   4.284
  374TIP3    H1 1128   2.165   1.027   4.281
  374TIP3    H2 1129   2.252   1.112   4.371
  375TIP3   OH2 1130   3.482   2.493   3.919
  375TIP3    H1 1131   3.538   2.441   3.862
  375TIP3    H2 1132   3.542   2.539   3.977
  376TIP3   OH2 1133   5.974   1.696   2.858
  376TIP3    H1 1134   5.980   1.617   2.804
  376TIP3    H2 1135   6.034   1.758   2.817
  377TIP3   OH2 1136   5.110   3.573   4.491
  377TIP3    H1 1137   5.110   3.630   4.414
  377TIP3    H2 1138   5.162   3.497   4.464
  378TIP3   OH2 1139   1.484   5.474   1.386
  378TIP3    H1 1140   1.498   5.529   1.463
  378TIP3    H2 1141   1.524   5.390   1.409
  379TIP3   OH2 1142   4.229   5.465   0.793
  379TIP3    H1 1143   4.306   5.480   0.848
  379TIP3    H2 1144   4.208   5.551   0.758
  380TIP3   OH2 1145   4.958   3.739   3.348
  380TIP3    H1 1146   4.910   3.688   3.413
  380TIP3    H2 1147   4.958   3.684   3.270
  381TIP3   OH2 1148   4.791   3.903   2.314
  381TIP3    H1 1149   4.848   3.847   2.261
  381TIP3    H2 1150   4.726   3.843   2.350
  382TIP3   OH2 1151   3.433   2.222   4.100
  382TIP3    H1 1152   3.377   2.173   4.040
  382TIP3    H2 1153   3.518   2.227   4.054
  383TIP3   OH2 1154   0.146   5.280   1.907
  383TIP3    H1 1155   0.123   5.191   1.880
  383TIP3    H2 1156   0.233   5.294   1.868
  384TIP3   OH2 1157   3.772   2.510   3.225
  384TIP3    H1 1158   3.682   2.514   3.259
  384TIP3    H2 1159   3.817   2.448   3.283
  385TIP3   OH2 1160   1.196   1.273   3.465
  385TIP3    H1 1161   1.273   1.277   3.521
  385TIP3    H2 1162   1.131   1.328   3.510
  386TIP3   OH2 1163   5.238   4.897   0.280
  386TIP3    H1 1164   5.256   4.857   0.365
  386TIP3    H2 1165   5.220   4.989   0.300
  387TIP3   OH2 1166   4.811   0.161   4.855
  387TIP3    H1 1167   4.822   0.140   4.948
  387TIP3    H2 1168   4.727   0.207   4.851
  388TIP3   OH2 1169   0.412   5.467   2.115
  388TIP3    H1 1170   0.455   5.546   2.083
  388TIP3    H2 1171   0.328   5.498   2.148
  389TIP3   OH2 1172   5.321   0.252   0.766
  389TIP3    H1 1173   5.393   0.191   0.782
  389TIP3    H2 1174   5.333   0.320   0.833
  390TIP3   OH2 1175   0.033   0.490   0.202
  390TIP3    H1 1176  -0.027   0.563   0.220
  390TIP3    H2 1177   0.090   0.523   0.132
  391TIP3   OH2 1178   6.024   4.319   1.312
  391TIP3    H1 1179   6.063   4.252   1.369
  391TIP3    H2 1180   6.088   4.390   1.311
  392TIP3   OH2 1181   0.808   2.420   0.989
  392TIP3    H1 1182   0.890   2.372   0.998
  392TIP3    H2 1183   0.833   2.512   0.993
  393TIP3   OH2 1184   2.089   0.937   1.649
  393TIP3    H1 1185   2.040   0.855   1.645
  393TIP3    H2 1186   2.057   0.988   1.575
  394TIP3   OH2 1187   2.335  -0.029   0.521
  394TIP3    H1 1188   2.363   0.061   0.535
  394TIP3    H2 1189   2.240  -0.023   0.509
  395TIP3   OH2 1190   0.191   2.825   0.685
  395TIP3    H1 1191   0.170   2.735   0.659
  395TIP3    H2 1192   0.228   2.817   0.773
  396TIP3   OH2 1193   5.911   2.810   4.296
  396TIP3    H1 1194   5.897   2.884   4.356
  396TIP3    H2 1195   5.894   2.732   4.349
  397TIP3   OH2 1196   3.471   1.621   1.857
  397TIP3    H1 1197   3.473   1.529   1.833
  397TIP3    H2 1198   3.550   1.634   1.910
  398TIP3   OH2 1199   1.893   3.346   1.450
  398TIP3    H1 1200   1.978   3.304   1.440
  398TIP3    H2 1201   1.882   3.397   1.369
  399TIP3   OH2 1202   3.057   1.000  -0.038
  399TIP3    H1 1203   3.069   0.986  -0.132
  399TIP3    H2 1204   3.061   0.912   0.000
  400TIP3   OH2 1205   5.890   0.016   0.869
  400TIP3    H1 1206   5.828   0.022   0.796
  400TIP3    H2 1207   5.935   0.101   0.870
  401TIP3   OH2 1208   4.305   2.540   4.530
  401TIP3    H1 1209   4.283   2.594   4.606
  401TIP3    H2 1210   4.370   2.478   4.562
  402TIP3   OH2 1211   1.488   5.157   0.199
  402TIP3    H1 1212   1.439   5.146   0.281
  402TIP3    H2 1213   1.465   5.080   0.147
  403TIP3   OH2 1214   3.260   2.810   4.517
  403TIP3    H1 1215   3.313   2.883   4.483
  403TIP3    H2 1216   3.262   2.744   4.448
  404TIP3   OH2 1217   5.294   5.650   0.640
  404TIP3    H1 1218   5.214   5.611   0.606
  404TIP3    H2 1219   5.298   5.620   0.731
  405TIP3   OH2 1220   0.966   4.028   4.069
  405TIP3    H1 1221   1.036   3.963   4.064
  405TIP3    H2 1222   0.893   3.990   4.019
  406TIP3   OH2 1223   6.224   3.067   2.114
  406TIP3    H1 1224   6.148   3.125   2.111
  406TIP3    H2 1225   6.213   3.010   2.038
  407TIP3   OH2 1226   4.976   4.265   4.362
  407TIP3    H1 1227   5.057   4.289   4.318
  407TIP3    H2 1228   4.916   4.337   4.344
  408TIP3   OH2 1229   0.235   5.405   3.506
  408TIP3    H1 1230   0.269   5.491   3.482
  408TIP3    H2 1231   0.140   5.414   3.504
  409TIP3   OH2 1232   1.438   3.437   1.558
  409TIP3    H1 1233   1.370   3.462   1.496
  409TIP3    H2 1234   1.403   3.462   1.644
  410TIP3   OH2 1235   2.199   3.938   2.834
  410TIP3    H1 1236   2.155   4.017   2.803
  410TIP3    H2 1237   2.292   3.955   2.821
  411TIP3   OH2 1238   1.818   0.419   5.124
  411TIP3    H1 1239   1.883   0.384   5.185
  411TIP3    H2 1240   1.769   0.483   5.176
  412TIP3   OH2 1241   1.809   2.426   3.504
  412TIP3    H1 1242   1.756   2.389   3.433
  412TIP3    H2 1243   1.784   2.518   3.508
  413TIP3   OH2 1244   0.346   5.436   2.709
  413TIP3    H1 1245   0.329   5.367   2.773
  413TIP3    H2 1246   0.440   5.451   2.714
  414TIP3   OH2 1247   4.031   1.495   1.189
  414TIP3    H1 1248   4.074   1.440   1.125
  414TIP3    H2 1249   4.057   1.584   1.166
  415TIP3   OH2 1250   2.635   4.487   0.593
  415TIP3    H1 1251   2.556   4.526   0.554
  415TIP3    H2 1252   2.699   4.559   0.593
  416TIP3   OH2 1253   1.979   2.241   5.088
  416TIP3    H1 1254   1.886   2.262   5.091
  416TIP3    H2 1255   2.019   2.316   5.043
  417TIP3   OH2 1256   1.970   0.369   4.916
  417TIP3    H1 1257   1.918   0.397   4.991
  417TIP3    H2 1258   2.056   0.408   4.931
  418TIP3   OH2 1259   2.215   0.146   4.998
  418TIP3    H1 1260   2.253   0.162   5.084
  418TIP3    H2 1261   2.127   0.114   5.016
  419TIP3   OH2 1262   2.394   4.434   1.145
  419TIP3    H1 1263   2.327   4.500   1.161
  419TIP3    H2 1264   2.421   4.448   1.054
  420TIP3   OH2 1265   4.646   0.919   3.846
  420TIP3    H1 1266   4.713   0.878   3.792
  420TIP3    H2 1267   4.564   0.879   3.818
  421TIP3   OH2 1268   1.156   0.352   0.767
  421TIP3    H1 1269   1.083   0.296   0.740
  421TIP3    H2 1270   1.205   0.299   0.830
  422TIP3   OH2 1271   4.963   3.351   4.272
  422TIP3    H1 1272   5.011   3.431   4.251
  422TIP3    H2 1273   5.008   3.315   4.349
  423TIP3   OH2 1274   2.734   4.688   2.317
  423TIP3    H1 1275   2.767   4.684   2.227
  423TIP3    H2 1276   2.770   4.769   2.352
  424TIP3   OH2 1277   0.442   2.798   3.653
  424TIP3    H1 1278   0.475   2.887   3.639
  424TIP3    H2 1279   0.506   2.742   3.609
  425TIP3   OH2 1280   4.408   3.146   2.716
  425TIP3    H1 1281   4.385   3.228   2.760
  425TIP3    H2 1282   4.327   3.116   2.675
  426TIP3   OH2 1283   4.677   0.109   1.253
  426TIP3    H1 1284   4.719   0.162   1.185
  426TIP3    H2 1285   4.739   0.038   1.270
  427TIP3   OH2 1286   0.627   5.524   2.684
  427TIP3    H1 1287   0.689   5.454   2.705
  427TIP3    H2 1288   0.679   5.590   2.639
  428TIP3   OH2 1289   3.878   5.600   2.082
  428TIP3    H1 1290   3.835   5.550   2.151
  428TIP3    H2 1291   3.920   5.673   2.128
  429TIP3   OH2 1292   2.467   5.907   1.964
  429TIP3    H1 1293   2.533   5.839   1.955
  429TIP3    H2 1294   2.517   5.989   1.970
  430TIP3   OH2 1295   2.039   4.835   3.905
  430TIP3    H1 1296   2.092   4.835   3.825
  430TIP3    H2 1297   2.064   4.915   3.951
  431TIP3   OH2 1298   3.037   0.676   0.545
  431TIP3    H1 1299   3.002   0.741   0.605
  431TIP3    H2 1300   3.132   0.682   0.555
  432TIP3   OH2 1301   1.569   4.359   2.179
  432TIP3    H1 1302   1.593   4.397   2.264
  432TIP3    H2 1303   1.491   4.407   2.153
  433TIP3   OH2 1304   5.051   4.250   0.884
  433TIP3    H1 1305   4.984   4.272   0.948
  433TIP3    H2 1306   5.016   4.174   0.837
  434TIP3   OH2 1307   2.760   1.786   0.791
  434TIP3    H1 1308   2.692   1.852   0.779
  434TIP3    H2 1309   2.727   1.708   0.747
  435TIP3   OH2 1310   0.339   2.552   0.403
  435TIP3    H1 1311   0.308   2.623   0.348
  435TIP3    H2 1312   0.389   2.496   0.344
  436TIP3   OH2 1313   1.724   2.262   4.241
  436TIP3    H1 1314   1.651   2.303   4.287
  436TIP3    H2 1315   1.696   2.172   4.225
  437TIP3   OH2 1316   6.312   3.921   3.829
  437TIP3    H1 1317   6.326   3.909   3.736
  437TIP3    H2 1318   6.277   3.838   3.860
  438TIP3   OH2 1319   2.885   1.222   2.633
  438TIP3    H1 1320   2.811   1.164   2.619
  438TIP3    H2 1321   2.961   1.165   2.636
  439TIP3   OH2 1322   2.149   5.362   5.041
  439TIP3    H1 1323   2.206   5.308   4.988
  439TIP3    H2 1324   2.074   5.306   5.062
  440TIP3   OH2 1325   1.028   3.452   3.312
  440TIP3    H1 1326   1.011   3.360   3.331
  440TIP3    H2 1327   0.957   3.479   3.255
  441TIP3   OH2 1328   3.265   3.920   1.292
  441TIP3    H1 1329   3.222   3.967   1.363
  441TIP3    H2 1330   3.352   3.898   1.327
  442TIP3   OH2 1331   2.051   4.131   2.584
  442TIP3    H1 1332   2.053   4.206   2.524
  442TIP3    H2 1333   2.060   4.170   2.671
  443TIP3   OH2 1334   2.768   4.269   4.986
  443TIP3    H1 1335   2.846   4.275   5.042
  443TIP3    H2 1336   2.713   4.343   5.014
  444TIP3   OH2 1337   1.079   3.801   2.698
  444TIP3    H1 1338   1.106   3.728   2.754
  444TIP3    H2 1339   1.024   3.761   2.632
  445TIP3   OH2 1340   1.072   3.092   4.404
  445TIP3    H1 1341   1.122   3.169   4.431
  445TIP3    H2 1342   1.128   3.049   4.339
  446TIP3   OH2 1343   5.956   0.817   0.560
  446TIP3    H1 1344   5.898   0.879   0.605
  446TIP3    H2 1345   6.011   0.781   0.630
  447TIP3   OH2 1346   3.789   0.183   4.394
  447TIP3    H1 1347   3.797   0.266   4.346
  447TIP3    H2 1348   3.737   0.205   4.471
  448TIP3   OH2 1349   2.655   1.175   4.500
  448TIP3    H1 1350   2.592   1.195   4.431
  448TIP3    H2 1351   2.676   1.082   4.488
  449TIP3   OH2 1352   4.460   2.987   2.371
  449TIP3    H1 1353   4.375   3.000   2.411
  449TIP3    H2 1354   4.464   2.894   2.351
  450TIP3   OH2 1355   1.176   4.888   4.685
  450TIP3    H1 1356   1.114   4.954   4.715
  450TIP3    H2 1357   1.166   4.886   4.590
  451TIP3   OH2 1358   4.294   5.595   3.914
  451TIP3    H1 1359   4.224   5.533   3.934
  451TIP3    H2 1360   4.360   5.581   3.982
  452TIP3   OH2 1361   4.491   2.857   4.078
  452TIP3    H1 1362   4.508   2.931   4.135
  452TIP3    H2 1363   4.396   2.859   4.063
  453TIP3   OH2 1364   4.135   1.107   1.168
  453TIP3    H1 1365   4.048   1.136   1.140
  453TIP3    H2 1366   4.136   1.120   1.263
  454TIP3   OH2 1367   4.828   2.931   4.898
  454TIP3    H1 1368   4.886   2.994   4.941
  454TIP3    H2 1369   4.886   2.863   4.864
  455TIP3   OH2 1370   5.926   5.527   0.634
  455TIP3    H1 1371   5.959   5.454   0.582
  455TIP3    H2 1372   5.999   5.588   0.640
  456TIP3   OH2 1373   2.478   3.620   4.386
  456TIP3    H1 1374   2.411   3.571   4.433
  456TIP3    H2 1375   2.437   3.645   4.303
  457TIP3   OH2 1376   2.935   2.208   2.468
  457TIP3    H1 1377   2.972   2.124   2.442
  457TIP3    H2 1378   2.944   2.263   2.390
  458TIP3   OH2 1379   1.530   5.139   3.219
  458TIP3    H1 1380   1.609   5.092   3.247
  458TIP3    H2 1381   1.458   5.082   3.247
  459TIP3   OH2 1382   5.614   5.619   3.981
  459TIP3    H1 1383   5.684   5.604   4.045
  459TIP3    H2 1384   5.655   5.603   3.897
  460TIP3   OH2 1385   0.168   3.106   4.661
  460TIP3    H1 1386   0.098   3.170   4.673
  460TIP3    H2 1387   0.202   3.091   4.749
  461TIP3   OH2 1388   2.003   3.454   4.827
  461TIP3    H1 1389   2.008   3.366   4.791
  461TIP3    H2 1390   2.012   3.512   4.751
  462TIP3   OH2 1391   4.697   3.340   3.399
  462TIP3    H1 1392   4.690   3.278   3.326
  462TIP3    H2 1393   4.769   3.307   3.452
  463TIP3   OH2 1394   2.364   1.517   0.254
  463TIP3    H1 1395   2.410   1.601   0.249
  463TIP3    H2 1396   2.420   1.456   0.206
  464TIP3   OH2 1397   5.582   2.193   3.538
  464TIP3    H1 1398   5.636   2.117   3.519
  464TIP3    H2 1399   5.492   2.164   3.522
  465TIP3   OH2 1400   2.252   5.493   1.029
  465TIP3    H1 1401   2.234   5.506   0.936
  465TIP3    H2 1402   2.218   5.571   1.072
  466TIP3   OH2 1403   1.000   5.427   3.612
  466TIP3    H1 1404   1.064   5.470   3.555
  466TIP3    H2 1405   0.938   5.497   3.635
  467TIP3   OH2 1406   3.796   2.443   2.074
  467TIP3    H1 1407   3.724   2.486   2.120
  467TIP3    H2 1408   3.758   2.361   2.042
  468TIP3   OH2 1409  -0.006   3.540   1.206
  468TIP3    H1 1410  -0.070   3.473   1.180
  468TIP3    H2 1411   0.055   3.545   1.132
  469TIP3   OH2 1412   4.007   5.316   0.694
  469TIP3    H1 1413   3.993   5.257   0.768
  469TIP3    H2 1414   4.086   5.364   0.716
  470TIP3   OH2 1415   5.439   2.404   0.724
  470TIP3    H1 1416   5.346   2.407   0.745
  470TIP3    H2 1417   5.443   2.413   0.629
  471TIP3   OH2 1418   1.098   1.155   1.981
  471TIP3    H1 1419   1.159   1.102   2.032
  471TIP3    H2 1420   1.031   1.094   1.952
  472TIP3   OH2 1421   5.389   4.200   4.590
  472TIP3    H1 1422   5.345   4.257   4.653
  472TIP3    H2 1423   5.482   4.216   4.604
  473TIP3   OH2 1424   1.164   4.712   2.016
  473TIP3    H1 1425   1.190   4.640   2.075
  473TIP3    H2 1426   1.109   4.670   1.951
  474TIP3   OH2 1427   5.676   1.031   2.876
  474TIP3    H1 1428   5.604   0.972   2.897
  474TIP3    H2 1429   5.659   1.110   2.928
  475TIP3   OH2 1430   4.096   5.674   0.562
  475TIP3    H1 1431   4.149   5.711   0.633
  475TIP3    H2 1432   4.017   5.728   0.560
  476TIP3   OH2 1433   3.509   4.365   2.925
  476TIP3    H1 1434   3.474   4.333   2.842
  476TIP3    H2 1435   3.583   4.307   2.944
  477TIP3   OH2 1436   2.556   1.592   4.503
  477TIP3    H1 1437   2.517   1.566   4.420
  477TIP3    H2 1438   2.649   1.577   4.492
  478TIP3   OH2 1439   5.850   4.569   3.931
  478TIP3    H1 1440   5.845   4.473   3.934
  478TIP3    H2 1441   5.931   4.587   3.884
  479TIP3   OH2 1442   5.897   3.248   2.180
  479TIP3    H1 1443   5.860   3.198   2.108
  479TIP3    H2 1444   5.821   3.282   2.227
  480TIP3   OH2 1445   4.112   4.971   0.587
  480TIP3    H1 1446   4.027   4.936   0.560
  480TIP3    H2 1447   4.090   5.036   0.654
  481TIP3   OH2 1448   1.663   3.541   4.921
  481TIP3    H1 1449   1.626   3.571   4.838
  481TIP3    H2 1450   1.736   3.601   4.937
  482TIP3   OH2 1451   5.535   0.588   0.728
  482TIP3    H1 1452   5.565   0.584   0.638
  482TIP3    H2 1453   5.449   0.631   0.723
  483TIP3   OH2 1454   4.506   4.923   1.440
  483TIP3    H1 1455   4.422   4.969   1.440
  483TIP3    H2 1456   4.568   4.986   1.403
  484TIP3   OH2 1457   0.607   1.689   3.841
  484TIP3    H1 1458   0.609   1.778   3.806
  484TIP3    H2 1459   0.582   1.635   3.766
  485TIP3   OH2 1460   2.173   1.915   1.784
  485TIP3    H1 1461   2.174   1.821   1.765
  485TIP3    H2 1462   2.096   1.948   1.739
  486TIP3   OH2 1463   2.782   1.950   3.625
  486TIP3    H1 1464   2.841   1.890   3.581
  486TIP3    H2 1465   2.776   2.026   3.567
  487TIP3   OH2 1466   4.880   5.518   2.888
  487TIP3    H1 1467   4.849   5.449   2.947
  487TIP3    H2 1468   4.973   5.529   2.911
  488TIP3   OH2 1469   2.634   0.154   0.740
  488TIP3    H1 1470   2.668   0.208   0.811
  488TIP3    H2 1471   2.699   0.160   0.670
  489TIP3   OH2 1472   4.424   0.123   4.592
  489TIP3    H1 1473   4.448   0.125   4.500
  489TIP3    H2 1474   4.472   0.197   4.631
  490TIP3   OH2 1475   3.671   1.693   1.567
  490TIP3    H1 1476   3.691   1.749   1.642
  490TIP3    H2 1477   3.699   1.606   1.594
  491TIP3   OH2 1478   0.565   5.177   1.574
  491TIP3    H1 1479   0.511   5.154   1.498
  491TIP3    H2 1480   0.653   5.186   1.538
  492TIP3   OH2 1481   4.088   5.632   3.077
  492TIP3    H1 1482   4.069   5.551   3.124
  492TIP3    H2 1483   4.091   5.606   2.985
  493TIP3   OH2 1484   4.670   1.399   0.830
  493TIP3    H1 1485   4.629   1.314   0.813
  493TIP3    H2 1486   4.758   1.392   0.791
  494TIP3   OH2 1487   0.688   4.348   1.860
  494TIP3    H1 1488   0.641   4.381   1.937
  494TIP3    H2 1489   0.691   4.253   1.873
  495TIP3   OH2 1490   4.065   4.126   2.634
  495TIP3    H1 1491   3.994   4.187   2.654
  495TIP3    H2 1492   4.132   4.179   2.592
  496TIP3   OH2 1493   0.656   3.060   1.906
  496TIP3    H1 1494   0.635   3.130   1.845
  496TIP3    H2 1495   0.738   3.088   1.947
  497TIP3   OH2 1496   5.961   2.627   4.032
  497TIP3    H1 1497   5.944   2.612   4.125
  497TIP3    H2 1498   5.877   2.611   3.989
  498TIP3   OH2 1499   3.208   1.172   0.228
  498TIP3    H1 1500   3.222   1.262   0.200
  498TIP3    H2 1501   3.128   1.176   0.281
  499TIP3   OH2 1502   3.437   1.403   1.381
  499TIP3    H1 1503   3.341   1.399   1.386
  499TIP3    H2 1504   3.467   1.338   1.445
  500TIP3   OH2 1505   3.296   4.502   0.215
  500TIP3    H1 1506   3.359   4.454   0.161
  500TIP3    H2 1507   3.233   4.435   0.244
  501TIP3   OH2 1508   2.807   1.347   2.248
  501TIP3    H1 1509   2.797   1.304   2.333
  501TIP3    H2 1510   2.856   1.427   2.268
  502TIP3   OH2 1511   3.010   1.078   4.117
  502TIP3    H1 1512   3.048   1.139   4.179
  502TIP3    H2 1513   2.939   1.126   4.076
  503TIP3   OH2 1514   1.136   1.819   1.358
  503TIP3    H1 1515   1.106   1.824   1.449
  503TIP3    H2 1516   1.162   1.727   1.347
  504TIP3   OH2 1517   0.072   5.246   0.300
  504TIP3    H1 1518   0.037   5.195   0.226
  504TIP3    H2 1519   0.126   5.183   0.348
  505TIP3   OH2 1520   2.206   2.994   3.716
  505TIP3    H1 1521   2.169   3.073   3.756
  505TIP3    H2 1522   2.135   2.929   3.721
  506TIP3   OH2 1523   2.494   5.856   3.969
  506TIP3    H1 1524   2.494   5.866   3.874
  506TIP3    H2 1525   2.577   5.812   3.988
  507TIP3   OH2 1526   2.646   2.238   0.877
  507TIP3    H1 1527   2.700   2.230   0.956
  507TIP3    H2 1528   2.626   2.148   0.853
  508TIP3   OH2 1529   4.723   0.486   3.864
  508TIP3    H1 1530   4.781   0.461   3.791
  508TIP3    H2 1531   4.783   0.500   3.937
  509TIP3   OH2 1532   0.518   3.276   2.326
  509TIP3    H1 1533   0.468   3.205   2.286
  509TIP3    H2 1534   0.476   3.290   2.411
  510TIP3   OH2 1535   2.346   2.292   1.718
  510TIP3    H1 1536   2.356   2.208   1.674
  510TIP3    H2 1537   2.260   2.324   1.689
  511TIP3   OH2 1538   2.752   2.119   3.415
  511TIP3    H1 1539   2.761   2.167   3.333
  511TIP3    H2 1540   2.663   2.084   3.413
  512TIP3   OH2 1541   1.277   3.380   2.804
  512TIP3    H1 1542   1.284   3.337   2.719
  512TIP3    H2 1543   1.229   3.318   2.858
  513TIP3   OH2 1544   2.348   5.127   4.319
  513TIP3    H1 1545   2.277   5.175   4.276
  513TIP3    H2 1546   2.304   5.071   4.383
  514TIP3   OH2 1547   3.343   3.073   3.949
  514TIP3    H1 1548   3.361   3.068   3.855
  514TIP3    H2 1549   3.330   2.983   3.977
  515TIP3   OH2 1550   1.282   1.461   2.112
  515TIP3    H1 1551   1.225   1.534   2.134
  515TIP3    H2 1552   1.242   1.422   2.034
  516TIP3   OH2 1553   2.691   0.973   2.668
  516TIP3    H1 1554   2.638   0.908   2.622
  516TIP3    H2 1555   2.630   1.017   2.728
  517TIP3   OH2 1556   3.359   1.760   2.464
  517TIP3    H1 1557   3.267   1.734   2.452
  517TIP3    H2 1558   3.409   1.689   2.423
  518TIP3   OH2 1559   5.603   4.755   2.153
  518TIP3    H1 1560   5.616   4.718   2.240
  518TIP3    H2 1561   5.514   4.789   2.155
  519TIP3   OH2 1562   1.406   2.223   2.026
  519TIP3    H1 1563   1.393   2.313   2.055
  519TIP3    H2 1564   1.395   2.227   1.931
  520TIP3   OH2 1565   6.119   3.759   3.429
  520TIP3    H1 1566   6.070   3.801   3.501
  520TIP3    H2 1567   6.093   3.667   3.434
  521TIP3   OH2 1568   5.215   4.035   4.839
  521TIP3    H1 1569   5.298   3.989   4.855
  521TIP3    H2 1570   5.230   4.085   4.759
  522TIP3   OH2 1571   2.318   1.673   1.116
  522TIP3    H1 1572   2.229   1.663   1.082
  522TIP3    H2 1573   2.314   1.637   1.204
  523TIP3   OH2 1574   5.816   0.546   0.492
  523TIP3    H1 1575   5.864   0.604   0.551
  523TIP3    H2 1576   5.726   0.579   0.494
  524TIP3   OH2 1577   2.899   4.978   4.400
  524TIP3    H1 1578   2.915   4.954   4.491
  524TIP3    H2 1579   2.985   5.003   4.366
  525TIP3   OH2 1580   4.946   0.483   4.013
  525TIP3    H1 1581   4.950   0.392   3.985
  525TIP3    H2 1582   5.024   0.495   4.067
  526TIP3   OH2 1583   1.835   0.588   3.450
  526TIP3    H1 1584   1.777   0.556   3.519
  526TIP3    H2 1585   1.779   0.639   3.392
  527TIP3   OH2 1586   3.143   2.226   5.069
  527TIP3    H1 1587   3.162   2.258   5.156
  527TIP3    H2 1588   3.138   2.131   5.079
  528TIP3   OH2 1589   5.819   4.202   0.779
  528TIP3    H1 1590   5.748   4.201   0.714
  528TIP3    H2 1591   5.868   4.122   0.762
  529TIP3   OH2 1592   3.028   3.509   4.791
  529TIP3    H1 1593   3.075   3.451   4.732
  529TIP3    H2 1594   3.085   3.585   4.801
  530TIP3   OH2 1595   4.519   0.569   4.276
  530TIP3    H1 1596   4.597   0.615   4.310
  530TIP3    H2 1597   4.509   0.603   4.187
  531TIP3   OH2 1598   0.739   0.772   0.332
  531TIP3    H1 1599   0.736   0.854   0.382
  531TIP3    H2 1600   0.696   0.793   0.249
  532TIP3   OH2 1601   2.606   3.414   2.471
  532TIP3    H1 1602   2.559   3.339   2.508
  532TIP3    H2 1603   2.541   3.484   2.471
  533TIP3   OH2 1604   5.356   3.471   5.170
  533TIP3    H1 1605   5.328   3.545   5.116
  533TIP3    H2 1606   5.291   3.466   5.239
  534TIP3   OH2 1607   5.988   5.222   1.147
  534TIP3    H1 1608   5.914   5.181   1.191
  534TIP3    H2 1609   5.948   5.283   1.085
  535TIP3   OH2 1610   2.155   4.528   2.616
  535TIP3    H1 1611   2.202   4.480   2.684
  535TIP3    H2 1612   2.071   4.550   2.655
  536TIP3   OH2 1613   5.931   4.322   1.696
  536TIP3    H1 1614   5.855   4.265   1.686
  536TIP3    H2 1615   5.936   4.370   1.613
  537TIP3   OH2 1616   1.037   2.381   2.190
  537TIP3    H1 1617   1.062   2.380   2.283
  537TIP3    H2 1618   1.057   2.470   2.161
  538TIP3   OH2 1619   5.498   1.311   1.330
  538TIP3    H1 1620   5.428   1.254   1.298
  538TIP3    H2 1621   5.565   1.251   1.363
  539TIP3   OH2 1622   3.214   3.499   1.695
  539TIP3    H1 1623   3.261   3.563   1.748
  539TIP3    H2 1624   3.283   3.452   1.648
  540TIP3   OH2 1625   5.910   3.764   4.892
  540TIP3    H1 1626   5.946   3.678   4.875
  540TIP3    H2 1627   5.830   3.768   4.840
  541TIP3   OH2 1628   4.132   2.488   2.520
  541TIP3    H1 1629   4.069   2.546   2.478
  541TIP3    H2 1630   4.200   2.473   2.454
  542TIP3   OH2 1631   5.997   3.498   5.049
  542TIP3    H1 1632   6.014   3.404   5.056
  542TIP3    H2 1633   6.075   3.534   5.006
  543TIP3   OH2 1634   0.174   4.612   4.009
  543TIP3    H1 1635   0.258   4.584   3.972
  543TIP3    H2 1636   0.116   4.537   3.997
  544TIP3   OH2 1637   0.772   3.969   0.885
  544TIP3    H1 1638   0.727   3.918   0.952
  544TIP3    H2 1639   0.821   4.035   0.934
  545TIP3   OH2 1640   4.957   3.878   2.720
  545TIP3    H1 1641   4.994   3.802   2.675
  545TIP3    H2 1642   4.982   3.865   2.812
  546TIP3   OH2 1643   6.315   4.438   3.640
  546TIP3    H1 1644   6.349   4.492   3.569
  546TIP3    H2 1645   6.392   4.415   3.691
  547TIP3   OH2 1646   3.127   3.974   3.441
  547TIP3    H1 1647   3.182   4.025   3.501
  547TIP3    H2 1648   3.038   4.003   3.459
  548TIP3   OH2 1649   1.030   2.216   3.893
  548TIP3    H1 1650   0.979   2.296   3.879
  548TIP3    H2 1651   1.019   2.197   3.986
  549TIP3   OH2 1652   0.136   3.778   4.554
  549TIP3    H1 1653   0.202   3.802   4.489
  549TIP3    H2 1654   0.185   3.732   4.622
  550TIP3   OH2 1655   3.933   0.185   3.051
  550TIP3    H1 1656   3.899   0.113   2.998
  550TIP3    H2 1657   3.857   0.238   3.072
  551TIP3   OH2 1658   2.180   1.639   2.016
  551TIP3    H1 1659   2.174   1.725   2.058
  551TIP3    H2 1660   2.203   1.579   2.087
  552TIP3   OH2 1661   0.630   3.494   4.405
  552TIP3    H1 1662   0.538   3.468   4.411
  552TIP3    H2 1663   0.662   3.452   4.325
  553TIP3   OH2 1664   0.584   3.552   4.715
  553TIP3    H1 1665   0.668   3.581   4.749
  553TIP3    H2 1666   0.604   3.476   4.661
  554TIP3   OH2 1667   6.191   3.684   1.597
  554TIP3    H1 1668   6.254   3.617   1.623
  554TIP3    H2 1669   6.197   3.751   1.665
  555TIP3   OH2 1670   1.243   0.419   5.061
  555TIP3    H1 1671   1.207   0.332   5.042
  555TIP3    H2 1672   1.247   0.462   4.976
  556TIP3   OH2 1673   6.041   5.033   2.827
  556TIP3    H1 1674   6.098   4.969   2.870
  556TIP3    H2 1675   6.020   5.096   2.896
  557TIP3   OH2 1676   5.581   2.058   0.956
  557TIP3    H1 1677   5.668   2.071   0.919
  557TIP3    H2 1678   5.523   2.055   0.881
  558TIP3   OH2 1679   1.457   4.788   1.067
  558TIP3    H1 1680   1.470   4.695   1.047
  558TIP3    H2 1681   1.377   4.790   1.119
  559TIP3   OH2 1682   1.642   0.278   2.421
  559TIP3    H1 1683   1.671   0.363   2.454
  559TIP3    H2 1684   1.555   0.295   2.385
  560TIP3   OH2 1685   2.547   0.734   2.526
  560TIP3    H1 1686   2.455   0.751   2.546
  560TIP3    H2 1687   2.576   0.674   2.595
  561TIP3   OH2 1688   5.766   5.598   1.444
  561TIP3    H1 1689   5.742   5.594   1.352
  561TIP3    H2 1690   5.721   5.524   1.485
  562TIP3   OH2 1691   1.731   2.723   3.495
  562TIP3    H1 1692   1.638   2.727   3.474
  562TIP3    H2 1693   1.772   2.786   3.436
  563TIP3   OH2 1694   0.962   5.438   0.673
  563TIP3    H1 1695   1.058   5.430   0.675
  563TIP3    H2 1696   0.946   5.520   0.627
  564TIP3   OH2 1697   1.756   1.983   2.350
  564TIP3    H1 1698   1.686   1.947   2.406
  564TIP3    H2 1699   1.711   2.048   2.295
  565TIP3   OH2 1700   0.634   1.016   2.587
  565TIP3    H1 1701   0.621   0.923   2.610
  565TIP3    H2 1702   0.639   1.017   2.492
  566TIP3   OH2 1703   0.728   5.665   0.543
  566TIP3    H1 1704   0.653   5.724   0.542
  566TIP3    H2 1705   0.782   5.694   0.470
  567TIP3   OH2 1706   3.938   5.212   1.486
  567TIP3    H1 1707   3.984   5.247   1.410
  567TIP3    H2 1708   3.918   5.289   1.540
  568TIP3   OH2 1709   0.244   4.129   3.832
  568TIP3    H1 1710   0.232   4.083   3.749
  568TIP3    H2 1711   0.288   4.066   3.888
  569TIP3   OH2 1712   2.535   2.788   2.209
  569TIP3    H1 1713   2.468   2.726   2.239
  569TIP3    H2 1714   2.485   2.856   2.162
  570TIP3   OH2 1715   2.876   2.658   1.211
  570TIP3    H1 1716   2.836   2.687   1.293
  570TIP3    H2 1717   2.826   2.702   1.142
  571TIP3   OH2 1718   1.559   1.189  -0.004
  571TIP3    H1 1719   1.506   1.251  -0.052
  571TIP3    H2 1720   1.649   1.209  -0.029
  572TIP3   OH2 1721   2.006   0.913   4.229
  572TIP3    H1 1722   1.949   0.866   4.169
  572TIP3    H2 1723   1.999   0.866   4.312
  573TIP3   OH2 1724   0.740   5.628   4.729
  573TIP3    H1 1725   0.732   5.603   4.821
  573TIP3    H2 1726   0.651   5.619   4.694
  574TIP3   OH2 1727   5.624   2.103   0.424
  574TIP3    H1 1728   5.601   2.172   0.361
  574TIP3    H2 1729   5.540   2.078   0.464
  575TIP3   OH2 1730   0.659   5.001   4.452
  575TIP3    H1 1731   0.597   4.957   4.510
  575TIP3    H2 1732   0.661   4.946   4.373
  576TIP3   OH2 1733   0.172   0.444   3.811
  576TIP3    H1 1734   0.233   0.467   3.881
  576TIP3    H2 1735   0.097   0.502   3.824
  577TIP3   OH2 1736   0.876   2.107   0.852
  577TIP3    H1 1737   0.828   2.180   0.813
  577TIP3    H2 1738   0.949   2.148   0.898
  578TIP3   OH2 1739   5.049   1.830   2.326
  578TIP3    H1 1740   5.071   1.745   2.365
  578TIP3    H2 1741   5.004   1.808   2.244
  579TIP3   OH2 1742   0.951   0.362   2.788
  579TIP3    H1 1743   1.004   0.286   2.812
  579TIP3    H2 1744   0.938   0.409   2.870
  580TIP3   OH2 1745   1.854   4.913   5.133
  580TIP3    H1 1746   1.869   4.830   5.089
  580TIP3    H2 1747   1.879   4.979   5.068
  581TIP3   OH2 1748   6.047   5.232   3.438
  581TIP3    H1 1749   6.013   5.204   3.523
  581TIP3    H2 1750   6.034   5.157   3.381
  582TIP3   OH2 1751   1.873   1.047   1.541
  582TIP3    H1 1752   1.802   1.030   1.479
  582TIP3    H2 1753   1.914   1.128   1.509
  583TIP3   OH2 1754   5.549   0.039   5.014
  583TIP3    H1 1755   5.554   0.077   4.926
  583TIP3    H2 1756   5.469  -0.013   5.013
  584TIP3   OH2 1757   5.833   1.094   4.147
  584TIP3    H1 1758   5.765   1.129   4.090
  584TIP3    H2 1759   5.797   1.103   4.236
  585TIP3   OH2 1760   1.805   1.713   4.650
  585TIP3    H1 1761   1.861   1.666   4.712
  585TIP3    H2 1762   1.799   1.655   4.574
  586TIP3   OH2 1763   5.489   2.137   4.155
  586TIP3    H1 1764   5.504   2.047   4.126
  586TIP3    H2 1765   5.466   2.184   4.074
  587TIP3   OH2 1766   3.421   4.731   3.896
  587TIP3    H1 1767   3.373   4.813   3.899
  587TIP3    H2 1768   3.429   4.704   3.988
  588TIP3   OH2 1769   4.394   1.343   2.827
  588TIP3    H1 1770   4.349   1.291   2.894
  588TIP3    H2 1771   4.487   1.325   2.841
  589TIP3   OH2 1772   5.437   1.261   3.595
  589TIP3    H1 1773   5.461   1.269   3.502
  589TIP3    H2 1774   5.509   1.304   3.642
  590TIP3   OH2 1775   3.272   2.368   0.886
  590TIP3    H1 1776   3.307   2.286   0.920
  590TIP3    H2 1777   3.235   2.344   0.801
  591TIP3   OH2 1778   0.381   1.231   0.008
  591TIP3    H1 1779   0.335   1.285   0.072
  591TIP3    H2 1780   0.344   1.257  -0.076
  592TIP3   OH2 1781   0.630   0.576   2.084
  592TIP3    H1 1782   0.653   0.601   1.995
  592TIP3    H2 1783   0.594   0.487   2.076
  593TIP3   OH2 1784   6.050   1.725   4.044
  593TIP3    H1 1785   6.128   1.780   4.045
  593TIP3    H2 1786   6.076   1.646   4.092
  594TIP3   OH2 1787   0.114   0.897   5.010
  594TIP3    H1 1788   0.108   0.832   5.079
  594TIP3    H2 1789   0.033   0.948   5.017
  595TIP3   OH2 1790   4.315   3.250   3.791
  595TIP3    H1 1791   4.306   3.177   3.729
  595TIP3    H2 1792   4.317   3.328   3.736
  596TIP3   OH2 1793   0.579   0.396   1.289
  596TIP3    H1 1794   0.499   0.435   1.324
  596TIP3    H2 1795   0.589   0.438   1.203
  597TIP3   OH2 1796   3.826   3.243   4.048
  597TIP3    H1 1797   3.754   3.200   4.094
  597TIP3    H2 1798   3.897   3.179   4.050
  598TIP3   OH2 1799   6.388   3.166   3.145
  598TIP3    H1 1800   6.367   3.083   3.102
  598TIP3    H2 1801   6.417   3.140   3.233
  599TIP3   OH2 1802   2.429   4.245   3.075
  599TIP3    H1 1803   2.389   4.161   3.055
  599TIP3    H2 1804   2.382   4.308   3.020
  600TIP3   OH2 1805   5.102   2.355   5.095
  600TIP3    H1 1806   5.139   2.442   5.110
  600TIP3    H2 1807   5.060   2.332   5.178
  601TIP3   OH2 1808   5.151   2.874   0.680
  601TIP3    H1 1809   5.085   2.885   0.748
  601TIP3    H2 1810   5.111   2.912   0.602
  602TIP3   OH2 1811   5.634   3.288   5.183
  602TIP3    H1 1812   5.668   3.375   5.203
  602TIP3    H2 1813   5.676   3.263   5.101
  603TIP3   OH2 1814   2.660   1.978   0.152
  603TIP3    H1 1815   2.578   1.932   0.172
  603TIP3    H2 1816   2.631   2.061   0.113
  604TIP3   OH2 1817   2.329   3.545   4.955
  604TIP3    H1 1818   2.385   3.471   4.934
  604TIP3    H2 1819   2.259   3.508   5.009
  605TIP3   OH2 1820   4.733   0.962   0.451
  605TIP3    H1 1821   4.797   0.957   0.521
  605TIP3    H2 1822   4.749   0.883   0.398
  606TIP3   OH2 1823   1.399   0.674  -0.018
  606TIP3    H1 1824   1.387   0.636   0.069
  606TIP3    H2 1825   1.437   0.760  -0.001
  607TIP3   OH2 1826   4.713   1.220   4.160
  607TIP3    H1 1827   4.730   1.133   4.125
  607TIP3    H2 1828   4.725   1.211   4.255
  608TIP3   OH2 1829   2.061   1.097   1.938
  608TIP3    H1 1830   1.974   1.109   1.899
  608TIP3    H2 1831   2.069   1.003   1.951
  609TIP3   OH2 1832   5.724   5.706   0.547
  609TIP3    H1 1833   5.644   5.688   0.598
  609TIP3    H2 1834   5.793   5.660   0.594
  610TIP3   OH2 1835   4.153   5.712   1.218
  610TIP3    H1 1836   4.209   5.788   1.228
  610TIP3    H2 1837   4.120   5.718   1.128
  611TIP3   OH2 1838   1.917   4.329   1.010
  611TIP3    H1 1839   1.933   4.419   0.980
  611TIP3    H2 1840   1.997   4.305   1.056
  612TIP3   OH2 1841   2.187   5.121   2.603
  612TIP3    H1 1842   2.107   5.169   2.583
  612TIP3    H2 1843   2.254   5.159   2.546
  613TIP3   OH2 1844   5.755   2.359   0.696
  613TIP3    H1 1845   5.668   2.355   0.735
  613TIP3    H2 1846   5.781   2.268   0.685
  614TIP3   OH2 1847   4.919   3.504   0.289
  614TIP3    H1 1848   4.899   3.594   0.315
  614TIP3    H2 1849   4.840   3.454   0.310
  615TIP3   OH2 1850   2.476   2.038   3.448
  615TIP3    H1 1851   2.414   2.011   3.380
  615TIP3    H2 1852   2.448   2.127   3.472
  616TIP3   OH2 1853   0.914   5.920   2.040
  616TIP3    H1 1854   0.843   5.866   2.074
  616TIP3    H2 1855   0.993   5.885   2.081
  617TIP3   OH2 1856   5.419   2.892   0.540
  617TIP3    H1 1857   5.332   2.868   0.571
  617TIP3    H2 1858   5.422   2.988   0.549
  618TIP3   OH2 1859   2.799   2.089   4.913
  618TIP3    H1 1860   2.856   2.095   4.836
  618TIP3    H2 1861   2.760   2.002   4.906
  619TIP3   OH2 1862   0.476   0.204   4.995
  619TIP3    H1 1863   0.409   0.226   4.930
  619TIP3    H2 1864   0.556   0.192   4.944
  620TIP3   OH2 1865   2.737   0.396   3.130
  620TIP3    H1 1866   2.820   0.436   3.103
  620TIP3    H2 1867   2.736   0.407   3.225
  621TIP3   OH2 1868   3.610   5.520   4.545
  621TIP3    H1 1869   3.605   5.501   4.639
  621TIP3    H2 1870   3.672   5.593   4.539
  622TIP3   OH2 1871   6.298   1.822   0.700
  622TIP3    H1 1872   6.211   1.829   0.741
  622TIP3    H2 1873   6.290   1.872   0.619
  623TIP3   OH2 1874   4.725   1.502   4.504
  623TIP3    H1 1875   4.632   1.485   4.488
  623TIP3    H2 1876   4.754   1.550   4.426
  624TIP3   OH2 1877   2.745   3.993   1.413
  624TIP3    H1 1878   2.680   4.003   1.344
  624TIP3    H2 1879   2.819   4.047   1.384
  625TIP3   OH2 1880   2.440   2.646   0.796
  625TIP3    H1 1881   2.471   2.720   0.848
  625TIP3    H2 1882   2.444   2.571   0.856
  626TIP3   OH2 1883   1.799   5.005   1.167
  626TIP3    H1 1884   1.763   4.968   1.247
  626TIP3    H2 1885   1.889   5.027   1.189
  627TIP3   OH2 1886   1.355   1.365   5.223
  627TIP3    H1 1887   1.407   1.435   5.183
  627TIP3    H2 1888   1.301   1.331   5.151
  628TIP3   OH2 1889   1.820   3.817   4.863
  628TIP3    H1 1890   1.874   3.887   4.826
  628TIP3    H2 1891   1.878   3.770   4.923
  629TIP3   OH2 1892   3.058   2.800   3.299
  629TIP3    H1 1893   3.137   2.802   3.352
  629TIP3    H2 1894   3.005   2.873   3.332
  630TIP3   OH2 1895   2.074   4.213   1.763
  630TIP3    H1 1896   2.106   4.247   1.846
  630TIP3    H2 1897   2.141   4.235   1.699
  631TIP3   OH2 1898   0.661   3.827   3.642
  631TIP3    H1 1899   0.650   3.731   3.643
  631TIP3    H2 1900   0.684   3.847   3.551
  632TIP3   OH2 1901   0.207   0.943   3.499
  632TIP3    H1 1902   0.246   1.016   3.452
  632TIP3    H2 1903   0.255   0.866   3.468
  633TIP3   OH2 1904   3.675   4.403   3.682
  633TIP3    H1 1905   3.665   4.311   3.658
  633TIP3    H2 1906   3.592   4.443   3.654
  634TIP3   OH2 1907   6.261   1.558   3.938
  634TIP3    H1 1908   6.324   1.552   3.866
  634TIP3    H2 1909   6.194   1.493   3.916
  635TIP3   OH2 1910   3.178   3.431   0.632
  635TIP3    H1 1911   3.262   3.478   0.639
  635TIP3    H2 1912   3.188   3.376   0.554
  636TIP3   OH2 1913   1.834   0.169   0.023
  636TIP3    H1 1914   1.741   0.184   0.006
  636TIP3    H2 1915   1.859   0.101  -0.040
  637TIP3   OH2 1916   4.584   1.125   2.619
  637TIP3    H1 1917   4.665   1.111   2.571
  637TIP3    H2 1918   4.610   1.170   2.699
  638TIP3   OH2 1919   5.804   5.130   1.327
  638TIP3    H1 1920   5.713   5.127   1.353
  638TIP3    H2 1921   5.853   5.114   1.407
  639TIP3   OH2 1922   3.992   2.380   2.736
  639TIP3    H1 1923   4.011   2.448   2.801
  639TIP3    H2 1924   4.022   2.416   2.653
  640TIP3   OH2 1925   1.599   0.555   0.361
  640TIP3    H1 1926   1.620   0.618   0.292
  640TIP3    H2 1927   1.511   0.524   0.339
  641TIP3   OH2 1928   4.682   2.463   1.629
  641TIP3    H1 1929   4.617   2.466   1.559
  641TIP3    H2 1930   4.679   2.550   1.668
  642TIP3   OH2 1931   0.807   3.826   1.968
  642TIP3    H1 1932   0.884   3.831   2.025
  642TIP3    H2 1933   0.843   3.821   1.880
  643TIP3   OH2 1934   2.977   0.181   0.930
  643TIP3    H1 1935   3.066   0.214   0.934
  643TIP3    H2 1936   2.940   0.202   1.016
  644TIP3   OH2 1937   3.934   4.887   3.439
  644TIP3    H1 1938   4.006   4.824   3.431
  644TIP3    H2 1939   3.978   4.971   3.455
  645TIP3   OH2 1940   3.750   2.613   2.535
  645TIP3    H1 1941   3.796   2.683   2.582
  645TIP3    H2 1942   3.812   2.584   2.468
  646TIP3   OH2 1943   0.085   2.355   0.676
  646TIP3    H1 1944   0.088   2.411   0.599
  646TIP3    H2 1945   0.168   2.371   0.722
  647TIP3   OH2 1946   5.069   4.163   1.541
  647TIP3    H1 1947   5.127   4.127   1.474
  647TIP3    H2 1948   5.125   4.222   1.592
  648TIP3   OH2 1949   3.235   1.373  -0.001
  648TIP3    H1 1950   3.223   1.455   0.047
  648TIP3    H2 1951   3.275   1.400  -0.083
  649TIP3   OH2 1952   0.210   2.007   3.161
  649TIP3    H1 1953   0.278   1.941   3.152
  649TIP3    H2 1954   0.135   1.959   3.197
  650TIP3   OH2 1955   5.149   2.835   3.282
  650TIP3    H1 1956   5.203   2.908   3.250
  650TIP3    H2 1957   5.060   2.870   3.284
  651TIP3   OH2 1958   4.513   2.128   0.349
  651TIP3    H1 1959   4.474   2.131   0.262
  651TIP3    H2 1960   4.530   2.219   0.372
  652TIP3   OH2 1961   0.246   3.996   3.212
  652TIP3    H1 1962   0.207   3.941   3.280
  652TIP3    H2 1963   0.225   4.086   3.239
  653TIP3   OH2 1964   0.114   5.907   1.310
  653TIP3    H1 1965   0.063   5.937   1.385
  653TIP3    H2 1966   0.180   5.976   1.298
  654TIP3   OH2 1967   6.188   4.197   2.942
  654TIP3    H1 1968   6.222   4.160   2.861
  654TIP3    H2 1969   6.109   4.244   2.916
  655TIP3   OH2 1970   3.229   0.714   2.332
  655TIP3    H1 1971   3.211   0.717   2.426
  655TIP3    H2 1972   3.324   0.723   2.326
  656TIP3   OH2 1973   2.748   5.665   2.690
  656TIP3    H1 1974   2.714   5.624   2.610
  656TIP3    H2 1975   2.781   5.592   2.742
  657TIP3   OH2 1976   1.846   5.386   1.344
  657TIP3    H1 1977   1.760   5.347   1.330
  657TIP3    H2 1978   1.900   5.351   1.273
  658TIP3   OH2 1979   3.216   5.700   2.497
  658TIP3    H1 1980   3.300   5.660   2.521
  658TIP3    H2 1981   3.151   5.632   2.515
  659TIP3   OH2 1982   1.886   0.514   1.062
  659TIP3    H1 1983   1.974   0.551   1.062
  659TIP3    H2 1984   1.828   0.590   1.065
  660TIP3   OH2 1985   1.811   0.255   1.151
  660TIP3    H1 1986   1.728   0.275   1.192
  660TIP3    H2 1987   1.854   0.340   1.141
  661TIP3   OH2 1988   3.594   3.664   2.533
  661TIP3    H1 1989   3.602   3.735   2.597
  661TIP3    H2 1990   3.511   3.623   2.554
  662TIP3   OH2 1991   6.093   1.042   3.044
  662TIP3    H1 1992   6.120   0.953   3.065
  662TIP3    H2 1993   6.140   1.063   2.963
  663TIP3   OH2 1994   2.540   5.369   5.114
  663TIP3    H1 1995   2.553   5.275   5.124
  663TIP3    H2 1996   2.613   5.399   5.061
  664TIP3   OH2 1997   1.570   5.397   3.204
  664TIP3    H1 1998   1.664   5.392   3.190
  664TIP3    H2 1999   1.544   5.307   3.226
  665TIP3   OH2 2000   4.674   2.667   1.819
  665TIP3    H1 2001   4.715   2.752   1.832
  665TIP3    H2 2002   4.676   2.626   1.906
  666TIP3   OH2 2003   5.793   5.063   2.310
  666TIP3    H1 2004   5.862   5.014   2.355
  666TIP3    H2 2005   5.716   5.053   2.366
  667TIP3   OH2 2006   3.954   5.177   4.606
  667TIP3    H1 2007   3.997   5.255   4.640
  667TIP3    H2 2008   3.977   5.175   4.513
  668TIP3   OH2 2009   2.202   3.063   2.973
  668TIP3    H1 2010   2.106   3.057   2.977
  668TIP3    H2 2011   2.220   3.157   2.964
  669TIP3   OH2 2012   1.357   1.192   2.277
  669TIP3    H1 2013   1.343   1.163   2.367
  669TIP3    H2 2014   1.345   1.114   2.224
  670TIP3   OH2 2015   2.754   0.549   3.395
  670TIP3    H1 2016   2.791   0.625   3.349
  670TIP3    H2 2017   2.828   0.492   3.411
  671TIP3   OH2 2018   2.008   5.288   0.254
  671TIP3    H1 2019   1.962   5.289   0.171
  671TIP3    H2 2020   2.097   5.317   0.233
  672TIP3   OH2 2021   1.474   5.500   3.575
  672TIP3    H1 2022   1.550   5.444   3.587
  672TIP3    H2 2023   1.508   5.589   3.578
  673TIP3   OH2 2024   3.665   4.473   4.813
  673TIP3    H1 2025   3.706   4.559   4.809
  673TIP3    H2 2026   3.714   4.420   4.750
  674TIP3   OH2 2027   5.113   2.728   1.855
  674TIP3    H1 2028   5.085   2.637   1.861
  674TIP3    H2 2029   5.098   2.752   1.763
  675TIP3   OH2 2030   0.066   4.337   0.962
  675TIP3    H1 2031   0.147   4.286   0.958
  675TIP3    H2 2032   0.006   4.293   0.902
  676TIP3   OH2 2033   2.822   2.183   1.081
  676TIP3    H1 2034   2.896   2.149   1.030
  676TIP3    H2 2035   2.862   2.248   1.140
  677TIP3   OH2 2036   0.148   2.322   1.420
  677TIP3    H1 2037   0.110   2.236   1.439
  677TIP3    H2 2038   0.219   2.304   1.359
  678TIP3   OH2 2039   3.696   5.946   4.734
  678TIP3    H1 2040   3.617   5.998   4.752
  678TIP3    H2 2041   3.765   6.011   4.720
  679TIP3   OH2 2042   0.931   2.350   1.281
  679TIP3    H1 2043   1.000   2.361   1.216
  679TIP3    H2 2044   0.977   2.321   1.360
  680TIP3   OH2 2045   1.032   1.221   0.965
  680TIP3    H1 2046   0.968   1.271   1.017
  680TIP3    H2 2047   1.051   1.144   1.018
  681TIP3   OH2 2048   5.442   2.532   4.344
  681TIP3    H1 2049   5.473   2.488   4.264
  681TIP3    H2 2050   5.412   2.460   4.400
  682TIP3   OH2 2051   4.664   5.541   3.359
  682TIP3    H1 2052   4.656   5.609   3.426
  682TIP3    H2 2053   4.723   5.476   3.398
  683TIP3   OH2 2054   3.864   5.530   2.628
  683TIP3    H1 2055   3.815   5.541   2.709
  683TIP3    H2 2056   3.928   5.601   2.628
  684TIP3   OH2 2057   5.716   5.155   3.123
  684TIP3    H1 2058   5.734   5.066   3.153
  684TIP3    H2 2059   5.621   5.156   3.107
  685TIP3   OH2 2060   3.310   1.177   4.564
  685TIP3    H1 2061   3.355   1.222   4.492
  685TIP3    H2 2062   3.275   1.098   4.524
  686TIP3   OH2 2063   5.621   1.093   3.766
  686TIP3    H1 2064   5.553   1.040   3.807
  686TIP3    H2 2065   5.614   1.074   3.673
  687TIP3   OH2 2066   0.212   4.849   1.117
  687TIP3    H1 2067   0.141   4.914   1.118
  687TIP3    H2 2068   0.172   4.770   1.082
  688TIP3   OH2 2069   5.926   4.783   4.593
  688TIP3    H1 2070   5.871   4.712   4.560
  688TIP3    H2 2071   5.915   4.780   4.688
  689TIP3   OH2 2072   3.890   5.838   0.588
  689TIP3    H1 2073   3.851   5.797   0.665
  689TIP3    H2 2074   3.815   5.861   0.533
  690TIP3   OH2 2075   5.872   4.855   4.975
  690TIP3    H1 2076   5.942   4.918   4.997
  690TIP3    H2 2077   5.916   4.770   4.973
  691TIP3   OH2 2078   3.969   2.258   2.447
  691TIP3    H1 2079   4.047   2.309   2.468
  691TIP3    H2 2080   3.976   2.240   2.353
  692TIP3   OH2 2081   4.093   1.495   0.416
  692TIP3    H1 2082   4.145   1.551   0.474
  692TIP3    H2 2083   4.129   1.408   0.429
  693TIP3   OH2 2084   3.769   2.611   1.686
  693TIP3    H1 2085   3.824   2.594   1.763
  693TIP3    H2 2086   3.758   2.706   1.686
  694TIP3   OH2 2087   5.550   3.856   4.425
  694TIP3    H1 2088   5.496   3.808   4.487
  694TIP3    H2 2089   5.622   3.797   4.403
  695TIP3   OH2 2090   4.354   2.098   3.268
  695TIP3    H1 2091   4.432   2.082   3.321
  695TIP3    H2 2092   4.297   2.151   3.323
  696TIP3   OH2 2093   4.988   1.890   2.612
  696TIP3    H1 2094   4.967   1.914   2.522
  696TIP3    H2 2095   5.057   1.951   2.638
  697TIP3   OH2 2096   0.727   0.989   0.502
  697TIP3    H1 2097   0.671   1.056   0.462
  697TIP3    H2 2098   0.672   0.949   0.569
  698TIP3   OH2 2099   3.543   5.172   2.448
  698TIP3    H1 2100   3.522   5.208   2.361
  698TIP3    H2 2101   3.458   5.152   2.487
  699TIP3   OH2 2102   3.352   1.074  -0.021
  699TIP3    H1 2103   3.268   1.066   0.025
  699TIP3    H2 2104   3.402   1.135   0.032
  700TIP3   OH2 2105   3.965   3.254   4.426
  700TIP3    H1 2106   3.975   3.348   4.413
  700TIP3    H2 2107   4.016   3.235   4.505
  701TIP3   OH2 2108   2.723   0.987   1.579
  701TIP3    H1 2109   2.713   0.989   1.674
  701TIP3    H2 2110   2.656   1.046   1.546
  702TIP3   OH2 2111   1.192   4.460   0.562
  702TIP3    H1 2112   1.098   4.452   0.551
  702TIP3    H2 2113   1.205   4.469   0.656
  703TIP3   OH2 2114   5.094   2.451   3.128
  703TIP3    H1 2115   5.178   2.448   3.083
  703TIP3    H2 2116   5.082   2.543   3.151
  704TIP3   OH2 2117   5.480   1.432   1.923
  704TIP3    H1 2118   5.396   1.420   1.878
  704TIP3    H2 2119   5.463   1.404   2.013
  705TIP3   OH2 2120   0.515   0.038   1.343
  705TIP3    H1 2121   0.455   0.109   1.320
  705TIP3    H2 2122   0.598   0.081   1.363
  706TIP3   OH2 2123   1.691   3.721   0.322
  706TIP3    H1 2124   1.712   3.650   0.383
  706TIP3    H2 2125   1.682   3.677   0.237
  707TIP3   OH2 2126   4.556   0.397   1.141
  707TIP3    H1 2127   4.493   0.325   1.150
  707TIP3    H2 2128   4.504   0.476   1.152
  708TIP3   OH2 2129   1.978   2.105   2.671
  708TIP3    H1 2130   1.914   2.036   2.654
  708TIP3    H2 2131   2.046   2.092   2.606
  709TIP3   OH2 2132   6.006   2.496   0.471
  709TIP3    H1 2133   6.021   2.582   0.434
  709TIP3    H2 2134   6.046   2.499   0.558
  710TIP3   OH2 2135   3.157   1.563   3.062
  710TIP3    H1 2136   3.206   1.533   3.139
  710TIP3    H2 2137   3.156   1.488   3.003
  711TIP3   OH2 2138   1.965   3.929   4.506
  711TIP3    H1 2139   1.959   3.864   4.436
  711TIP3    H2 2140   1.948   4.013   4.463
  712TIP3   OH2 2141   0.208   0.430   0.744
  712TIP3    H1 2142   0.200   0.470   0.657
  712TIP3    H2 2143   0.286   0.375   0.738
  713TIP3   OH2 2144   4.255   0.885   0.441
  713TIP3    H1 2145   4.192   0.840   0.386
  713TIP3    H2 2146   4.204   0.952   0.486
  714TIP3   OH2 2147   5.960   3.984   3.638
  714TIP3    H1 2148   5.993   4.063   3.682
  714TIP3    H2 2149   5.903   3.943   3.702
  715TIP3   OH2 2150   5.597   1.609   3.841
  715TIP3    H1 2151   5.661   1.538   3.831
  715TIP3    H2 2152   5.597   1.629   3.934
  716TIP3   OH2 2153   3.036   4.417   4.068
  716TIP3    H1 2154   3.030   4.499   4.116
  716TIP3    H2 2155   3.129   4.395   4.069
  717TIP3   OH2 2156   0.945   2.773   4.966
  717TIP3    H1 2157   0.885   2.725   5.023
  717TIP3    H2 2158   0.995   2.829   5.025
  718TIP3   OH2 2159   4.482   2.624   0.150
  718TIP3    H1 2160   4.487   2.606   0.244
  718TIP3    H2 2161   4.437   2.708   0.144
  719TIP3   OH2 2162   5.243   3.366   3.359
  719TIP3    H1 2163   5.193   3.390   3.281
  719TIP3    H2 2164   5.320   3.321   3.325
  720TIP3   OH2 2165   4.522   5.751   0.605
  720TIP3    H1 2166   4.549   5.806   0.532
  720TIP3    H2 2167   4.440   5.790   0.635
  721TIP3   OH2 2168   6.299   1.718   1.835
  721TIP3    H1 2169   6.250   1.736   1.755
  721TIP3    H2 2170   6.374   1.666   1.807
  722TIP3   OH2 2171   5.271   0.425   2.863
  722TIP3    H1 2172   5.343   0.382   2.816
  722TIP3    H2 2173   5.290   0.408   2.955
  723TIP3   OH2 2174   4.384   3.589   0.395
  723TIP3    H1 2175   4.401   3.535   0.472
  723TIP3    H2 2176   4.465   3.638   0.381
  724TIP3   OH2 2177   6.034   2.323   5.044
  724TIP3    H1 2178   6.083   2.249   5.081
  724TIP3    H2 2179   6.068   2.400   5.089
  725TIP3   OH2 2180   5.208   1.748   4.122
  725TIP3    H1 2181   5.222   1.666   4.074
  725TIP3    H2 2182   5.288   1.798   4.107
  726TIP3   OH2 2183   1.090   4.545   4.255
  726TIP3    H1 2184   1.181   4.522   4.277
  726TIP3    H2 2185   1.044   4.461   4.255
  727TIP3   OH2 2186   4.306   1.138   2.981
  727TIP3    H1 2187   4.234   1.130   2.918
  727TIP3    H2 2188   4.325   1.048   3.006
  728TIP3   OH2 2189   6.140   0.006   3.378
  728TIP3    H1 2190   6.062   0.062   3.383
  728TIP3    H2 2191   6.212   0.063   3.405
  729TIP3   OH2 2192   4.084   2.438   3.862
  729TIP3    H1 2193   4.075   2.440   3.957
  729TIP3    H2 2194   4.124   2.353   3.843
  730TIP3   OH2 2195   2.384   0.341   4.211
  730TIP3    H1 2196   2.382   0.428   4.172
  730TIP3    H2 2197   2.328   0.288   4.155
  731TIP3   OH2 2198   4.740   0.877   4.426
  731TIP3    H1 2199   4.774   0.908   4.510
  731TIP3    H2 2200   4.734   0.955   4.372
  732TIP3   OH2 2201   3.247   4.095   0.760
  732TIP3    H1 2202   3.220   4.052   0.841
  732TIP3    H2 2203   3.318   4.154   0.786
  733TIP3   OH2 2204   1.215   3.601   3.173
  733TIP3    H1 2205   1.162   3.574   3.249
  733TIP3    H2 2206   1.304   3.576   3.196
  734TIP3   OH2 2207   5.980   5.742   5.038
  734TIP3    H1 2208   6.049   5.706   5.094
  734TIP3    H2 2209   5.933   5.666   5.005
  735TIP3   OH2 2210   0.978   0.951   3.570
  735TIP3    H1 2211   1.048   0.957   3.636
  735TIP3    H2 2212   0.986   1.032   3.519
  736TIP3   OH2 2213   2.542   5.365   4.340
  736TIP3    H1 2214   2.497   5.437   4.296
  736TIP3    H2 2215   2.472   5.302   4.360
  737TIP3   OH2 2216   4.188   1.920   3.151
  737TIP3    H1 2217   4.185   1.830   3.183
  737TIP3    H2 2218   4.263   1.959   3.195
  738TIP3   OH2 2219   4.866   3.308   3.632
  738TIP3    H1 2220   4.827   3.393   3.609
  738TIP3    H2 2221   4.811   3.275   3.703
  739TIP3   OH2 2222   0.997   1.977   3.134
  739TIP3    H1 2223   1.050   1.954   3.211
  739TIP3    H2 2224   0.909   1.948   3.156
  740TIP3   OH2 2225   2.491   5.375   1.055
  740TIP3    H1 2226   2.559   5.436   1.085
  740TIP3    H2 2227   2.411   5.427   1.056
  741TIP3   OH2 2228   3.018   0.877   0.787
  741TIP3    H1 2229   3.046   0.804   0.843
  741TIP3    H2 2230   3.015   0.952   0.845
  742TIP3   OH2 2231   0.594   3.308   2.714
  742TIP3    H1 2232   0.510   3.334   2.676
  742TIP3    H2 2233   0.582   3.216   2.737
  743TIP3   OH2 2234   6.335   2.926   2.970
  743TIP3    H1 2235   6.407   2.888   2.920
  743TIP3    H2 2236   6.257   2.905   2.919
  744TIP3   OH2 2237   5.994   1.136   3.417
  744TIP3    H1 2238   5.936   1.065   3.390
  744TIP3    H2 2239   5.996   1.196   3.343
  745TIP3   OH2 2240   5.350   4.273   0.859
  745TIP3    H1 2241   5.388   4.214   0.794
  745TIP3    H2 2242   5.263   4.238   0.876
  746TIP3   OH2 2243   4.684   5.346   1.403
  746TIP3    H1 2244   4.721   5.389   1.326
  746TIP3    H2 2245   4.732   5.263   1.410
  747TIP3   OH2 2246   6.273   5.522   2.248
  747TIP3    H1 2247   6.361   5.557   2.260
  747TIP3    H2 2248   6.225   5.593   2.206
  748TIP3   OH2 2249   3.748   1.874   4.383
  748TIP3    H1 2250   3.803   1.801   4.354
  748TIP3    H2 2251   3.737   1.859   4.477
  749TIP3   OH2 2252   3.454   1.108   0.557
  749TIP3    H1 2253   3.536   1.097   0.605
  749TIP3    H2 2254   3.435   1.201   0.562
  750TIP3   OH2 2255   5.864   3.696   2.759
  750TIP3    H1 2256   5.843   3.701   2.666
  750TIP3    H2 2257   5.945   3.644   2.763
  751TIP3   OH2 2258   6.294   3.306   0.902
  751TIP3    H1 2259   6.248   3.334   0.823
  751TIP3    H2 2260   6.338   3.385   0.934
  752TIP3   OH2 2261   4.160   1.914   4.416
  752TIP3    H1 2262   4.146   1.999   4.459
  752TIP3    H2 2263   4.247   1.921   4.377
  753TIP3   OH2 2264   4.485   4.737   1.715
  753TIP3    H1 2265   4.394   4.708   1.716
  753TIP3    H2 2266   4.499   4.775   1.801
  754TIP3   OH2 2267   0.127   0.198   0.032
  754TIP3    H1 2268   0.106   0.134   0.100
  754TIP3    H2 2269   0.209   0.238   0.063
  755TIP3   OH2 2270   0.131   0.508   1.835
  755TIP3    H1 2271   0.079   0.567   1.890
  755TIP3    H2 2272   0.194   0.469   1.895
  756TIP3   OH2 2273   2.357   5.758   2.881
  756TIP3    H1 2274   2.436   5.786   2.926
  756TIP3    H2 2275   2.336   5.673   2.920
  757TIP3   OH2 2276   2.108   2.734   2.956
  757TIP3    H1 2277   2.093   2.765   2.866
  757TIP3    H2 2278   2.203   2.741   2.968
  758TIP3   OH2 2279   4.327   2.310   0.133
  758TIP3    H1 2280   4.282   2.374   0.077
  758TIP3    H2 2281   4.291   2.326   0.220
  759TIP3   OH2 2282   4.332   0.590   1.027
  759TIP3    H1 2283   4.283   0.670   1.043
  759TIP3    H2 2284   4.265   0.522   1.020
  760TIP3   OH2 2285   1.307   2.069   2.282
  760TIP3    H1 2286   1.333   1.985   2.244
  760TIP3    H2 2287   1.220   2.086   2.245
  761TIP3   OH2 2288   0.821   6.019   2.723
  761TIP3    H1 2289   0.817   6.086   2.791
  761TIP3    H2 2290   0.750   5.958   2.745
  762TIP3   OH2 2291   3.573   3.737   1.655
  762TIP3    H1 2292   3.575   3.755   1.749
  762TIP3    H2 2293   3.645   3.677   1.640
  763TIP3   OH2 2294   3.006   1.163   0.968
  763TIP3    H1 2295   2.910   1.171   0.961
  763TIP3    H2 2296   3.025   1.185   1.059
  764TIP3   OH2 2297   1.761   1.829   3.535
  764TIP3    H1 2298   1.808   1.752   3.566
  764TIP3    H2 2299   1.787   1.900   3.593
  765TIP3   OH2 2300   4.240   0.902   5.017
  765TIP3    H1 2301   4.298   0.830   4.993
  765TIP3    H2 2302   4.196   0.926   4.935
  766TIP3   OH2 2303   0.356   5.515   0.909
  766TIP3    H1 2304   0.425   5.459   0.873
  766TIP3    H2 2305   0.307   5.458   0.968
  767TIP3   OH2 2306   5.433   2.218   1.812
  767TIP3    H1 2307   5.426   2.123   1.823
  767TIP3    H2 2308   5.526   2.233   1.792
  768TIP3   OH2 2309   3.193   5.310   3.464
  768TIP3    H1 2310   3.143   5.362   3.527
  768TIP3    H2 2311   3.256   5.261   3.518
  769TIP3   OH2 2312   4.188   4.451   2.129
  769TIP3    H1 2313   4.144   4.371   2.158
  769TIP3    H2 2314   4.188   4.508   2.205
  770TIP3   OH2 2315   3.399   0.621   1.548
  770TIP3    H1 2316   3.386   0.563   1.623
  770TIP3    H2 2317   3.482   0.591   1.509
  771TIP3   OH2 2318   1.311   0.557   4.831
  771TIP3    H1 2319   1.250   0.614   4.878
  771TIP3    H2 2320   1.310   0.590   4.741
  772TIP3   OH2 2321   3.208   1.769   1.626
  772TIP3    H1 2322   3.219   1.692   1.682
  772TIP3    H2 2323   3.254   1.746   1.545
  773TIP3   OH2 2324   4.208   5.062   2.231
  773TIP3    H1 2325   4.199   4.969   2.251
  773TIP3    H2 2326   4.237   5.064   2.140
  774TIP3   OH2 2327   3.178   4.999   0.253
  774TIP3    H1 2328   3.162   5.062   0.183
  774TIP3    H2 2329   3.224   4.927   0.210
  775TIP3   OH2 2330   3.043   5.461   2.656
  775TIP3    H1 2331   3.083   5.421   2.579
  775TIP3    H2 2332   2.949   5.465   2.635
  776TIP3   OH2 2333   1.200   0.055   2.073
  776TIP3    H1 2334   1.279   0.106   2.055
  776TIP3    H2 2335   1.131   0.099   2.023
  777TIP3   OH2 2336   1.349   5.304   4.290
  777TIP3    H1 2337   1.260   5.276   4.310
  777TIP3    H2 2338   1.369   5.371   4.355
  778TIP3   OH2 2339   0.867   5.607   0.214
  778TIP3    H1 2340   0.931   5.554   0.261
  778TIP3    H2 2341   0.887   5.593   0.122
  779TIP3   OH2 2342   5.503   4.381   2.765
  779TIP3    H1 2343   5.516   4.295   2.725
  779TIP3    H2 2344   5.409   4.396   2.761
  780TIP3   OH2 2345   1.625   2.402   4.615
  780TIP3    H1 2346   1.572   2.480   4.631
  780TIP3    H2 2347   1.561   2.331   4.608
  781TIP3   OH2 2348   0.229   0.474   1.087
  781TIP3    H1 2349   0.261   0.482   1.177
  781TIP3    H2 2350   0.231   0.380   1.069
  782TIP3   OH2 2351   5.944   2.069   1.310
  782TIP3    H1 2352   5.987   2.139   1.262
  782TIP3    H2 2353   5.897   2.113   1.381
  783TIP3   OH2 2354   3.482   4.627   2.913
  783TIP3    H1 2355   3.487   4.531   2.913
  783TIP3    H2 2356   3.572   4.655   2.930
  784TIP3   OH2 2357   5.559   2.404   4.140
  784TIP3    H1 2358   5.653   2.392   4.149
  784TIP3    H2 2359   5.522   2.317   4.152
  785TIP3   OH2 2360   3.840   5.701   4.196
  785TIP3    H1 2361   3.819   5.693   4.102
  785TIP3    H2 2362   3.760   5.737   4.234
  786TIP3   OH2 2363   0.211   5.071   4.608
  786TIP3    H1 2364   0.265   5.124   4.550
  786TIP3    H2 2365   0.130   5.055   4.559
  787TIP3   OH2 2366   4.164   1.212   4.961
  787TIP3    H1 2367   4.073   1.186   4.972
  787TIP3    H2 2368   4.185   1.261   5.041
  788TIP3   OH2 2369   5.855   0.712   2.636
  788TIP3    H1 2370   5.930   0.680   2.585
  788TIP3    H2 2371   5.796   0.637   2.643
  789TIP3   OH2 2372   3.523   5.022   5.147
  789TIP3    H1 2373   3.494   5.028   5.238
  789TIP3    H2 2374   3.531   4.928   5.131
  790TIP3   OH2 2375   2.972   5.864   0.979
  790TIP3    H1 2376   2.915   5.824   1.044
  790TIP3    H2 2377   2.923   5.861   0.898
  791TIP3   OH2 2378   0.622   0.496   3.999
  791TIP3    H1 2379   0.549   0.557   4.004
  791TIP3    H2 2380   0.637   0.483   3.906
  792TIP3   OH2 2381   1.091   4.278  -0.049
  792TIP3    H1 2382   0.996   4.273  -0.044
  792TIP3    H2 2383   1.118   4.305   0.038
  793TIP3   OH2 2384   3.229   3.993   3.159
  793TIP3    H1 2385   3.186   3.929   3.102
  793TIP3    H2 2386   3.177   3.994   3.239
  794TIP3   OH2 2387   4.784   1.987   2.328
  794TIP3    H1 2388   4.850   2.013   2.265
  794TIP3    H2 2389   4.745   1.907   2.292
  795TIP3   OH2 2390   0.342   5.422   0.306
  795TIP3    H1 2391   0.409   5.475   0.261
  795TIP3    H2 2392   0.279   5.400   0.237
  796TIP3   OH2 2393   0.604   5.877   3.624
  796TIP3    H1 2394   0.649   5.859   3.707
  796TIP3    H2 2395   0.516   5.842   3.636
  797TIP3   OH2 2396   0.197   1.723   2.324
  797TIP3    H1 2397   0.108   1.743   2.351
  797TIP3    H2 2398   0.200   1.747   2.231
  798TIP3   OH2 2399   4.756   2.676   0.092
  798TIP3    H1 2400   4.666   2.671   0.124
  798TIP3    H2 2401   4.804   2.611   0.144
  799TIP3   OH2 2402   4.631   4.825   2.830
  799TIP3    H1 2403   4.637   4.855   2.739
  799TIP3    H2 2404   4.712   4.776   2.845
  800TIP3   OH2 2405   5.043   0.278   4.342
  800TIP3    H1 2406   5.043   0.183   4.351
  800TIP3    H2 2407   4.966   0.297   4.289
  801TIP3   OH2 2408   3.201   3.645   0.068
  801TIP3    H1 2409   3.204   3.632   0.162
  801TIP3    H2 2410   3.293   3.643   0.041
  802TIP3   OH2 2411   5.500   3.899   0.979
  802TIP3    H1 2412   5.593   3.897   1.003
  802TIP3    H2 2413   5.500   3.904   0.884
  803TIP3   OH2 2414   4.696   3.185   3.165
  803TIP3    H1 2415   4.652   3.257   3.119
  803TIP3    H2 2416   4.640   3.109   3.151
  804TIP3   OH2 2417   0.886   2.864   4.152
  804TIP3    H1 2418   0.863   2.847   4.061
  804TIP3    H2 2419   0.817   2.820   4.202
  805TIP3   OH2 2420   1.059   5.239   0.273
  805TIP3    H1 2421   0.966   5.234   0.250
  805TIP3    H2 2422   1.087   5.325   0.240
  806TIP3   OH2 2423   2.448   4.250   1.855
  806TIP3    H1 2424   2.510   4.182   1.828
  806TIP3    H2 2425   2.396   4.268   1.777
  807TIP3   OH2 2426   3.117   5.961   3.186
  807TIP3    H1 2427   3.211   5.979   3.193
  807TIP3    H2 2428   3.095   5.983   3.095
  808TIP3   OH2 2429   3.084   5.680   0.614
  808TIP3    H1 2430   3.118   5.749   0.557
  808TIP3    H2 2431   3.046   5.616   0.554
  809TIP3   OH2 2432   3.496   2.949   0.098
  809TIP3    H1 2433   3.438   2.975   0.170
  809TIP3    H2 2434   3.447   2.881   0.051
  810TIP3   OH2 2435   0.142   2.492   1.114
  810TIP3    H1 2436   0.165   2.401   1.133
  810TIP3    H2 2437   0.154   2.501   1.020
  811TIP3   OH2 2438   6.162   0.411   4.463
  811TIP3    H1 2439   6.135   0.445   4.548
  811TIP3    H2 2440   6.253   0.383   4.475
  812TIP3   OH2 2441   4.856   0.268   5.135
  812TIP3    H1 2442   4.919   0.231   5.197
  812TIP3    H2 2443   4.785   0.302   5.189
  813TIP3   OH2 2444   3.286   0.198   2.986
  813TIP3    H1 2445   3.317   0.287   2.972
  813TIP3    H2 2446   3.194   0.208   3.012
  814TIP3   OH2 2447   4.652   4.444   2.954
  814TIP3    H1 2448   4.560   4.466   2.971
  814TIP3    H2 2449   4.658   4.350   2.971
  815TIP3   OH2 2450   3.335   1.461   0.338
  815TIP3    H1 2451   3.394   1.447   0.412
  815TIP3    H2 2452   3.389   1.445   0.261
  816TIP3   OH2 2453   3.160   3.858   1.792
  816TIP3    H1 2454   3.159   3.860   1.696
  816TIP3    H2 2455   3.073   3.888   1.818
  817TIP3   OH2 2456   0.880   1.569   1.553
  817TIP3    H1 2457   0.888   1.518   1.472
  817TIP3    H2 2458   0.797   1.615   1.544
  818TIP3   OH2 2459   6.060   5.182   3.066
  818TIP3    H1 2460   6.019   5.234   3.136
  818TIP3    H2 2461   6.128   5.239   3.031
  819TIP3   OH2 2462   1.185   5.149   0.695
  819TIP3    H1 2463   1.116   5.166   0.758
  819TIP3    H2 2464   1.266   5.162   0.744
  820TIP3   OH2 2465   4.265   3.910   1.697
  820TIP3    H1 2466   4.323   3.834   1.706
  820TIP3    H2 2467   4.177   3.872   1.693
  821TIP3   OH2 2468   6.064   5.893   4.690
  821TIP3    H1 2469   6.090   5.928   4.604
  821TIP3    H2 2470   6.125   5.821   4.706
  822TIP3   OH2 2471   3.372   5.819   2.054
  822TIP3    H1 2472   3.441   5.816   2.120
  822TIP3    H2 2473   3.406   5.879   1.987
  823TIP3   OH2 2474   0.606   3.005   3.567
  823TIP3    H1 2475   0.602   3.067   3.641
  823TIP3    H2 2476   0.698   2.981   3.561
  824TIP3   OH2 2477   5.636   0.091   4.231
  824TIP3    H1 2478   5.592   0.020   4.183
  824TIP3    H2 2479   5.591   0.093   4.315
  825TIP3   OH2 2480   3.363   4.399   4.115
  825TIP3    H1 2481   3.396   4.485   4.142
  825TIP3    H2 2482   3.338   4.356   4.197
  826TIP3   OH2 2483   0.323   3.758   3.909
  826TIP3    H1 2484   0.312   3.818   3.983
  826TIP3    H2 2485   0.317   3.813   3.831
  827TIP3   OH2 2486   1.218   5.479   1.562
  827TIP3    H1 2487   1.276   5.555   1.572
  827TIP3    H2 2488   1.168   5.477   1.644
  828TIP3   OH2 2489   4.658   3.677   0.884
  828TIP3    H1 2490   4.664   3.761   0.929
  828TIP3    H2 2491   4.576   3.639   0.915
  829TIP3   OH2 2492   3.570   5.382   4.791
  829TIP3    H1 2493   3.604   5.348   4.874
  829TIP3    H2 2494   3.614   5.331   4.724
  830TIP3   OH2 2495   5.031   4.492   3.081
  830TIP3    H1 2496   5.111   4.440   3.084
  830TIP3    H2 2497   4.984   4.468   3.160
  831TIP3   OH2 2498   1.200   0.415   4.606
  831TIP3    H1 2499   1.259   0.471   4.555
  831TIP3    H2 2500   1.237   0.414   4.694
  832TIP3   OH2 2501   6.083   5.808   4.395
  832TIP3    H1 2502   6.145   5.752   4.349
  832TIP3    H2 2503   6.006   5.753   4.410
  833TIP3   OH2 2504   5.668   2.296   2.525
  833TIP3    H1 2505   5.676   2.387   2.554
  833TIP3    H2 2506   5.673   2.245   2.606
  834TIP3   OH2 2507   5.601   2.638   1.282
  834TIP3    H1 2508   5.580   2.685   1.201
  834TIP3    H2 2509   5.560   2.690   1.351
  835TIP3   OH2 2510   5.083   2.739   2.386
  835TIP3    H1 2511   5.169   2.761   2.421
  835TIP3    H2 2512   5.082   2.643   2.383
  836TIP3   OH2 2513   2.128   1.850   0.441
  836TIP3    H1 2514   2.075   1.872   0.517
  836TIP3    H2 2515   2.173   1.769   0.466
  837TIP3   OH2 2516   2.686   3.912   4.756
  837TIP3    H1 2517   2.645   3.870   4.832
  837TIP3    H2 2518   2.747   3.846   4.722
  838TIP3   OH2 2519   3.915   0.225   2.269
  838TIP3    H1 2520   3.944   0.145   2.226
  838TIP3    H2 2521   3.981   0.290   2.246
  839TIP3   OH2 2522   2.581   0.424   2.012
  839TIP3    H1 2523   2.615   0.484   1.946
  839TIP3    H2 2524   2.554   0.346   1.963
  840TIP3   OH2 2525   3.094   1.141   4.914
  840TIP3    H1 2526   3.135   1.220   4.881
  840TIP3    H2 2527   3.033   1.171   4.981
  841TIP3   OH2 2528   4.117   0.543   2.847
  841TIP3    H1 2529   4.113   0.548   2.752
  841TIP3    H2 2530   4.093   0.452   2.868
  842TIP3   OH2 2531   0.747   4.698   2.019
  842TIP3    H1 2532   0.790   4.670   2.100
  842TIP3    H2 2533   0.792   4.648   1.950
  843TIP3   OH2 2534   3.687   5.202   0.870
  843TIP3    H1 2535   3.678   5.270   0.937
  843TIP3    H2 2536   3.774   5.166   0.885
  844TIP3   OH2 2537   3.739   0.597   0.205
  844TIP3    H1 2538   3.712   0.688   0.210
  844TIP3    H2 2539   3.830   0.600   0.175
  845TIP3   OH2 2540   5.053   4.711   1.041
  845TIP3    H1 2541   4.974   4.697   0.988
  845TIP3    H2 2542   5.115   4.645   1.008
  846TIP3   OH2 2543   1.993   3.757   0.267
  846TIP3    H1 2544   1.914   3.784   0.314
  846TIP3    H2 2545   1.962   3.733   0.180
  847TIP3   OH2 2546   3.402   2.702   0.388
  847TIP3    H1 2547   3.466   2.733   0.323
  847TIP3    H2 2548   3.452   2.645   0.446
  848TIP3   OH2 2549   2.985   3.350   1.990
  848TIP3    H1 2550   3.040   3.428   1.981
  848TIP3    H2 2551   2.979   3.337   2.085
  849TIP3   OH2 2552   2.782   3.761   4.229
  849TIP3    H1 2553   2.782   3.735   4.321
  849TIP3    H2 2554   2.701   3.725   4.194
  850TIP3   OH2 2555   3.932   0.391   0.648
  850TIP3    H1 2556   3.900   0.307   0.681
  850TIP3    H2 2557   3.853   0.443   0.635
  851TIP3   OH2 2558   3.626   0.398   4.971
  851TIP3    H1 2559   3.582   0.334   5.027
  851TIP3    H2 2560   3.557   0.460   4.947
  852TIP3   OH2 2561   0.568   1.686   0.528
  852TIP3    H1 2562   0.523   1.694   0.444
  852TIP3    H2 2563   0.562   1.774   0.566
  853TIP3   OH2 2564   1.081   2.321   4.344
  853TIP3    H1 2565   1.123   2.368   4.272
  853TIP3    H2 2566   1.061   2.234   4.308
  854TIP3   OH2 2567   3.498   3.268   3.387
  854TIP3    H1 2568   3.478   3.278   3.480
  854TIP3    H2 2569   3.573   3.208   3.385
  855TIP3   OH2 2570   4.077   2.074   4.150
  855TIP3    H1 2571   4.139   2.005   4.174
  855TIP3    H2 2572   4.008   2.069   4.216
  856TIP3   OH2 2573   2.008   0.557   3.726
  856TIP3    H1 2574   2.077   0.522   3.669
  856TIP3    H2 2575   2.016   0.652   3.719
  857TIP3   OH2 2576   1.613   5.109   0.621
  857TIP3    H1 2577   1.632   5.048   0.550
  857TIP3    H2 2578   1.661   5.188   0.598
  858TIP3   OH2 2579   3.378   3.318   1.193
  858TIP3    H1 2580   3.288   3.339   1.220
  858TIP3    H2 2581   3.371   3.231   1.154
  859TIP3   OH2 2582   1.272   3.232   2.572
  859TIP3    H1 2583   1.329   3.167   2.530
  859TIP3    H2 2584   1.187   3.218   2.532
  860TIP3   OH2 2585   0.157   4.082   0.899
  860TIP3    H1 2586   0.087   4.025   0.931
  860TIP3    H2 2587   0.237   4.048   0.940
  861TIP3   OH2 2588   5.361   1.935   1.115
  861TIP3    H1 2589   5.419   1.994   1.161
  861TIP3    H2 2590   5.363   1.854   1.166
  862TIP3   OH2 2591   2.749   5.161   0.148
  862TIP3    H1 2592   2.667   5.172   0.198
  862TIP3    H2 2593   2.721   5.120   0.066
  863TIP3   OH2 2594   5.136   0.987   1.601
  863TIP3    H1 2595   5.090   0.940   1.671
  863TIP3    H2 2596   5.228   0.966   1.615
  864TIP3   OH2 2597   5.941   1.098   0.081
  864TIP3    H1 2598   5.850   1.126   0.071
  864TIP3    H2 2599   5.993   1.168   0.041
  865TIP3   OH2 2600   4.422   2.291   1.598
  865TIP3    H1 2601   4.393   2.355   1.663
  865TIP3    H2 2602   4.464   2.344   1.530
  866TIP3   OH2 2603   0.451   4.869   1.270
  866TIP3    H1 2604   0.369   4.863   1.221
  866TIP3    H2 2605   0.447   4.955   1.312
  867TIP3   OH2 2606   3.697  -0.043   3.589
  867TIP3    H1 2607   3.616   0.001   3.615
  867TIP3    H2 2608   3.736   0.015   3.523
  868TIP3   OH2 2609   1.933   3.542   3.881
  868TIP3    H1 2610   1.937   3.450   3.855
  868TIP3    H2 2611   1.975   3.590   3.809
  869TIP3   OH2 2612   4.708   4.692   4.293
  869TIP3    H1 2613   4.628   4.645   4.273
  869TIP3    H2 2614   4.774   4.624   4.305
  870TIP3   OH2 2615   4.816   2.221   4.261
  870TIP3    H1 2616   4.801   2.204   4.168
  870TIP3    H2 2617   4.851   2.138   4.295
  871TIP3   OH2 2618   5.326   5.264   0.156
  871TIP3    H1 2619   5.266   5.293   0.224
  871TIP3    H2 2620   5.388   5.206   0.201
  872TIP3   OH2 2621   0.934   0.109   5.077
  872TIP3    H1 2622   1.021   0.126   5.041
  872TIP3    H2 2623   0.944   0.027   5.126
  873TIP3   OH2 2624   1.884   4.152   0.754
  873TIP3    H1 2625   1.871   4.211   0.827
  873TIP3    H2 2626   1.917   4.071   0.794
  874TIP3   OH2 2627   1.515   1.747   0.325
  874TIP3    H1 2628   1.515   1.651   0.318
  874TIP3    H2 2629   1.529   1.777   0.236
  875TIP3   OH2 2630   2.968   0.852   4.264
  875TIP3    H1 2631   2.963   0.905   4.343
  875TIP3    H2 2632   2.992   0.915   4.195
  876TIP3   OH2 2633   5.109   3.114   2.037
  876TIP3    H1 2634   5.027   3.136   2.081
  876TIP3    H2 2635   5.107   3.018   2.029
  877TIP3   OH2 2636   1.054   3.711   2.033
  877TIP3    H1 2637   1.023   3.683   2.119
  877TIP3    H2 2638   1.125   3.772   2.052
  878TIP3   OH2 2639   2.557   1.611   4.774
  878TIP3    H1 2640   2.468   1.646   4.778
  878TIP3    H2 2641   2.580   1.615   4.681
  879TIP3   OH2 2642   0.606   5.536   1.845
  879TIP3    H1 2643   0.513   5.528   1.823
  879TIP3    H2 2644   0.613   5.623   1.886
  880TIP3   OH2 2645  -0.002   0.159   3.525
  880TIP3    H1 2646  -0.009   0.092   3.593
  880TIP3    H2 2647  -0.039   0.238   3.564
  881TIP3   OH2 2648   4.615   1.345   3.953
  881TIP3    H1 2649   4.688   1.376   3.899
  881TIP3    H2 2650   4.657   1.303   4.028
  882TIP3   OH2 2651   2.854   2.487   0.797
  882TIP3    H1 2652   2.926   2.425   0.791
  882TIP3    H2 2653   2.789   2.445   0.854
  883TIP3   OH2 2654   0.614   1.202   3.835
  883TIP3    H1 2655   0.620   1.283   3.886
  883TIP3    H2 2656   0.689   1.150   3.863
  884TIP3   OH2 2657   0.082   2.418   3.935
  884TIP3    H1 2658  -0.006   2.422   3.972
  884TIP3    H2 2659   0.095   2.503   3.893
  885TIP3   OH2 2660   2.534   0.399   2.539
  885TIP3    H1 2661   2.502   0.450   2.613
  885TIP3    H2 2662   2.465   0.406   2.473
  886TIP3   OH2 2663   5.902   3.814   1.646
  886TIP3    H1 2664   5.966   3.794   1.577
  886TIP3    H2 2665   5.875   3.728   1.679
  887TIP3   OH2 2666   5.028   4.862   4.390
  887TIP3    H1 2667   4.982   4.903   4.463
  887TIP3    H2 2668   5.068   4.936   4.342
  888TIP3   OH2 2669   2.963   3.431   3.461
  888TIP3    H1 2670   2.996   3.393   3.542
  888TIP3    H2 2671   2.936   3.519   3.485
  889TIP3   OH2 2672   3.053   4.968   4.055
  889TIP3    H1 2673   3.131   5.018   4.032
  889TIP3    H2 2674   3.052   4.896   3.992
  890TIP3   OH2 2675   5.376   0.987   4.692
  890TIP3    H1 2676   5.385   1.045   4.616
  890TIP3    H2 2677   5.459   0.996   4.739
  891TIP3   OH2 2678   0.780   3.391   4.202
  891TIP3    H1 2679   0.864   3.388   4.156
  891TIP3    H2 2680   0.715   3.404   4.134
  892TIP3   OH2 2681   3.474   2.682   1.866
  892TIP3    H1 2682   3.485   2.598   1.821
  892TIP3    H2 2683   3.435   2.658   1.951
  893TIP3   OH2 2684   1.940   1.858   4.852
  893TIP3    H1 2685   1.868   1.845   4.913
  893TIP3    H2 2686   1.902   1.840   4.766
  894TIP3   OH2 2687   5.506   3.404   2.677
  894TIP3    H1 2688   5.459   3.328   2.710
  894TIP3    H2 2689   5.574   3.368   2.620
  895TIP3   OH2 2690   5.742   4.252   2.117
  895TIP3    H1 2691   5.697   4.199   2.051
  895TIP3    H2 2692   5.687   4.246   2.194
  896TIP3   OH2 2693   2.453   1.358   1.782
  896TIP3    H1 2694   2.369   1.315   1.797
  896TIP3    H2 2695   2.507   1.290   1.741
  897TIP3   OH2 2696   0.207   4.231   5.159
  897TIP3    H1 2697   0.138   4.254   5.097
  897TIP3    H2 2698   0.241   4.147   5.128
  898TIP3   OH2 2699   2.813   2.715   2.425
  898TIP3    H1 2700   2.901   2.743   2.453
  898TIP3    H2 2701   2.811   2.732   2.331
  899TIP3   OH2 2702   6.081   3.196   4.461
  899TIP3    H1 2703   5.999   3.245   4.451
  899TIP3    H2 2704   6.130   3.215   4.381
  900TIP3   OH2 2705   0.879   2.636   3.145
  900TIP3    H1 2706   0.887   2.594   3.059
  900TIP3    H2 2707   0.810   2.701   3.133
  901TIP3   OH2 2708   0.851   0.292   1.646
  901TIP3    H1 2709   0.812   0.260   1.728
  901TIP3    H2 2710   0.779   0.292   1.583
  902TIP3   OH2 2711   4.931   1.943   0.610
  902TIP3    H1 2712   4.979   1.900   0.540
  902TIP3    H2 2713   4.841   1.948   0.578
  903TIP3   OH2 2714   4.031   4.871   1.487
  903TIP3    H1 2715   4.012   4.792   1.436
  903TIP3    H2 2716   4.111   4.849   1.536
  904TIP3   OH2 2717   3.727   3.032   1.450
  904TIP3    H1 2718   3.704   2.950   1.493
  904TIP3    H2 2719   3.779   3.080   1.514
  905TIP3   OH2 2720   5.239   4.500   4.412
  905TIP3    H1 2721   5.218   4.445   4.337
  905TIP3    H2 2722   5.265   4.584   4.373
  906TIP3   OH2 2723   0.176   1.247   3.834
  906TIP3    H1 2724   0.257   1.296   3.846
  906TIP3    H2 2725   0.122   1.269   3.910
  907TIP3   OH2 2726   0.709   0.696   4.630
  907TIP3    H1 2727   0.721   0.712   4.536
  907TIP3    H2 2728   0.701   0.601   4.637
  908TIP3   OH2 2729   2.579   4.907   0.456
  908TIP3    H1 2730   2.518   4.843   0.492
  908TIP3    H2 2731   2.568   4.985   0.511
  909TIP3   OH2 2732   3.936   3.664   3.062
  909TIP3    H1 2733   3.976   3.674   2.976
  909TIP3    H2 2734   3.977   3.586   3.099
  910TIP3   OH2 2735   5.322   5.401   1.131
  910TIP3    H1 2736   5.244   5.396   1.076
  910TIP3    H2 2737   5.288   5.401   1.221
  911TIP3   OH2 2738   1.030   1.254   5.038
  911TIP3    H1 2739   0.988   1.279   5.121
  911TIP3    H2 2740   1.006   1.162   5.026
  912TIP3   OH2 2741   0.865   2.297   3.498
  912TIP3    H1 2742   0.813   2.324   3.574
  912TIP3    H2 2743   0.901   2.379   3.463
  913TIP3   OH2 2744   4.691   1.748   0.625
  913TIP3    H1 2745   4.675   1.840   0.605
  913TIP3    H2 2746   4.747   1.718   0.554
  914TIP3   OH2 2747   0.418   1.476   5.088
  914TIP3    H1 2748   0.500   1.460   5.041
  914TIP3    H2 2749   0.356   1.414   5.050
  915TIP3   OH2 2750   2.380   2.120   0.648
  915TIP3    H1 2751   2.306   2.061   0.663
  915TIP3    H2 2752   2.344   2.207   0.662
  916TIP3   OH2 2753   3.818   5.091   3.230
  916TIP3    H1 2754   3.823   5.059   3.140
  916TIP3    H2 2755   3.886   5.042   3.277
  917TIP3   OH2 2756   2.687   4.994   1.596
  917TIP3    H1 2757   2.697   5.033   1.509
  917TIP3    H2 2758   2.647   4.909   1.580
  918TIP3   OH2 2759   1.983   1.512   1.894
  918TIP3    H1 2760   2.046   1.575   1.928
  918TIP3    H2 2761   1.991   1.436   1.951
  919TIP3   OH2 2762   1.892   2.385   4.771
  919TIP3    H1 2763   1.804   2.401   4.738
  919TIP3    H2 2764   1.927   2.317   4.713
  920TIP3   OH2 2765   1.781   0.246   4.683
  920TIP3    H1 2766   1.746   0.332   4.706
  920TIP3    H2 2767   1.727   0.184   4.732
  921TIP3   OH2 2768   3.299   5.574   4.273
  921TIP3    H1 2769   3.387   5.541   4.252
  921TIP3    H2 2770   3.307   5.610   4.361
  922TIP3   OH2 2771   5.852   4.826   3.847
  922TIP3    H1 2772   5.848   4.733   3.869
  922TIP3    H2 2773   5.832   4.871   3.930
  923TIP3   OH2 2774   2.528   3.795   4.968
  923TIP3    H1 2775   2.535   3.873   5.022
  923TIP3    H2 2776   2.565   3.725   5.023
  924TIP3   OH2 2777   4.824   1.835   3.049
  924TIP3    H1 2778   4.769   1.885   2.989
  924TIP3    H2 2779   4.897   1.804   2.995
  925TIP3   OH2 2780   5.882   2.098   0.992
  925TIP3    H1 2781   5.844   2.185   1.009
  925TIP3    H2 2782   5.847   2.043   1.063
  926TIP3   OH2 2783   2.562   1.367   1.380
  926TIP3    H1 2784   2.645   1.363   1.428
  926TIP3    H2 2785   2.536   1.276   1.369
  927TIP3   OH2 2786   3.155   0.001   3.789
  927TIP3    H1 2787   3.086  -0.007   3.854
  927TIP3    H2 2788   3.235   0.015   3.839
  928TIP3   OH2 2789   5.311   1.529   3.070
  928TIP3    H1 2790   5.315   1.598   3.004
  928TIP3    H2 2791   5.401   1.520   3.101
  929TIP3   OH2 2792   3.949   3.400   4.696
  929TIP3    H1 2793   4.035   3.439   4.712
  929TIP3    H2 2794   3.927   3.426   4.607
  930TIP3   OH2 2795   0.695   1.366   5.059
  930TIP3    H1 2796   0.688   1.284   5.009
  930TIP3    H2 2797   0.691   1.338   5.151
  931TIP3   OH2 2798   1.501   5.584   1.635
  931TIP3    H1 2799   1.551   5.665   1.635
  931TIP3    H2 2800   1.459   5.581   1.721
  932TIP3   OH2 2801   5.779   3.707   4.450
  932TIP3    H1 2802   5.740   3.632   4.495
  932TIP3    H2 2803   5.873   3.701   4.468
  933TIP3   OH2 2804   5.614   5.735   2.917
  933TIP3    H1 2805   5.687   5.703   2.970
  933TIP3    H2 2806   5.653   5.756   2.832
  934TIP3   OH2 2807   1.920   1.347   1.479
  934TIP3    H1 2808   2.016   1.337   1.480
  934TIP3    H2 2809   1.906   1.433   1.442
  935TIP3   OH2 2810   1.354   4.335   0.370
  935TIP3    H1 2811   1.370   4.242   0.387
  935TIP3    H2 2812   1.315   4.368   0.451
  936TIP3   OH2 2813   3.444   3.325   0.922
  936TIP3    H1 2814   3.420   3.358   1.008
  936TIP3    H2 2815   3.421   3.232   0.924
  937TIP3   OH2 2816   1.988   4.619   4.033
  937TIP3    H1 2817   1.977   4.705   3.993
  937TIP3    H2 2818   1.953   4.630   4.122
  938TIP3   OH2 2819   0.189   4.181   0.296
  938TIP3    H1 2820   0.196   4.092   0.330
  938TIP3    H2 2821   0.153   4.170   0.208
  939TIP3   OH2 2822   0.177   0.974   3.857
  939TIP3    H1 2823   0.182   1.069   3.862
  939TIP3    H2 2824   0.268   0.945   3.847
  940TIP3   OH2 2825   5.425   0.400   3.424
  940TIP3    H1 2826   5.389   0.488   3.429
  940TIP3    H2 2827   5.379   0.350   3.491
  941TIP3   OH2 2828   6.292   1.030   3.364
  941TIP3    H1 2829   6.353   0.957   3.357
  941TIP3    H2 2830   6.215   0.992   3.407
  942TIP3   OH2 2831   2.583   1.038   4.788
  942TIP3    H1 2832   2.496   1.006   4.813
  942TIP3    H2 2833   2.584   1.031   4.693
  943TIP3   OH2 2834   3.132   1.444   3.460
  943TIP3    H1 2835   3.212   1.419   3.507
  943TIP3    H2 2836   3.141   1.539   3.448
  944TIP3   OH2 2837   2.587   1.961   1.452
  944TIP3    H1 2838   2.603   1.898   1.522
  944TIP3    H2 2839   2.537   2.031   1.493
  945TIP3   OH2 2840   6.015   1.486   0.092
  945TIP3    H1 2841   6.029   1.412   0.033
  945TIP3    H2 2842   6.085   1.548   0.071
  946TIP3   OH2 2843   1.277   4.560   4.641
  946TIP3    H1 2844   1.247   4.567   4.731
  946TIP3    H2 2845   1.203   4.591   4.589
  947TIP3   OH2 2846   1.653   1.022   4.074
  947TIP3    H1 2847   1.740   1.049   4.105
  947TIP3    H2 2848   1.668   0.935   4.037
  948TIP3   OH2 2849   4.051   3.297   0.828
  948TIP3    H1 2850   3.985   3.301   0.898
  948TIP3    H2 2851   4.072   3.204   0.821
  949TIP3   OH2 2852   4.117   3.697   1.132
  949TIP3    H1 2853   4.084   3.615   1.170
  949TIP3    H2 2854   4.057   3.764   1.164
  950TIP3   OH2 2855   4.370   0.746   0.627
  950TIP3    H1 2856   4.289   0.704   0.655
  950TIP3    H2 2857   4.342   0.821   0.575
  951TIP3   OH2 2858   1.479   2.873   1.665
  951TIP3    H1 2859   1.556   2.832   1.627
  951TIP3    H2 2860   1.507   2.903   1.751
  952TIP3   OH2 2861   2.205   5.626   4.239
  952TIP3    H1 2862   2.213   5.575   4.320
  952TIP3    H2 2863   2.172   5.711   4.268
  953TIP3   OH2 2864   0.703   0.458   0.542
  953TIP3    H1 2865   0.764   0.453   0.467
  953TIP3    H2 2866   0.699   0.552   0.562
  954TIP3   OH2 2867   5.711   4.283   3.345
  954TIP3    H1 2868   5.750   4.196   3.352
  954TIP3    H2 2869   5.701   4.298   3.251
  955TIP3   OH2 2870   3.648   2.110   4.635
  955TIP3    H1 2871   3.736   2.079   4.654
  955TIP3    H2 2872   3.647   2.200   4.666
  956TIP3   OH2 2873   3.054   3.074   0.364
  956TIP3    H1 2874   2.963   3.065   0.390
  956TIP3    H2 2875   3.051   3.127   0.284
  957TIP3   OH2 2876   1.116   5.785   2.678
  957TIP3    H1 2877   1.179   5.721   2.646
  957TIP3    H2 2878   1.033   5.737   2.682
  958TIP3   OH2 2879   5.451   3.250   4.560
  958TIP3    H1 2880   5.418   3.250   4.649
  958TIP3    H2 2881   5.515   3.179   4.558
  959TIP3   OH2 2882   1.266   2.357   0.542
  959TIP3    H1 2883   1.271   2.289   0.611
  959TIP3    H2 2884   1.297   2.313   0.463
  960TIP3   OH2 2885   5.427   3.142   0.668
  960TIP3    H1 2886   5.464   3.204   0.731
  960TIP3    H2 2887   5.341   3.179   0.646
  961TIP3   OH2 2888   2.461   4.828   3.163
  961TIP3    H1 2889   2.383   4.873   3.130
  961TIP3    H2 2890   2.439   4.806   3.253
  962TIP3   OH2 2891   1.477   3.282   4.859
  962TIP3    H1 2892   1.426   3.342   4.804
  962TIP3    H2 2893   1.539   3.339   4.905
  963TIP3   OH2 2894   4.352   2.187   1.332
  963TIP3    H1 2895   4.365   2.218   1.421
  963TIP3    H2 2896   4.434   2.144   1.309
  964TIP3   OH2 2897   0.272   5.739   0.053
  964TIP3    H1 2898   0.272   5.803   0.124
  964TIP3    H2 2899   0.363   5.735   0.024
  965TIP3   OH2 2900   4.345   5.606   4.852
  965TIP3    H1 2901   4.280   5.606   4.923
  965TIP3    H2 2902   4.301   5.647   4.778
  966TIP3   OH2 2903   3.932   2.659   4.127
  966TIP3    H1 2904   3.915   2.713   4.204
  966TIP3    H2 2905   3.989   2.712   4.072
  967TIP3   OH2 2906   2.581   5.683   4.759
  967TIP3    H1 2907   2.528   5.706   4.683
  967TIP3    H2 2908   2.522   5.694   4.834
  968TIP3   OH2 2909   5.321   0.234   4.717
  968TIP3    H1 2910   5.240   0.265   4.758
  968TIP3    H2 2911   5.391   0.283   4.761
  969TIP3   OH2 2912   5.650   3.073   3.554
  969TIP3    H1 2913   5.594   3.140   3.593
  969TIP3    H2 2914   5.696   3.034   3.628
  970TIP3   OH2 2915   5.486   0.854   3.833
  970TIP3    H1 2916   5.393   0.844   3.811
  970TIP3    H2 2917   5.531   0.793   3.775
  971TIP3   OH2 2918   3.390   0.355   4.688
  971TIP3    H1 2919   3.299   0.374   4.667
  971TIP3    H2 2920   3.438   0.432   4.656
  972TIP3   OH2 2921   3.875   5.700   4.556
  972TIP3    H1 2922   3.916   5.760   4.493
  972TIP3    H2 2923   3.804   5.752   4.595
  973TIP3   OH2 2924   6.192   5.470   0.887
  973TIP3    H1 2925   6.252   5.486   0.814
  973TIP3    H2 2926   6.216   5.537   0.952
  974TIP3   OH2 2927   2.782   5.831   1.598
  974TIP3    H1 2928   2.877   5.822   1.605
  974TIP3    H2 2929   2.749   5.814   1.686
  975TIP3   OH2 2930   2.992   4.204   1.538
  975TIP3    H1 2931   3.031   4.228   1.454
  975TIP3    H2 2932   2.915   4.260   1.545
  976TIP3   OH2 2933   2.814   3.709   2.985
  976TIP3    H1 2934   2.788   3.797   3.012
  976TIP3    H2 2935   2.892   3.690   3.037
  977TIP3   OH2 2936   6.265   3.641   4.639
  977TIP3    H1 2937   6.184   3.626   4.590
  977TIP3    H2 2938   6.324   3.683   4.577
  978TIP3   OH2 2939   1.877   0.549   2.015
  978TIP3    H1 2940   1.917   0.492   1.949
  978TIP3    H2 2941   1.873   0.635   1.972
  979TIP3   OH2 2942   3.525   5.131   0.171
  979TIP3    H1 2943   3.497   5.222   0.177
  979TIP3    H2 2944   3.517   5.109   0.078
  980TIP3   OH2 2945   5.759   4.584   4.506
  980TIP3    H1 2946   5.734   4.524   4.435
  980TIP3    H2 2947   5.683   4.584   4.565
  981TIP3   OH2 2948   5.069   2.035   4.738
  981TIP3    H1 2949   5.078   2.123   4.702
  981TIP3    H2 2950   5.122   2.036   4.817
  982TIP3   OH2 2951   0.917   4.275   0.466
  982TIP3    H1 2952   0.835   4.310   0.432
  982TIP3    H2 2953   0.902   4.266   0.560
  983TIP3   OH2 2954   1.416   4.483   3.472
  983TIP3    H1 2955   1.383   4.400   3.438
  983TIP3    H2 2956   1.340   4.541   3.470
  984TIP3   OH2 2957   1.555   1.683   1.402
  984TIP3    H1 2958   1.467   1.692   1.438
  984TIP3    H2 2959   1.560   1.591   1.374
  985TIP3   OH2 2960   0.242   1.719   5.185
  985TIP3    H1 2961   0.275   1.638   5.225
  985TIP3    H2 2962   0.193   1.762   5.256
  986TIP3   OH2 2963   0.055  -0.031   1.151
  986TIP3    H1 2964   0.051   0.019   1.232
  986TIP3    H2 2965   0.051   0.036   1.082
  987TIP3   OH2 2966   2.680   2.896   3.981
  987TIP3    H1 2967   2.702   2.989   3.984
  987TIP3    H2 2968   2.587   2.894   3.958
  988TIP3   OH2 2969   2.120   5.642   3.949
  988TIP3    H1 2970   2.144   5.605   4.035
  988TIP3    H2 2971   2.135   5.570   3.888
  989TIP3   OH2 2972   2.800   5.751   3.087
  989TIP3    H1 2973   2.879   5.736   3.036
  989TIP3    H2 2974   2.764   5.663   3.101
  990TIP3   OH2 2975   6.148   1.862   4.886
  990TIP3    H1 2976   6.143   1.957   4.894
  990TIP3    H2 2977   6.210   1.847   4.814
  991TIP3   OH2 2978   2.893   0.726   1.500
  991TIP3    H1 2979   2.980   0.767   1.498
  991TIP3    H2 2980   2.833   0.800   1.511
  992TIP3   OH2 2981   2.119   3.059   2.382
  992TIP3    H1 2982   2.132   3.074   2.476
  992TIP3    H2 2983   2.113   3.146   2.344
  993TIP3   OH2 2984   5.346   4.375   3.641
  993TIP3    H1 2985   5.358   4.455   3.692
  993TIP3    H2 2986   5.434   4.339   3.631
  994TIP3   OH2 2987   6.154   5.928   1.167
  994TIP3    H1 2988   6.111   5.975   1.096
  994TIP3    H2 2989   6.142   5.835   1.147
  995TIP3   OH2 2990   3.381   1.163   3.704
  995TIP3    H1 2991   3.307   1.104   3.721
  995TIP3    H2 2992   3.443   1.144   3.776
  996TIP3   OH2 2993   2.038   3.190   4.778
  996TIP3    H1 2994   1.971   3.127   4.751
  996TIP3    H2 2995   2.085   3.146   4.849
  997TIP3   OH2 2996   0.079   5.434   0.094
  997TIP3    H1 2997   0.166   5.441   0.054
  997TIP3    H2 2998   0.067   5.341   0.110
  998TIP3   OH2 2999   2.379   2.189   3.670
  998TIP3    H1 3000   2.301   2.236   3.699
  998TIP3    H2 3001   2.347   2.103   3.643
  999TIP3   OH2 3002   6.083   3.043   0.979
  999TIP3    H1 3003   6.061   2.965   1.031
  999TIP3    H2 3004   6.100   3.009   0.891
 1000TIP3   OH2 3005   3.604   2.934   2.791
 1000TIP3    H1 3006   3.693   2.953   2.761
 1000TIP3    H2 3007   3.548   2.976   2.726
 1001TIP3   OH2 3008   1.078   0.175   4.651
 1001TIP3    H1 3009   1.065   0.150   4.559
 1001TIP3    H2 3010   1.127   0.257   4.647
 1002TIP3   OH2 3011   1.589   0.488   1.999
 1002TIP3    H1 3012   1.539   0.569   1.988
 1002TIP3    H2 3013   1.676   0.516   2.025
 1003TIP3   OH2 3014   5.074   5.797   4.050
 1003TIP3    H1 3015   5.024   5.844   3.984
 1003TIP3    H2 3016   5.164   5.826   4.037
 1004TIP3   OH2 3017   5.970   2.049   3.735
 1004TIP3    H1 3018   5.930   2.007   3.811
 1004TIP3    H2 3019   6.061   2.063   3.760
 1005TIP3   OH2 3020   4.070   0.382   2.086
 1005TIP3    H1 3021   4.076   0.293   2.053
 1005TIP3    H2 3022   4.157   0.402   2.120
 1006TIP3   OH2 3023   3.703   1.424   1.784
 1006TIP3    H1 3024   3.706   1.335   1.818
 1006TIP3    H2 3025   3.786   1.435   1.737
 1007TIP3   OH2 3026   2.027   2.032   4.023
 1007TIP3    H1 3027   1.934   2.046   4.011
 1007TIP3    H2 3028   2.053   1.975   3.951
 1008TIP3   OH2 3029   3.578   4.720   1.575
 1008TIP3    H1 3030   3.492   4.705   1.535
 1008TIP3    H2 3031   3.607   4.804   1.540
 1009TIP3   OH2 3032   0.340   0.691   4.459
 1009TIP3    H1 3033   0.356   0.666   4.550
 1009TIP3    H2 3034   0.252   0.728   4.460
 1010TIP3   OH2 3035   2.041   1.194   2.761
 1010TIP3    H1 3036   1.948   1.186   2.742
 1010TIP3    H2 3037   2.064   1.282   2.733
 1011TIP3   OH2 3038   3.411   3.164   5.106
 1011TIP3    H1 3039   3.378   3.202   5.188
 1011TIP3    H2 3040   3.384   3.072   5.110
 1012TIP3   OH2 3041   0.932   2.223   3.066
 1012TIP3    H1 3042   0.978   2.146   3.099
 1012TIP3    H2 3043   0.877   2.251   3.139
 1013TIP3   OH2 3044   3.358   3.198   1.712
 1013TIP3    H1 3045   3.348   3.259   1.639
 1013TIP3    H2 3046   3.447   3.214   1.745
 1014TIP3   OH2 3047   2.779   0.781   0.736
 1014TIP3    H1 3048   2.871   0.808   0.736
 1014TIP3    H2 3049   2.731   0.859   0.765
 1015TIP3   OH2 3050   0.013   5.552   4.408
 1015TIP3    H1 3051   0.096   5.597   4.425
 1015TIP3    H2 3052  -0.021   5.594   4.329
 1016TIP3   OH2 3053   5.178   5.142   4.348
 1016TIP3    H1 3054   5.273   5.134   4.340
 1016TIP3    H2 3055   5.164   5.233   4.375
 1017TIP3   OH2 3056   5.230   5.883   4.780
 1017TIP3    H1 3057   5.138   5.877   4.754
 1017TIP3    H2 3058   5.259   5.967   4.744
 1018TIP3   OH2 3059   1.508   0.611   3.093
 1018TIP3    H1 3060   1.420   0.648   3.098
 1018TIP3    H2 3061   1.504   0.549   3.020
 1019TIP3   OH2 3062   4.345   3.795   4.008
 1019TIP3    H1 3063   4.337   3.702   3.988
 1019TIP3    H2 3064   4.256   3.830   3.997
 1020TIP3   OH2 3065   5.241   5.605   3.842
 1020TIP3    H1 3066   5.314   5.629   3.899
 1020TIP3    H2 3067   5.228   5.681   3.786
 1021TIP3   OH2 3068   3.287   5.503   3.305
 1021TIP3    H1 3069   3.367   5.492   3.357
 1021TIP3    H2 3070   3.223   5.444   3.347
 1022TIP3   OH2 3071   1.604   3.030   1.488
 1022TIP3    H1 3072   1.589   3.107   1.432
 1022TIP3    H2 3073   1.656   3.064   1.561
 1023TIP3   OH2 3074   2.364   3.317   3.002
 1023TIP3    H1 3075   2.395   3.344   3.088
 1023TIP3    H2 3076   2.403   3.379   2.941
 1024TIP3   OH2 3077   4.731   1.334   1.829
 1024TIP3    H1 3078   4.688   1.416   1.853
 1024TIP3    H2 3079   4.817   1.362   1.795
 1025TIP3   OH2 3080   5.837   4.596   0.481
 1025TIP3    H1 3081   5.917   4.637   0.512
 1025TIP3    H2 3082   5.792   4.568   0.561
 1026TIP3   OH2 3083   4.716   2.716   4.094
 1026TIP3    H1 3084   4.637   2.770   4.091
 1026TIP3    H2 3085   4.758   2.730   4.009
 1027TIP3   OH2 3086   1.704   3.342   0.996
 1027TIP3    H1 3087   1.791   3.342   1.036
 1027TIP3    H2 3088   1.693   3.254   0.961
 1028TIP3   OH2 3089   5.506   1.881   2.538
 1028TIP3    H1 3090   5.510   1.858   2.445
 1028TIP3    H2 3091   5.518   1.798   2.584
 1029TIP3   OH2 3092   0.895   5.889   3.472
 1029TIP3    H1 3093   0.852   5.809   3.442
 1029TIP3    H2 3094   0.829   5.958   3.460
 1030TIP3   OH2 3095   5.822   0.709   2.262
 1030TIP3    H1 3096   5.884   0.641   2.235
 1030TIP3    H2 3097   5.762   0.664   2.321
 1031TIP3   OH2 3098   0.298   3.975   0.579
 1031TIP3    H1 3099   0.222   4.025   0.610
 1031TIP3    H2 3100   0.367   4.039   0.568
 1032TIP3   OH2 3101   5.809   3.952   1.020
 1032TIP3    H1 3102   5.888   3.949   1.075
 1032TIP3    H2 3103   5.832   4.012   0.949
 1033TIP3   OH2 3104   4.382   2.065   4.922
 1033TIP3    H1 3105   4.316   1.996   4.933
 1033TIP3    H2 3106   4.465   2.018   4.922
 1034TIP3   OH2 3107   4.800   0.854   2.398
 1034TIP3    H1 3108   4.757   0.803   2.467
 1034TIP3    H2 3109   4.728   0.884   2.342
 1035TIP3   OH2 3110   0.231   4.188   4.480
 1035TIP3    H1 3111   0.158   4.151   4.430
 1035TIP3    H2 3112   0.192   4.257   4.533
 1036TIP3   OH2 3113   4.416   1.318   2.201
 1036TIP3    H1 3114   4.360   1.266   2.144
 1036TIP3    H2 3115   4.461   1.379   2.142
 1037TIP3   OH2 3116   1.169   0.607   2.634
 1037TIP3    H1 3117   1.243   0.666   2.621
 1037TIP3    H2 3118   1.150   0.572   2.547
 1038TIP3   OH2 3119   4.027   3.766   1.584
 1038TIP3    H1 3120   4.002   3.675   1.569
 1038TIP3    H2 3121   3.978   3.792   1.662
 1039TIP3   OH2 3122   3.773   4.215   3.290
 1039TIP3    H1 3123   3.696   4.161   3.269
 1039TIP3    H2 3124   3.753   4.301   3.254
 1040TIP3   OH2 3125   3.782   4.602   0.168
 1040TIP3    H1 3126   3.847   4.623   0.101
 1040TIP3    H2 3127   3.715   4.670   0.159
 1041TIP3   OH2 3128   2.974   3.932   4.934
 1041TIP3    H1 3129   2.879   3.929   4.949
 1041TIP3    H2 3130   2.985   3.893   4.847
 1042TIP3   OH2 3131   3.381   0.452   1.765
 1042TIP3    H1 3132   3.360   0.359   1.753
 1042TIP3    H2 3133   3.330   0.478   1.841
 1043TIP3   OH2 3134   2.422   3.031   1.371
 1043TIP3    H1 3135   2.515   3.026   1.389
 1043TIP3    H2 3136   2.380   2.982   1.442
 1044TIP3   OH2 3137   5.797   5.497   3.822
 1044TIP3    H1 3138   5.734   5.426   3.834
 1044TIP3    H2 3139   5.882   5.453   3.816
 1045TIP3   OH2 3140   6.027   3.220   5.038
 1045TIP3    H1 3141   6.099   3.189   4.984
 1045TIP3    H2 3142   5.966   3.146   5.043
 1046TIP3   OH2 3143   4.562   2.908   0.167
 1046TIP3    H1 3144   4.637   2.880   0.219
 1046TIP3    H2 3145   4.519   2.974   0.221
 1047TIP3   OH2 3146   4.048   1.252   2.122
 1047TIP3    H1 3147   4.002   1.331   2.094
 1047TIP3    H2 3148   4.021   1.240   2.213
 1048TIP3   OH2 3149   2.609   0.234   0.383
 1048TIP3    H1 3150   2.565   0.231   0.467
 1048TIP3    H2 3151   2.667   0.157   0.383
 1049TIP3   OH2 3152   5.434   3.238   4.843
 1049TIP3    H1 3153   5.499   3.167   4.849
 1049TIP3    H2 3154   5.396   3.243   4.931
 1050TIP3   OH2 3155   1.674   5.960   2.925
 1050TIP3    H1 3156   1.616   5.952   2.850
 1050TIP3    H2 3157   1.710   5.873   2.938
 1051TIP3   OH2 3158   5.215   0.923   3.875
 1051TIP3    H1 3159   5.127   0.910   3.910
 1051TIP3    H2 3160   5.265   0.958   3.949
 1052TIP3   OH2 3161   3.736   0.651   3.818
 1052TIP3    H1 3162   3.760   0.642   3.726
 1052TIP3    H2 3163   3.767   0.738   3.842
 1053TIP3   OH2 3164   2.578   4.257   2.626
 1053TIP3    H1 3165   2.560   4.310   2.548
 1053TIP3    H2 3166   2.607   4.321   2.692
 1054TIP3   OH2 3167   3.927   4.203   5.089
 1054TIP3    H1 3168   3.975   4.249   5.021
 1054TIP3    H2 3169   3.992   4.182   5.155
 1055TIP3   OH2 3170   2.248   3.325   1.857
 1055TIP3    H1 3171   2.201   3.263   1.801
 1055TIP3    H2 3172   2.240   3.289   1.945
 1056TIP3   OH2 3173   0.533   3.193   4.389
 1056TIP3    H1 3174   0.610   3.164   4.341
 1056TIP3    H2 3175   0.459   3.169   4.334
 1057TIP3   OH2 3176   1.169   5.690   4.239
 1057TIP3    H1 3177   1.124   5.708   4.157
 1057TIP3    H2 3178   1.099   5.674   4.302
 1058TIP3   OH2 3179   3.086   5.189   1.372
 1058TIP3    H1 3180   3.116   5.113   1.421
 1058TIP3    H2 3181   3.156   5.254   1.383
 1059TIP3   OH2 3182   5.817   3.814   3.805
 1059TIP3    H1 3183   5.738   3.793   3.855
 1059TIP3    H2 3184   5.888   3.804   3.868
 1060TIP3   OH2 3185   3.153   3.056   3.555
 1060TIP3    H1 3186   3.197   3.053   3.470
 1060TIP3    H2 3187   3.207   2.999   3.611
 1061TIP3   OH2 3188   2.125   2.566   0.824
 1061TIP3    H1 3189   2.156   2.656   0.814
 1061TIP3    H2 3190   2.133   2.548   0.918
 1062TIP3   OH2 3191   0.688   4.085   1.926
 1062TIP3    H1 3192   0.603   4.048   1.903
 1062TIP3    H2 3193   0.742   4.010   1.949
 1063TIP3   OH2 3194   5.092   4.109   4.565
 1063TIP3    H1 3195   5.048   4.131   4.483
 1063TIP3    H2 3196   5.126   4.192   4.597
 1064TIP3   OH2 3197   0.481   4.012   2.542
 1064TIP3    H1 3198   0.436   3.932   2.570
 1064TIP3    H2 3199   0.520   4.046   2.622
 1065TIP3   OH2 3200   0.688   0.295   0.764
 1065TIP3    H1 3201   0.713   0.333   0.679
 1065TIP3    H2 3202   0.618   0.352   0.795
 1066TIP3   OH2 3203   4.139   2.209   4.587
 1066TIP3    H1 3204   4.137   2.297   4.550
 1066TIP3    H2 3205   4.232   2.190   4.600
 1067TIP3   OH2 3206   4.205   0.245   0.290
 1067TIP3    H1 3207   4.216   0.153   0.317
 1067TIP3    H2 3208   4.135   0.242   0.225
 1068TIP3   OH2 3209   5.287   3.401   4.367
 1068TIP3    H1 3210   5.269   3.335   4.301
 1068TIP3    H2 3211   5.339   3.356   4.433
 1069TIP3   OH2 3212   3.219   2.311   4.812
 1069TIP3    H1 3213   3.224   2.259   4.892
 1069TIP3    H2 3214   3.224   2.401   4.842
 1070TIP3   OH2 3215   6.251   4.847   0.189
 1070TIP3    H1 3216   6.189   4.777   0.169
 1070TIP3    H2 3217   6.198   4.927   0.191
 1071TIP3   OH2 3218   0.003   1.382   2.277
 1071TIP3    H1 3219   0.078   1.431   2.244
 1071TIP3    H2 3220   0.017   1.293   2.246
 1072TIP3   OH2 3221   0.482   2.375   2.496
 1072TIP3    H1 3222   0.438   2.299   2.535
 1072TIP3    H2 3223   0.513   2.344   2.411
 1073TIP3   OH2 3224   0.324   3.507   4.420
 1073TIP3    H1 3225   0.268   3.447   4.371
 1073TIP3    H2 3226   0.304   3.489   4.512
 1074TIP3   OH2 3227   3.993   3.773   3.950
 1074TIP3    H1 3228   4.036   3.856   3.932
 1074TIP3    H2 3229   3.899   3.793   3.943
 1075TIP3   OH2 3230   2.348   4.414   2.860
 1075TIP3    H1 3231   2.311   4.496   2.893
 1075TIP3    H2 3232   2.419   4.442   2.802
 1076TIP3   OH2 3233   2.953   5.040   1.703
 1076TIP3    H1 3234   2.918   4.988   1.776
 1076TIP3    H2 3235   2.880   5.047   1.641
 1077TIP3   OH2 3236   2.693   1.339   0.335
 1077TIP3    H1 3237   2.689   1.319   0.242
 1077TIP3    H2 3238   2.689   1.434   0.340
 1078TIP3   OH2 3239   2.112   5.394   2.810
 1078TIP3    H1 3240   2.019   5.416   2.802
 1078TIP3    H2 3241   2.157   5.466   2.766
 1079TIP3   OH2 3242   1.157   4.166   0.695
 1079TIP3    H1 3243   1.136   4.245   0.745
 1079TIP3    H2 3244   1.151   4.193   0.604
 1080TIP3   OH2 3245   5.893   1.463   0.352
 1080TIP3    H1 3246   5.912   1.468   0.259
 1080TIP3    H2 3247   5.965   1.412   0.389
 1081TIP3   OH2 3248   4.645   2.734   3.270
 1081TIP3    H1 3249   4.725   2.696   3.233
 1081TIP3    H2 3250   4.640   2.698   3.358
 1082TIP3   OH2 3251   0.893   2.467   2.924
 1082TIP3    H1 3252   0.812   2.445   2.878
 1082TIP3    H2 3253   0.918   2.385   2.967
 1083TIP3   OH2 3254   3.646   2.406   4.253
 1083TIP3    H1 3255   3.675   2.361   4.173
 1083TIP3    H2 3256   3.574   2.352   4.286
 1084TIP3   OH2 3257   1.519   5.946   2.687
 1084TIP3    H1 3258   1.425   5.943   2.708
 1084TIP3    H2 3259   1.536   5.864   2.641
 1085TIP3   OH2 3260   0.958   2.438   1.727
 1085TIP3    H1 3261   0.871   2.400   1.710
 1085TIP3    H2 3262   0.993   2.385   1.798
 1086TIP3   OH2 3263   0.465   0.052   3.004
 1086TIP3    H1 3264   0.541  -0.007   3.005
 1086TIP3    H2 3265   0.481   0.111   2.930
 1087TIP3   OH2 3266   0.846   3.895   1.704
 1087TIP3    H1 3267   0.848   3.981   1.662
 1087TIP3    H2 3268   0.759   3.860   1.684
 1088TIP3   OH2 3269   5.776   0.973   0.725
 1088TIP3    H1 3270   5.771   0.893   0.778
 1088TIP3    H2 3271   5.697   1.022   0.748
 1089TIP3   OH2 3272   5.202   1.286   0.423
 1089TIP3    H1 3273   5.191   1.195   0.394
 1089TIP3    H2 3274   5.232   1.279   0.514
 1090TIP3   OH2 3275   6.147   5.443   3.246
 1090TIP3    H1 3276   6.065   5.447   3.196
 1090TIP3    H2 3277   6.125   5.389   3.322
 1091TIP3   OH2 3278   4.420   0.027   2.959
 1091TIP3    H1 3279   4.430  -0.065   2.933
 1091TIP3    H2 3280   4.380   0.069   2.883
 1092TIP3   OH2 3281   5.941   1.119   2.554
 1092TIP3    H1 3282   5.926   1.084   2.642
 1092TIP3    H2 3283   6.015   1.179   2.563
 1093TIP3   OH2 3284   4.855   0.410   4.644
 1093TIP3    H1 3285   4.876   0.430   4.735
 1093TIP3    H2 3286   4.793   0.337   4.650
 1094TIP3   OH2 3287   0.981   5.761   4.742
 1094TIP3    H1 3288   0.894   5.724   4.755
 1094TIP3    H2 3289   1.031   5.732   4.819
 1095TIP3   OH2 3290   4.988   0.831   2.852
 1095TIP3    H1 3291   4.985   0.862   2.762
 1095TIP3    H2 3292   5.071   0.784   2.859
 1096TIP3   OH2 3293   5.668   1.205   2.631
 1096TIP3    H1 3294   5.667   1.143   2.705
 1096TIP3    H2 3295   5.743   1.178   2.578
 1097TIP3   OH2 3296   1.428   4.342   4.817
 1097TIP3    H1 3297   1.345   4.376   4.784
 1097TIP3    H2 3298   1.434   4.378   4.906
 1098TIP3   OH2 3299   3.690   5.393   3.221
 1098TIP3    H1 3300   3.643   5.442   3.288
 1098TIP3    H2 3301   3.695   5.304   3.255
 1099TIP3   OH2 3302   3.439   2.881   0.637
 1099TIP3    H1 3303   3.371   2.825   0.601
 1099TIP3    H2 3304   3.519   2.853   0.593
 1100TIP3   OH2 3305   0.489   2.483   3.802
 1100TIP3    H1 3306   0.461   2.480   3.710
 1100TIP3    H2 3307   0.436   2.415   3.844
 1101TIP3   OH2 3308   4.629   5.061   1.237
 1101TIP3    H1 3309   4.722   5.042   1.248
 1101TIP3    H2 3310   4.600   4.998   1.170
 1102TIP3   OH2 3311   4.693   5.663   0.898
 1102TIP3    H1 3312   4.674   5.602   0.827
 1102TIP3    H2 3313   4.608   5.702   0.919
 1103TIP3   OH2 3314   3.536   1.251   1.596
 1103TIP3    H1 3315   3.612   1.206   1.559
 1103TIP3    H2 3316   3.571   1.332   1.634
 1104TIP3   OH2 3317   1.127   2.474   5.152
 1104TIP3    H1 3318   1.102   2.551   5.202
 1104TIP3    H2 3319   1.053   2.458   5.094
 1105TIP3   OH2 3320   6.000   1.627   4.602
 1105TIP3    H1 3321   6.019   1.556   4.663
 1105TIP3    H2 3322   5.931   1.677   4.645
 1106TIP3   OH2 3323   0.474   2.870   4.684
 1106TIP3    H1 3324   0.423   2.792   4.662
 1106TIP3    H2 3325   0.563   2.837   4.697
 1107TIP3   OH2 3326   5.000   2.247   1.785
 1107TIP3    H1 3327   4.923   2.215   1.738
 1107TIP3    H2 3328   5.007   2.339   1.760
 1108TIP3   OH2 3329   2.071   5.223   3.059
 1108TIP3    H1 3330   1.993   5.169   3.076
 1108TIP3    H2 3331   2.065   5.246   2.966
 1109TIP3   OH2 3332   2.187   5.349   1.577
 1109TIP3    H1 3333   2.224   5.378   1.660
 1109TIP3    H2 3334   2.102   5.311   1.601
 1110TIP3   OH2 3335   3.559   1.086   2.432
 1110TIP3    H1 3336   3.468   1.100   2.404
 1110TIP3    H2 3337   3.612   1.123   2.361
 1111TIP3   OH2 3338   0.899   3.566   1.264
 1111TIP3    H1 3339   0.916   3.472   1.271
 1111TIP3    H2 3340   0.845   3.587   1.340
 1112TIP3   OH2 3341   0.995   0.914   4.502
 1112TIP3    H1 3342   1.066   0.939   4.443
 1112TIP3    H2 3343   0.915   0.924   4.450
 1113TIP3   OH2 3344   4.484   5.088   2.799
 1113TIP3    H1 3345   4.550   5.019   2.808
 1113TIP3    H2 3346   4.530   5.157   2.750
 1114TIP3   OH2 3347   1.257   5.536   2.617
 1114TIP3    H1 3348   1.308   5.458   2.639
 1114TIP3    H2 3349   1.174   5.525   2.663
 1115TIP3   OH2 3350   3.517   4.145   0.847
 1115TIP3    H1 3351   3.461   4.100   0.911
 1115TIP3    H2 3352   3.603   4.149   0.890
 1116TIP3   OH2 3353   4.716   1.570   2.596
 1116TIP3    H1 3354   4.806   1.537   2.595
 1116TIP3    H2 3355   4.665   1.502   2.550
 1117TIP3   OH2 3356   1.328   0.853   0.278
 1117TIP3    H1 3357   1.250   0.812   0.242
 1117TIP3    H2 3358   1.366   0.901   0.203
 1118TIP3   OH2 3359   0.488   2.109   2.864
 1118TIP3    H1 3360   0.454   2.029   2.902
 1118TIP3    H2 3361   0.480   2.174   2.934
 1119TIP3   OH2 3362   3.239   5.555   3.020
 1119TIP3    H1 3363   3.279   5.529   3.103
 1119TIP3    H2 3364   3.266   5.487   2.958
 1120TIP3   OH2 3365   6.160   5.412   1.642
 1120TIP3    H1 3366   6.072   5.378   1.628
 1120TIP3    H2 3367   6.147   5.499   1.680
 1121TIP3   OH2 3368   3.029   4.330   0.123
 1121TIP3    H1 3369   3.069   4.313   0.209
 1121TIP3    H2 3370   2.973   4.254   0.108
 1122TIP3   OH2 3371   4.137   5.741   1.912
 1122TIP3    H1 3372   4.180   5.765   1.830
 1122TIP3    H2 3373   4.055   5.700   1.886
 1123TIP3   OH2 3374   6.155   4.658   3.495
 1123TIP3    H1 3375   6.250   4.647   3.489
 1123TIP3    H2 3376   6.119   4.579   3.455
 1124TIP3   OH2 3377   3.295   2.446   2.677
 1124TIP3    H1 3378   3.250   2.363   2.664
 1124TIP3    H2 3379   3.382   2.432   2.638
 1125TIP3   OH2 3380   3.955   4.403   0.908
 1125TIP3    H1 3381   3.897   4.460   0.857
 1125TIP3    H2 3382   3.995   4.346   0.843
 1126TIP3   OH2 3383   3.247   4.177   1.938
 1126TIP3    H1 3384   3.160   4.143   1.917
 1126TIP3    H2 3385   3.252   4.260   1.890
 1127TIP3   OH2 3386   4.439   1.093   1.120
 1127TIP3    H1 3387   4.347   1.090   1.147
 1127TIP3    H2 3388   4.459   1.186   1.115
 1128TIP3   OH2 3389   3.177   5.616   4.556
 1128TIP3    H1 3390   3.090   5.637   4.522
 1128TIP3    H2 3391   3.160   5.575   4.641
 1129TIP3   OH2 3392   1.067   1.622   2.101
 1129TIP3    H1 3393   1.028   1.608   2.187
 1129TIP3    H2 3394   0.997   1.600   2.039
 1130TIP3   OH2 3395   2.412   1.516   4.248
 1130TIP3    H1 3396   2.340   1.454   4.232
 1130TIP3    H2 3397   2.396   1.588   4.187
 1131TIP3   OH2 3398   1.759   0.162   3.859
 1131TIP3    H1 3399   1.672   0.171   3.820
 1131TIP3    H2 3400   1.783   0.251   3.884
 1132TIP3   OH2 3401   0.619   0.377   3.292
 1132TIP3    H1 3402   0.683   0.367   3.222
 1132TIP3    H2 3403   0.663   0.433   3.357
 1133TIP3   OH2 3404   5.777   1.934   1.709
 1133TIP3    H1 3405   5.781   1.869   1.639
 1133TIP3    H2 3406   5.796   1.885   1.789
 1134TIP3   OH2 3407   0.782   2.421   4.898
 1134TIP3    H1 3408   0.786   2.333   4.860
 1134TIP3    H2 3409   0.700   2.457   4.864
 1135TIP3   OH2 3410   1.887   2.738   0.555
 1135TIP3    H1 3411   1.860   2.803   0.620
 1135TIP3    H2 3412   1.980   2.755   0.540
 1136TIP3   OH2 3413   4.032   2.565   0.730
 1136TIP3    H1 3414   3.973   2.498   0.765
 1136TIP3    H2 3415   3.988   2.648   0.749
 1137TIP3   OH2 3416   2.324   4.270   1.365
 1137TIP3    H1 3417   2.361   4.328   1.297
 1137TIP3    H2 3418   2.260   4.216   1.318
 1138TIP3   OH2 3419   2.031   5.717   0.780
 1138TIP3    H1 3420   2.062   5.687   0.695
 1138TIP3    H2 3421   2.002   5.637   0.825
 1139TIP3   OH2 3422   6.186   2.497   3.685
 1139TIP3    H1 3423   6.210   2.566   3.748
 1139TIP3    H2 3424   6.118   2.446   3.731
 1140TIP3   OH2 3425   5.225   3.660   0.782
 1140TIP3    H1 3426   5.255   3.744   0.746
 1140TIP3    H2 3427   5.156   3.684   0.844
 1141TIP3   OH2 3428   3.210   0.463   1.067
 1141TIP3    H1 3429   3.141   0.520   1.032
 1141TIP3    H2 3430   3.290   0.494   1.025
 1142TIP3   OH2 3431   5.428   0.947   1.554
 1142TIP3    H1 3432   5.473   0.917   1.632
 1142TIP3    H2 3433   5.419   0.869   1.499
 1143TIP3   OH2 3434   0.437   1.927   0.552
 1143TIP3    H1 3435   0.494   1.953   0.479
 1143TIP3    H2 3436   0.360   1.983   0.542
 1144TIP3   OH2 3437   4.837   3.408   1.929
 1144TIP3    H1 3438   4.910   3.429   1.870
 1144TIP3    H2 3439   4.796   3.332   1.888
 1145TIP3   OH2 3440   1.997   2.173   2.349
 1145TIP3    H1 3441   1.946   2.093   2.362
 1145TIP3    H2 3442   1.947   2.241   2.395
 1146TIP3   OH2 3443   1.467   3.825   1.348
 1146TIP3    H1 3444   1.432   3.753   1.295
 1146TIP3    H2 3445   1.558   3.800   1.365
 1147TIP3   OH2 3446   6.121   1.660   5.055
 1147TIP3    H1 3447   6.116   1.730   4.990
 1147TIP3    H2 3448   6.043   1.607   5.040
 1148TIP3   OH2 3449   5.873   0.980   3.833
 1148TIP3    H1 3450   5.800   1.020   3.785
 1148TIP3    H2 3451   5.950   0.995   3.778
 1149TIP3   OH2 3452   3.100   1.086   3.728
 1149TIP3    H1 3453   3.113   0.996   3.698
 1149TIP3    H2 3454   3.016   1.085   3.773
 1150TIP3   OH2 3455   1.781   2.504   1.372
 1150TIP3    H1 3456   1.777   2.514   1.276
 1150TIP3    H2 3457   1.723   2.431   1.390
 1151TIP3   OH2 3458   5.685   4.083   4.541
 1151TIP3    H1 3459   5.776   4.069   4.513
 1151TIP3    H2 3460   5.632   4.047   4.469
 1152TIP3   OH2 3461   0.463   2.647   5.146
 1152TIP3    H1 3462   0.499   2.615   5.228
 1152TIP3    H2 3463   0.379   2.602   5.138
 1153TIP3   OH2 3464   5.336   0.470   0.933
 1153TIP3    H1 3465   5.384   0.528   0.874
 1153TIP3    H2 3466   5.269   0.525   0.972
 1154TIP3   OH2 3467   1.332   5.684   0.519
 1154TIP3    H1 3468   1.396   5.623   0.555
 1154TIP3    H2 3469   1.383   5.756   0.483
 1155TIP3   OH2 3470   4.494   4.420   1.434
 1155TIP3    H1 3471   4.412   4.381   1.404
 1155TIP3    H2 3472   4.540   4.348   1.478
 1156TIP3   OH2 3473   3.550   0.385   0.723
 1156TIP3    H1 3474   3.612   0.445   0.681
 1156TIP3    H2 3475   3.519   0.329   0.652
 1157TIP3   OH2 3476   6.116   2.181   3.401
 1157TIP3    H1 3477   6.101   2.102   3.453
 1157TIP3    H2 3478   6.118   2.150   3.311
 1158TIP3   OH2 3479   5.372   2.905   2.914
 1158TIP3    H1 3480   5.393   2.837   2.978
 1158TIP3    H2 3481   5.277   2.908   2.913
 1159TIP3   OH2 3482   5.969   1.212   2.055
 1159TIP3    H1 3483   6.059   1.222   2.025
 1159TIP3    H2 3484   5.916   1.240   1.980
 1160TIP3   OH2 3485   1.154   2.025   1.165
 1160TIP3    H1 3486   1.218   2.011   1.096
 1160TIP3    H2 3487   1.151   1.941   1.212
 1161TIP3   OH2 3488   4.132   0.553   3.740
 1161TIP3    H1 3489   4.161   0.567   3.830
 1161TIP3    H2 3490   4.213   0.550   3.689
 1162TIP3   OH2 3491   3.067   2.921   2.191
 1162TIP3    H1 3492   3.014   2.982   2.140
 1162TIP3    H2 3493   3.011   2.844   2.202
 1163TIP3   OH2 3494   4.763   5.116   0.542
 1163TIP3    H1 3495   4.777   5.021   0.546
 1163TIP3    H2 3496   4.671   5.125   0.518
 1164TIP3   OH2 3497   2.527   2.158   1.925
 1164TIP3    H1 3498   2.508   2.069   1.894
 1164TIP3    H2 3499   2.608   2.148   1.976
 1165TIP3   OH2 3500   3.068   1.337   3.840
 1165TIP3    H1 3501   3.099   1.254   3.805
 1165TIP3    H2 3502   2.990   1.358   3.789
 1166TIP3   OH2 3503   4.966   0.392   1.498
 1166TIP3    H1 3504   4.881   0.349   1.499
 1166TIP3    H2 3505   4.992   0.393   1.406
 1167TIP3   OH2 3506   2.813   1.205   4.014
 1167TIP3    H1 3507   2.738   1.246   4.057
 1167TIP3    H2 3508   2.791   1.205   3.921
 1168TIP3   OH2 3509   2.891   4.763   0.988
 1168TIP3    H1 3510   2.920   4.804   1.069
 1168TIP3    H2 3511   2.941   4.807   0.919
 1169TIP3   OH2 3512   3.206   2.870   4.775
 1169TIP3    H1 3513   3.256   2.802   4.821
 1169TIP3    H2 3514   3.215   2.848   4.682
 1170TIP3   OH2 3515   4.507   3.319   3.586
 1170TIP3    H1 3516   4.570   3.350   3.521
 1170TIP3    H2 3517   4.551   3.329   3.670
 1171TIP3   OH2 3518   3.620   2.891   1.182
 1171TIP3    H1 3519   3.703   2.888   1.134
 1171TIP3    H2 3520   3.637   2.841   1.262
 1172TIP3   OH2 3521   2.171   4.571   1.225
 1172TIP3    H1 3522   2.110   4.532   1.288
 1172TIP3    H2 3523   2.119   4.583   1.146
 1173TIP3   OH2 3524   3.217   5.727   0.091
 1173TIP3    H1 3525   3.178   5.785   0.026
 1173TIP3    H2 3526   3.311   5.733   0.077
 1174TIP3   OH2 3527   1.184   3.764   1.694
 1174TIP3    H1 3528   1.221   3.736   1.777
 1174TIP3    H2 3529   1.108   3.708   1.681
 1175TIP3   OH2 3530   2.287   1.631   3.562
 1175TIP3    H1 3531   2.325   1.563   3.619
 1175TIP3    H2 3532   2.220   1.585   3.512
 1176TIP3   OH2 3533   4.962   4.606   4.473
 1176TIP3    H1 3534   5.040   4.564   4.438
 1176TIP3    H2 3535   4.971   4.698   4.450
 1177TIP3   OH2 3536   0.554   0.189   2.777
 1177TIP3    H1 3537   0.607   0.126   2.729
 1177TIP3    H2 3538   0.510   0.240   2.709
 1178TIP3   OH2 3539   4.576   4.500   0.261
 1178TIP3    H1 3540   4.658   4.546   0.242
 1178TIP3    H2 3541   4.518   4.569   0.296
 1179TIP3   OH2 3542   0.013   3.634   4.116
 1179TIP3    H1 3543  -0.027   3.680   4.043
 1179TIP3    H2 3544   0.098   3.606   4.082
 1180TIP3   OH2 3545   3.838   1.843   1.350
 1180TIP3    H1 3546   3.793   1.759   1.345
 1180TIP3    H2 3547   3.779   1.905   1.307
 1181TIP3   OH2 3548   3.862   2.715   4.730
 1181TIP3    H1 3549   3.865   2.625   4.697
 1181TIP3    H2 3550   3.855   2.705   4.825
 1182TIP3   OH2 3551   4.405   0.782   2.350
 1182TIP3    H1 3552   4.402   0.696   2.392
 1182TIP3    H2 3553   4.391   0.843   2.422
 1183TIP3   OH2 3554   2.626   1.597   2.367
 1183TIP3    H1 3555   2.626   1.525   2.430
 1183TIP3    H2 3556   2.614   1.554   2.282
 1184TIP3   OH2 3557   5.972   2.322   3.818
 1184TIP3    H1 3558   5.979   2.228   3.799
 1184TIP3    H2 3559   5.894   2.350   3.769
 1185TIP3   OH2 3560   1.257   3.645   5.015
 1185TIP3    H1 3561   1.260   3.702   4.938
 1185TIP3    H2 3562   1.215   3.697   5.083
 1186TIP3   OH2 3563   0.296   3.317   3.231
 1186TIP3    H1 3564   0.326   3.232   3.199
 1186TIP3    H2 3565   0.210   3.329   3.190
 1187TIP3   OH2 3566   0.301   4.891   1.533
 1187TIP3    H1 3567   0.276   4.983   1.538
 1187TIP3    H2 3568   0.389   4.888   1.570
 1188TIP3   OH2 3569   2.430   4.803   0.817
 1188TIP3    H1 3570   2.421   4.895   0.844
 1188TIP3    H2 3571   2.517   4.778   0.850
 1189TIP3   OH2 3572   2.741   4.042   2.677
 1189TIP3    H1 3573   2.793   4.036   2.597
 1189TIP3    H2 3574   2.684   4.118   2.662
 1190TIP3   OH2 3575   0.942   1.085   4.716
 1190TIP3    H1 3576   0.850   1.108   4.700
 1190TIP3    H2 3577   0.972   1.048   4.633
 1191TIP3   OH2 3578   1.128   0.805   0.109
 1191TIP3    H1 3579   1.061   0.873   0.113
 1191TIP3    H2 3580   1.129   0.777   0.017
 1192TIP3   OH2 3581   5.595   1.223   4.006
 1192TIP3    H1 3582   5.507   1.191   4.024
 1192TIP3    H2 3583   5.610   1.202   3.914
 1193TIP3   OH2 3584   4.818   4.119   4.188
 1193TIP3    H1 3585   4.876   4.141   4.261
 1193TIP3    H2 3586   4.814   4.199   4.136
 1194TIP3   OH2 3587   3.655   3.341   3.797
 1194TIP3    H1 3588   3.722   3.406   3.815
 1194TIP3    H2 3589   3.653   3.286   3.875
 1195TIP3   OH2 3590   6.126   4.146   1.831
 1195TIP3    H1 3591   6.133   4.160   1.926
 1195TIP3    H2 3592   6.056   4.204   1.803
 1196TIP3   OH2 3593   1.159   3.820   4.103
 1196TIP3    H1 3594   1.227   3.795   4.041
 1196TIP3    H2 3595   1.195   3.801   4.189
 1197TIP3   OH2 3596   4.453   3.643   2.171
 1197TIP3    H1 3597   4.403   3.562   2.163
 1197TIP3    H2 3598   4.514   3.641   2.097
 1198TIP3   OH2 3599   1.172   0.256   0.183
 1198TIP3    H1 3600   1.142   0.347   0.184
 1198TIP3    H2 3601   1.194   0.237   0.275
 1199TIP3   OH2 3602   2.832   5.162   2.786
 1199TIP3    H1 3603   2.770   5.090   2.792
 1199TIP3    H2 3604   2.882   5.158   2.867
 1200TIP3   OH2 3605   3.672   5.932   2.819
 1200TIP3    H1 3606   3.645   5.844   2.791
 1200TIP3    H2 3607   3.593   5.971   2.855
 1201TIP3   OH2 3608   1.883   4.615   2.700
 1201TIP3    H1 3609   1.837   4.539   2.736
 1201TIP3    H2 3610   1.817   4.684   2.698
 1202TIP3   OH2 3611   2.367   0.385   0.967
 1202TIP3    H1 3612   2.431   0.315   0.978
 1202TIP3    H2 3613   2.306   0.351   0.901
 1203TIP3   OH2 3614   0.957   2.785   2.566
 1203TIP3    H1 3615   1.048   2.812   2.550
 1203TIP3    H2 3616   0.945   2.709   2.509
 1204TIP3   OH2 3617   0.993   3.504   1.629
 1204TIP3    H1 3618   0.997   3.408   1.627
 1204TIP3    H2 3619   0.911   3.525   1.585
 1205TIP3   OH2 3620   0.102   5.219   3.086
 1205TIP3    H1 3621   0.164   5.262   3.145
 1205TIP3    H2 3622   0.045   5.289   3.056
 1206TIP3   OH2 3623   4.453   2.787   1.734
 1206TIP3    H1 3624   4.488   2.869   1.698
 1206TIP3    H2 3625   4.530   2.729   1.739
 1207TIP3   OH2 3626   6.322   3.378   5.171
 1207TIP3    H1 3627   6.366   3.297   5.197
 1207TIP3    H2 3628   6.374   3.411   5.098
 1208TIP3   OH2 3629   3.341   0.063   3.218
 1208TIP3    H1 3630   3.432   0.067   3.188
 1208TIP3    H2 3631   3.289   0.083   3.141
 1209TIP3   OH2 3632   4.064   1.065   0.582
 1209TIP3    H1 3633   4.060   1.151   0.540
 1209TIP3    H2 3634   4.111   1.081   0.664
 1210TIP3   OH2 3635   1.586   2.096   4.885
 1210TIP3    H1 3636   1.571   2.053   4.800
 1210TIP3    H2 3637   1.551   2.184   4.874
 1211TIP3   OH2 3638   5.577   3.839   3.934
 1211TIP3    H1 3639   5.482   3.842   3.925
 1211TIP3    H2 3640   5.592   3.799   4.020
 1212TIP3   OH2 3641   3.052   5.464   3.911
 1212TIP3    H1 3642   3.076   5.548   3.950
 1212TIP3    H2 3643   3.100   5.399   3.963
 1213TIP3   OH2 3644   5.354   4.912   2.155
 1213TIP3    H1 3645   5.393   4.956   2.230
 1213TIP3    H2 3646   5.373   4.970   2.081
 1214TIP3   OH2 3647   1.470   2.243   4.388
 1214TIP3    H1 3648   1.421   2.172   4.430
 1214TIP3    H2 3649   1.469   2.221   4.295
 1215TIP3   OH2 3650   1.948   3.941   0.931
 1215TIP3    H1 3651   1.916   3.999   1.000
 1215TIP3    H2 3652   1.875   3.881   0.914
 1216TIP3   OH2 3653   0.215   3.764   2.054
 1216TIP3    H1 3654   0.250   3.676   2.058
 1216TIP3    H2 3655   0.181   3.780   2.142
 1217TIP3   OH2 3656   3.480   0.083   3.707
 1217TIP3    H1 3657   3.410   0.046   3.654
 1217TIP3    H2 3658   3.446   0.167   3.738
 1218TIP3   OH2 3659   0.322   1.232   4.168
 1218TIP3    H1 3660   0.287   1.307   4.120
 1218TIP3    H2 3661   0.291   1.244   4.257
 1219TIP3   OH2 3662   1.648   4.926   0.413
 1219TIP3    H1 3663   1.722   4.887   0.367
 1219TIP3    H2 3664   1.572   4.878   0.382
 1220TIP3   OH2 3665   0.828   3.620   0.927
 1220TIP3    H1 3666   0.914   3.578   0.920
 1220TIP3    H2 3667   0.795   3.620   0.837
 1221TIP3   OH2 3668   4.115   0.426   1.068
 1221TIP3    H1 3669   4.087   0.344   1.027
 1221TIP3    H2 3670   4.135   0.402   1.158
 1222TIP3   OH2 3671   0.421   0.981  -0.013
 1222TIP3    H1 3672   0.349   0.962   0.046
 1222TIP3    H2 3673   0.424   1.077  -0.018
 1223TIP3   OH2 3674   4.325   2.284   2.997
 1223TIP3    H1 3675   4.323   2.199   2.953
 1223TIP3    H2 3676   4.402   2.279   3.054
 1224TIP3   OH2 3677   4.964   0.696   4.848
 1224TIP3    H1 3678   5.013   0.727   4.772
 1224TIP3    H2 3679   4.974   0.766   4.913
 1225TIP3   OH2 3680   6.189   2.274   0.376
 1225TIP3    H1 3681   6.138   2.339   0.423
 1225TIP3    H2 3682   6.126   2.205   0.353
 1226TIP3   OH2 3683   4.589   5.114   4.989
 1226TIP3    H1 3684   4.514   5.056   4.973
 1226TIP3    H2 3685   4.570   5.193   4.938
 1227TIP3   OH2 3686   5.496   3.612   1.147
 1227TIP3    H1 3687   5.442   3.682   1.110
 1227TIP3    H2 3688   5.583   3.652   1.156
 1228TIP3   OH2 3689   5.169   2.332   0.070
 1228TIP3    H1 3690   5.232   2.389   0.114
 1228TIP3    H2 3691   5.224   2.267   0.025
 1229TIP3   OH2 3692   2.615   3.236   4.990
 1229TIP3    H1 3693   2.545   3.269   4.934
 1229TIP3    H2 3694   2.627   3.146   4.961
 1230TIP3   OH2 3695   2.611   0.724   1.913
 1230TIP3    H1 3696   2.683   0.739   1.852
 1230TIP3    H2 3697   2.640   0.766   1.994
 1231TIP3   OH2 3698   2.833   0.501   2.401
 1231TIP3    H1 3699   2.925   0.477   2.404
 1231TIP3    H2 3700   2.786   0.418   2.410
 1232TIP3   OH2 3701   3.924   4.181   3.895
 1232TIP3    H1 3702   3.926   4.275   3.875
 1232TIP3    H2 3703   3.850   4.148   3.845
 1233TIP3   OH2 3704   5.705   5.580   4.288
 1233TIP3    H1 3705   5.646   5.641   4.332
 1233TIP3    H2 3706   5.782   5.576   4.344
 1234TIP3   OH2 3707   0.729   5.482   1.578
 1234TIP3    H1 3708   0.810   5.437   1.602
 1234TIP3    H2 3709   0.691   5.509   1.662
 1235TIP3   OH2 3710   1.268   2.442   0.910
 1235TIP3    H1 3711   1.282   2.366   0.854
 1235TIP3    H2 3712   1.355   2.467   0.940
 1236TIP3   OH2 3713   4.689   4.893   0.266
 1236TIP3    H1 3714   4.617   4.843   0.304
 1236TIP3    H2 3715   4.652   4.931   0.186
 1237TIP3   OH2 3716   3.206   0.130   4.841
 1237TIP3    H1 3717   3.224   0.072   4.915
 1237TIP3    H2 3718   3.286   0.182   4.833
 1238TIP3   OH2 3719   5.864   2.155   1.936
 1238TIP3    H1 3720   5.948   2.164   1.890
 1238TIP3    H2 3721   5.870   2.216   2.009
 1239TIP3   OH2 3722   0.721   2.295   0.690
 1239TIP3    H1 3723   0.695   2.376   0.733
 1239TIP3    H2 3724   0.724   2.316   0.597
 1240TIP3   OH2 3725   2.920   0.207   1.188
 1240TIP3    H1 3726   2.854   0.142   1.212
 1240TIP3    H2 3727   2.995   0.188   1.244
 1241TIP3   OH2 3728   3.408   5.874   4.052
 1241TIP3    H1 3729   3.334   5.814   4.045
 1241TIP3    H2 3730   3.457   5.861   3.971
 1242TIP3   OH2 3731   0.156   1.762   2.720
 1242TIP3    H1 3732   0.133   1.704   2.793
 1242TIP3    H2 3733   0.190   1.703   2.652
 1243TIP3   OH2 3734   5.941   5.804   3.217
 1243TIP3    H1 3735   5.983   5.877   3.173
 1243TIP3    H2 3736   5.857   5.794   3.172
 1244TIP3   OH2 3737   3.876   0.628   3.585
 1244TIP3    H1 3738   3.898   0.557   3.525
 1244TIP3    H2 3739   3.934   0.617   3.660
 1245TIP3   OH2 3740   0.813   3.199   0.392
 1245TIP3    H1 3741   0.803   3.173   0.300
 1245TIP3    H2 3742   0.871   3.133   0.430
 1246TIP3   OH2 3743   0.081   0.232   2.314
 1246TIP3    H1 3744   0.123   0.301   2.263
 1246TIP3    H2 3745   0.011   0.199   2.258
 1247TIP3   OH2 3746   4.421   3.917   0.438
 1247TIP3    H1 3747   4.446   3.863   0.513
 1247TIP3    H2 3748   4.499   3.918   0.383
 1248TIP3   OH2 3749   0.391   5.204   1.799
 1248TIP3    H1 3750   0.431   5.164   1.876
 1248TIP3    H2 3751   0.449   5.181   1.727
 1249TIP3   OH2 3752   5.701   3.904   2.490
 1249TIP3    H1 3753   5.770   3.939   2.434
 1249TIP3    H2 3754   5.630   3.967   2.483
 1250TIP3   OH2 3755   2.464   2.810   0.043
 1250TIP3    H1 3756   2.522   2.744   0.004
 1250TIP3    H2 3757   2.507   2.893   0.024
 1251TIP3   OH2 3758   0.230   1.066   1.171
 1251TIP3    H1 3759   0.249   1.027   1.256
 1251TIP3    H2 3760   0.149   1.115   1.185
 1252TIP3   OH2 3761   1.101   0.278   1.541
 1252TIP3    H1 3762   1.016   0.283   1.585
 1252TIP3    H2 3763   1.090   0.209   1.476
 1253TIP3   OH2 3764   4.923   2.465   2.843
 1253TIP3    H1 3765   4.831   2.490   2.840
 1253TIP3    H2 3766   4.940   2.447   2.935
 1254TIP3   OH2 3767   5.839   4.936   1.032
 1254TIP3    H1 3768   5.884   4.905   1.111
 1254TIP3    H2 3769   5.760   4.980   1.065
 1255TIP3   OH2 3770   5.804   2.762   2.060
 1255TIP3    H1 3771   5.869   2.747   1.991
 1255TIP3    H2 3772   5.727   2.794   2.013
 1256TIP3   OH2 3773   4.224   1.844   4.855
 1256TIP3    H1 3774   4.258   1.764   4.896
 1256TIP3    H2 3775   4.172   1.813   4.781
 1257TIP3   OH2 3776   2.620   4.423   1.327
 1257TIP3    H1 3777   2.552   4.383   1.382
 1257TIP3    H2 3778   2.574   4.448   1.247
 1258TIP3   OH2 3779   3.173   3.382   5.079
 1258TIP3    H1 3780   3.247   3.425   5.036
 1258TIP3    H2 3781   3.200   3.290   5.086
 1259TIP3   OH2 3782   5.632   5.320   0.766
 1259TIP3    H1 3783   5.697   5.251   0.757
 1259TIP3    H2 3784   5.552   5.283   0.729
 1260TIP3   OH2 3785   5.770   3.833   3.297
 1260TIP3    H1 3786   5.708   3.860   3.230
 1260TIP3    H2 3787   5.825   3.767   3.255
 1261TIP3   OH2 3788   1.957   4.374   3.059
 1261TIP3    H1 3789   1.906   4.439   3.106
 1261TIP3    H2 3790   2.009   4.331   3.127
 1262TIP3   OH2 3791   0.387   3.356   3.779
 1262TIP3    H1 3792   0.371   3.341   3.686
 1262TIP3    H2 3793   0.454   3.292   3.803
 1263TIP3   OH2 3794   2.019   2.583   2.513
 1263TIP3    H1 3795   1.944   2.538   2.553
 1263TIP3    H2 3796   2.012   2.563   2.419
 1264TIP3   OH2 3797   3.659   5.076   4.914
 1264TIP3    H1 3798   3.612   5.030   4.985
 1264TIP3    H2 3799   3.693   5.155   4.956
 1265TIP3   OH2 3800   3.529   5.539   5.058
 1265TIP3    H1 3801   3.563   5.606   5.118
 1265TIP3    H2 3802   3.543   5.577   4.971
 1266TIP3   OH2 3803   4.879   2.238   1.095
 1266TIP3    H1 3804   4.873   2.328   1.062
 1266TIP3    H2 3805   4.900   2.185   1.018
 1267TIP3   OH2 3806   0.964   4.572   0.108
 1267TIP3    H1 3807   1.023   4.510   0.152
 1267TIP3    H2 3808   0.956   4.644   0.170
 1268TIP3   OH2 3809   1.276   5.997   2.462
 1268TIP3    H1 3810   1.286   5.902   2.466
 1268TIP3    H2 3811   1.363   6.029   2.440
 1269TIP3   OH2 3812   1.620   0.855   2.038
 1269TIP3    H1 3813   1.668   0.933   2.062
 1269TIP3    H2 3814   1.620   0.855   1.942
 1270TIP3   OH2 3815   0.959   3.017   4.785
 1270TIP3    H1 3816   0.967   2.995   4.692
 1270TIP3    H2 3817   0.996   2.942   4.831
 1271TIP3   OH2 3818   4.524   3.032   4.516
 1271TIP3    H1 3819   4.545   2.946   4.480
 1271TIP3    H2 3820   4.456   3.015   4.582
 1272TIP3   OH2 3821   2.972   3.501   4.366
 1272TIP3    H1 3822   3.010   3.416   4.388
 1272TIP3    H2 3823   2.894   3.480   4.314
 1273TIP3   OH2 3824   3.696   3.540   3.015
 1273TIP3    H1 3825   3.744   3.613   3.055
 1273TIP3    H2 3826   3.610   3.542   3.057
 1274TIP3   OH2 3827   4.290   5.422   4.370
 1274TIP3    H1 3828   4.338   5.491   4.417
 1274TIP3    H2 3829   4.198   5.440   4.388
 1275TIP3   OH2 3830   2.546   2.701   1.394
 1275TIP3    H1 3831   2.609   2.773   1.386
 1275TIP3    H2 3832   2.580   2.647   1.465
 1276TIP3   OH2 3833   4.418   3.271   4.639
 1276TIP3    H1 3834   4.448   3.216   4.566
 1276TIP3    H2 3835   4.386   3.208   4.704
 1277TIP3   OH2 3836   0.573   4.161   1.324
 1277TIP3    H1 3837   0.579   4.150   1.418
 1277TIP3    H2 3838   0.664   4.168   1.295
 1278TIP3   OH2 3839   2.944   2.331   1.894
 1278TIP3    H1 3840   2.858   2.293   1.879
 1278TIP3    H2 3841   2.955   2.395   1.823
 1279TIP3   OH2 3842   3.603   3.546   0.386
 1279TIP3    H1 3843   3.618   3.452   0.371
 1279TIP3    H2 3844   3.556   3.550   0.469
 1280TIP3   OH2 3845   1.892   4.636   4.302
 1280TIP3    H1 3846   1.820   4.576   4.285
 1280TIP3    H2 3847   1.862   4.691   4.375
 1281TIP3   OH2 3848   1.613   1.879   1.212
 1281TIP3    H1 3849   1.594   1.797   1.258
 1281TIP3    H2 3850   1.528   1.910   1.182
 1282TIP3   OH2 3851   2.137   1.542   2.419
 1282TIP3    H1 3852   2.168   1.498   2.339
 1282TIP3    H2 3853   2.042   1.547   2.408
 1283TIP3   OH2 3854   4.927   5.420   4.732
 1283TIP3    H1 3855   4.985   5.475   4.681
 1283TIP3    H2 3856   4.946   5.444   4.823
 1284TIP3   OH2 3857   5.623   2.804   1.685
 1284TIP3    H1 3858   5.628   2.709   1.690
 1284TIP3    H2 3859   5.549   2.822   1.628
 1285TIP3   OH2 3860   1.564   1.499   3.928
 1285TIP3    H1 3861   1.577   1.591   3.953
 1285TIP3    H2 3862   1.651   1.467   3.905
 1286TIP3   OH2 3863   2.053   0.160   0.204
 1286TIP3    H1 3864   1.982   0.180   0.143
 1286TIP3    H2 3865   2.118   0.114   0.152
 1287TIP3   OH2 3866   0.658   0.913   4.776
 1287TIP3    H1 3867   0.580   0.944   4.732
 1287TIP3    H2 3868   0.686   0.837   4.725
 1288TIP3   OH2 3869   3.869   5.616   1.299
 1288TIP3    H1 3870   3.853   5.709   1.309
 1288TIP3    H2 3871   3.960   5.604   1.324
 1289TIP3   OH2 3872   4.662   4.888   4.515
 1289TIP3    H1 3873   4.683   4.827   4.445
 1289TIP3    H2 3874   4.742   4.895   4.567
 1290TIP3   OH2 3875   6.270   5.195   0.627
 1290TIP3    H1 3876   6.203   5.182   0.560
 1290TIP3    H2 3877   6.289   5.289   0.623
 1291TIP3   OH2 3878   4.019   0.192   0.904
 1291TIP3    H1 3879   4.042   0.188   0.811
 1291TIP3    H2 3880   4.073   0.126   0.946
 1292TIP3   OH2 3881   3.965   4.072   1.601
 1292TIP3    H1 3882   3.943   4.027   1.682
 1292TIP3    H2 3883   3.962   4.165   1.623
 1293TIP3   OH2 3884   3.587   5.877   2.222
 1293TIP3    H1 3885   3.663   5.934   2.213
 1293TIP3    H2 3886   3.555   5.893   2.311
 1294TIP3   OH2 3887   2.041   1.044   4.694
 1294TIP3    H1 3888   2.075   1.015   4.779
 1294TIP3    H2 3889   2.087   0.988   4.631
 1295TIP3   OH2 3890   3.791   2.090   0.505
 1295TIP3    H1 3891   3.835   2.071   0.422
 1295TIP3    H2 3892   3.833   2.032   0.569
 1296TIP3   OH2 3893   6.254   4.067   2.080
 1296TIP3    H1 3894   6.343   4.073   2.044
 1296TIP3    H2 3895   6.237   4.153   2.118
 1297TIP3   OH2 3896   5.760   2.222   5.113
 1297TIP3    H1 3897   5.846   2.262   5.100
 1297TIP3    H2 3898   5.740   2.237   5.205
 1298TIP3   OH2 3899   0.279   3.366   4.686
 1298TIP3    H1 3900   0.354   3.308   4.680
 1298TIP3    H2 3901   0.214   3.328   4.626
 1299TIP3   OH2 3902   1.647   4.106   4.176
 1299TIP3    H1 3903   1.692   4.174   4.226
 1299TIP3    H2 3904   1.579   4.153   4.127
 1300TIP3   OH2 3905   5.251   3.122   0.315
 1300TIP3    H1 3906   5.208   3.124   0.400
 1300TIP3    H2 3907   5.234   3.209   0.277
 1301TIP3   OH2 3908   3.134   4.281   2.735
 1301TIP3    H1 3909   3.091   4.320   2.659
 1301TIP3    H2 3910   3.225   4.269   2.707
 1302TIP3   OH2 3911   3.139   5.196   0.051
 1302TIP3    H1 3912   3.200   5.270   0.055
 1302TIP3    H2 3913   3.113   5.192  -0.041
 1303TIP3   OH2 3914   0.605   5.713   3.027
 1303TIP3    H1 3915   0.631   5.634   3.073
 1303TIP3    H2 3916   0.510   5.717   3.038
 1304TIP3   OH2 3917   1.798   2.702   2.201
 1304TIP3    H1 3918   1.717   2.746   2.226
 1304TIP3    H2 3919   1.782   2.609   2.218
 1305TIP3   OH2 3920   0.729   2.451   3.683
 1305TIP3    H1 3921   0.646   2.437   3.730
 1305TIP3    H2 3922   0.763   2.534   3.717
 1306TIP3   OH2 3923   2.371   4.356   4.051
 1306TIP3    H1 3924   2.314   4.395   3.984
 1306TIP3    H2 3925   2.331   4.271   4.070
 1307TIP3   OH2 3926   1.692   2.001   1.458
 1307TIP3    H1 3927   1.608   1.995   1.504
 1307TIP3    H2 3928   1.676   1.960   1.373
 1308TIP3   OH2 3929   6.134   4.952   3.249
 1308TIP3    H1 3930   6.228   4.942   3.239
 1308TIP3    H2 3931   6.101   4.965   3.160
 1309TIP3   OH2 3932   4.528   1.779   1.296
 1309TIP3    H1 3933   4.482   1.840   1.353
 1309TIP3    H2 3934   4.477   1.698   1.302
 1310TIP3   OH2 3935   2.363   3.994   1.527
 1310TIP3    H1 3936   2.364   4.047   1.447
 1310TIP3    H2 3937   2.392   3.907   1.499
 1311TIP3   OH2 3938   1.261   3.649   0.597
 1311TIP3    H1 3939   1.298   3.588   0.534
 1311TIP3    H2 3940   1.336   3.695   0.634
 1312TIP3   OH2 3941   2.513   2.466   1.953
 1312TIP3    H1 3942   2.469   2.548   1.929
 1312TIP3    H2 3943   2.593   2.494   1.997
 1313TIP3   OH2 3944   6.186   5.657   2.701
 1313TIP3    H1 3945   6.257   5.593   2.715
 1313TIP3    H2 3946   6.230   5.733   2.663
 1314TIP3   OH2 3947   0.352   4.526   2.591
 1314TIP3    H1 3948   0.343   4.467   2.665
 1314TIP3    H2 3949   0.362   4.469   2.515
 1315TIP3   OH2 3950   5.129   2.627   5.119
 1315TIP3    H1 3951   5.162   2.715   5.137
 1315TIP3    H2 3952   5.068   2.638   5.046
 1316TIP3   OH2 3953   0.286   4.745   4.502
 1316TIP3    H1 3954   0.230   4.798   4.445
 1316TIP3    H2 3955   0.225   4.688   4.549
 1317TIP3   OH2 3956   0.287   1.506   3.493
 1317TIP3    H1 3957   0.376   1.507   3.527
 1317TIP3    H2 3958   0.297   1.487   3.399
 1318TIP3   OH2 3959   3.070   2.869   0.022
 1318TIP3    H1 3960   2.980   2.876   0.055
 1318TIP3    H2 3961   3.116   2.816   0.087
 1319TIP3   OH2 3962   1.812   2.429   1.088
 1319TIP3    H1 3963   1.727   2.384   1.090
 1319TIP3    H2 3964   1.827   2.447   0.995
 1320TIP3   OH2 3965   4.753   2.557   3.078
 1320TIP3    H1 3966   4.826   2.616   3.063
 1320TIP3    H2 3967   4.681   2.594   3.027
 1321TIP3   OH2 3968   1.018   2.287   0.056
 1321TIP3    H1 3969   1.073   2.320  -0.015
 1321TIP3    H2 3970   0.987   2.202   0.025
 1322TIP3   OH2 3971   5.167   1.123   1.319
 1322TIP3    H1 3972   5.228   1.124   1.245
 1322TIP3    H2 3973   5.182   1.207   1.363
 1323TIP3   OH2 3974   3.782   1.771   0.939
 1323TIP3    H1 3975   3.714   1.735   0.882
 1323TIP3    H2 3976   3.771   1.723   1.021
 1324TIP3   OH2 3977   4.886   0.437   4.922
 1324TIP3    H1 3978   4.883   0.386   5.003
 1324TIP3    H2 3979   4.932   0.517   4.946
 1325TIP3   OH2 3980   5.015   3.476   2.326
 1325TIP3    H1 3981   4.926   3.462   2.293
 1325TIP3    H2 3982   5.058   3.530   2.260
 1326TIP3   OH2 3983   5.066   1.825   3.746
 1326TIP3    H1 3984   5.161   1.837   3.754
 1326TIP3    H2 3985   5.032   1.912   3.728
 1327TIP3   OH2 3986   1.457   1.002   5.095
 1327TIP3    H1 3987   1.411   1.078   5.061
 1327TIP3    H2 3988   1.438   1.002   5.189
 1328TIP3   OH2 3989   2.860   5.897   2.798
 1328TIP3    H1 3990   2.781   5.866   2.753
 1328TIP3    H2 3991   2.900   5.818   2.833
 1329TIP3   OH2 3992   0.280   1.949   2.469
 1329TIP3    H1 3993   0.285   1.856   2.449
 1329TIP3    H2 3994   0.214   1.983   2.409
 1330TIP3   OH2 3995   2.674   1.322   2.934
 1330TIP3    H1 3996   2.602   1.300   2.993
 1330TIP3    H2 3997   2.640   1.394   2.881
 1331TIP3   OH2 3998   1.470   2.969   2.587
 1331TIP3    H1 3999   1.535   3.039   2.594
 1331TIP3    H2 4000   1.503   2.912   2.518
 1332TIP3   OH2 4001   0.223   1.405   4.612
 1332TIP3    H1 4002   0.139   1.452   4.607
 1332TIP3    H2 4003   0.280   1.453   4.551
 1333TIP3   OH2 4004   0.344   2.867   1.160
 1333TIP3    H1 4005   0.432   2.894   1.185
 1333TIP3    H2 4006   0.321   2.799   1.223
 1334TIP3   OH2 4007   3.837   5.002   1.892
 1334TIP3    H1 4008   3.818   5.009   1.799
 1334TIP3    H2 4009   3.927   4.971   1.897
 1335TIP3   OH2 4010   5.767   3.835   0.608
 1335TIP3    H1 4011   5.716   3.881   0.542
 1335TIP3    H2 4012   5.701   3.793   0.664
 1336TIP3   OH2 4013   3.620   1.927   0.171
 1336TIP3    H1 4014   3.579   1.980   0.241
 1336TIP3    H2 4015   3.547   1.903   0.114
 1337TIP3   OH2 4016   5.986   0.608   0.256
 1337TIP3    H1 4017   6.048   0.650   0.316
 1337TIP3    H2 4018   5.981   0.667   0.181
 1338TIP3   OH2 4019   0.076   2.564   4.704
 1338TIP3    H1 4020   0.027   2.623   4.647
 1338TIP3    H2 4021   0.010   2.525   4.761
 1339TIP3   OH2 4022   1.064   1.154   4.109
 1339TIP3    H1 4023   0.979   1.151   4.154
 1339TIP3    H2 4024   1.079   1.064   4.080
 1340TIP3   OH2 4025   2.065   1.551   4.678
 1340TIP3    H1 4026   2.082   1.457   4.670
 1340TIP3    H2 4027   2.081   1.585   4.590
 1341TIP3   OH2 4028   5.169   5.766   1.000
 1341TIP3    H1 4029   5.137   5.697   0.943
 1341TIP3    H2 4030   5.123   5.752   1.083
 1342TIP3   OH2 4031   0.515   0.477   2.968
 1342TIP3    H1 4032   0.547   0.457   2.880
 1342TIP3    H2 4033   0.594   0.479   3.022
 1343TIP3   OH2 4034   0.961   2.955   1.607
 1343TIP3    H1 4035   1.011   3.030   1.639
 1343TIP3    H2 4036   1.023   2.908   1.552
 1344TIP3   OH2 4037   3.409   1.389   3.522
 1344TIP3    H1 4038   3.427   1.321   3.587
 1344TIP3    H2 4039   3.496   1.420   3.495
 1345TIP3   OH2 4040   1.868   1.514   2.274
 1345TIP3    H1 4041   1.928   1.557   2.212
 1345TIP3    H2 4042   1.789   1.568   2.272
 1346TIP3   OH2 4043   5.544   2.941   4.688
 1346TIP3    H1 4044   5.532   2.859   4.641
 1346TIP3    H2 4045   5.470   2.944   4.749
 1347TIP3   OH2 4046   4.718   5.299   0.280
 1347TIP3    H1 4047   4.731   5.252   0.362
 1347TIP3    H2 4048   4.748   5.239   0.212
 1348TIP3   OH2 4049   0.851   2.400   2.556
 1348TIP3    H1 4050   0.925   2.341   2.572
 1348TIP3    H2 4051   0.809   2.365   2.477
 1349TIP3   OH2 4052   4.417   0.033   1.794
 1349TIP3    H1 4053   4.451   0.004   1.710
 1349TIP3    H2 4054   4.459  -0.024   1.858
 1350TIP3   OH2 4055   1.630   0.259   4.986
 1350TIP3    H1 4056   1.693   0.194   4.955
 1350TIP3    H2 4057   1.684   0.326   5.028
 1351TIP3   OH2 4058   5.873   0.930   4.657
 1351TIP3    H1 4059   5.895   0.930   4.564
 1351TIP3    H2 4060   5.917   0.853   4.693
 1352TIP3   OH2 4061   0.612   5.722   4.274
 1352TIP3    H1 4062   0.586   5.630   4.272
 1352TIP3    H2 4063   0.615   5.744   4.367
 1353TIP3   OH2 4064   2.744   0.350   3.720
 1353TIP3    H1 4065   2.741   0.438   3.757
 1353TIP3    H2 4066   2.836   0.324   3.726
 1354TIP3   OH2 4067   0.118   4.523   2.882
 1354TIP3    H1 4068   0.033   4.567   2.889
 1354TIP3    H2 4069   0.120   4.488   2.793
 1355TIP3   OH2 4070   0.338   5.468   1.723
 1355TIP3    H1 4071   0.289   5.470   1.641
 1355TIP3    H2 4072   0.358   5.375   1.737
 1356TIP3   OH2 4073   1.792   2.342   2.489
 1356TIP3    H1 4074   1.727   2.384   2.434
 1356TIP3    H2 4075   1.745   2.268   2.529
 1357TIP3   OH2 4076   3.490   1.671   4.986
 1357TIP3    H1 4077   3.510   1.653   4.895
 1357TIP3    H2 4078   3.568   1.646   5.035
 1358TIP3   OH2 4079   0.060   3.162   3.807
 1358TIP3    H1 4080   0.139   3.181   3.857
 1358TIP3    H2 4081  -0.009   3.154   3.874
 1359TIP3   OH2 4082   0.309   1.611   1.461
 1359TIP3    H1 4083   0.220   1.586   1.488
 1359TIP3    H2 4084   0.306   1.707   1.456
 1360TIP3   OH2 4085   4.711   3.276   0.013
 1360TIP3    H1 4086   4.739   3.205  -0.045
 1360TIP3    H2 4087   4.620   3.255   0.035
 1361TIP3   OH2 4088   4.102   2.358   4.138
 1361TIP3    H1 4089   4.079   2.266   4.150
 1361TIP3    H2 4090   4.189   2.367   4.179
 1362TIP3   OH2 4091   0.575   3.775   4.504
 1362TIP3    H1 4092   0.540   3.686   4.492
 1362TIP3    H2 4093   0.636   3.786   4.431
 1363TIP3   OH2 4094   5.581   0.265   1.850
 1363TIP3    H1 4095   5.611   0.350   1.882
 1363TIP3    H2 4096   5.539   0.283   1.766
 1364TIP3   OH2 4097   4.174   1.566   5.130
 1364TIP3    H1 4098   4.171   1.489   5.187
 1364TIP3    H2 4099   4.087   1.606   5.139
 1365TIP3   OH2 4100   5.445   0.257   1.107
 1365TIP3    H1 4101   5.375   0.317   1.080
 1365TIP3    H2 4102   5.455   0.272   1.201
 1366TIP3   OH2 4103   1.939   3.273   4.197
 1366TIP3    H1 4104   2.028   3.243   4.183
 1366TIP3    H2 4105   1.890   3.240   4.122
 1367TIP3   OH2 4106   5.995   4.489   2.867
 1367TIP3    H1 4107   6.050   4.530   2.933
 1367TIP3    H2 4108   5.906   4.503   2.898
 1368TIP3   OH2 4109   4.138   5.108   4.058
 1368TIP3    H1 4110   4.232   5.124   4.046
 1368TIP3    H2 4111   4.131   5.012   4.058
 1369TIP3   OH2 4112   2.680   3.901   3.153
 1369TIP3    H1 4113   2.594   3.935   3.176
 1369TIP3    H2 4114   2.717   3.968   3.095
 1370TIP3   OH2 4115   0.827   1.809   1.295
 1370TIP3    H1 4116   0.856   1.766   1.215
 1370TIP3    H2 4117   0.756   1.753   1.328
 1371TIP3   OH2 4118   2.321   3.081   1.109
 1371TIP3    H1 4119   2.287   3.169   1.125
 1371TIP3    H2 4120   2.359   3.054   1.192
 1372TIP3   OH2 4121   5.675   0.461   1.455
 1372TIP3    H1 4122   5.742   0.400   1.425
 1372TIP3    H2 4123   5.725   0.532   1.497
 1373TIP3   OH2 4124   0.942   1.486   3.381
 1373TIP3    H1 4125   0.870   1.550   3.375
 1373TIP3    H2 4126   0.997   1.505   3.305
 1374TIP3   OH2 4127   2.940   2.003   4.638
 1374TIP3    H1 4128   2.965   1.927   4.691
 1374TIP3    H2 4129   3.019   2.024   4.588
 1375TIP3   OH2 4130   3.776   0.897   3.953
 1375TIP3    H1 4131   3.711   0.967   3.956
 1375TIP3    H2 4132   3.808   0.889   4.043
 1376TIP3   OH2 4133   3.093   2.217   1.218
 1376TIP3    H1 4134   3.099   2.311   1.198
 1376TIP3    H2 4135   3.094   2.175   1.132
 1377TIP3   OH2 4136   0.479   1.281   4.856
 1377TIP3    H1 4137   0.560   1.241   4.885
 1377TIP3    H2 4138   0.506   1.364   4.815
 1378TIP3   OH2 4139   4.684   4.459   0.867
 1378TIP3    H1 4140   4.590   4.451   0.886
 1378TIP3    H2 4141   4.706   4.378   0.820
 1379TIP3   OH2 4142   0.541   3.354   0.863
 1379TIP3    H1 4143   0.476   3.314   0.920
 1379TIP3    H2 4144   0.625   3.330   0.901
 1380TIP3   OH2 4145   4.277   5.941   0.121
 1380TIP3    H1 4146   4.185   5.968   0.119
 1380TIP3    H2 4147   4.275   5.852   0.156
 1381TIP3   OH2 4148   0.412   1.866   4.028
 1381TIP3    H1 4149   0.450   1.797   4.082
 1381TIP3    H2 4150   0.363   1.819   3.960
 1382TIP3   OH2 4151   4.298   3.411   2.161
 1382TIP3    H1 4152   4.234   3.389   2.229
 1382TIP3    H2 4153   4.249   3.404   2.079
 1383TIP3   OH2 4154   0.590   4.087   2.775
 1383TIP3    H1 4155   0.686   4.095   2.780
 1383TIP3    H2 4156   0.561   4.095   2.866
 1384TIP3   OH2 4157   3.069   0.653   2.926
 1384TIP3    H1 4158   3.054   0.734   2.877
 1384TIP3    H2 4159   3.068   0.584   2.859
 1385TIP3   OH2 4160   5.499   0.855   1.053
 1385TIP3    H1 4161   5.565   0.832   0.987
 1385TIP3    H2 4162   5.549   0.897   1.123
 1386TIP3   OH2 4163   5.688   0.894   0.376
 1386TIP3    H1 4164   5.711   0.972   0.426
 1386TIP3    H2 4165   5.767   0.841   0.377
 1387TIP3   OH2 4166   2.918   2.251   1.436
 1387TIP3    H1 4167   2.912   2.168   1.484
 1387TIP3    H2 4168   2.993   2.240   1.377
 1388TIP3   OH2 4169   1.314   0.671   4.576
 1388TIP3    H1 4170   1.362   0.647   4.496
 1388TIP3    H2 4171   1.338   0.763   4.590
 1389TIP3   OH2 4172   3.182   0.849   3.615
 1389TIP3    H1 4173   3.155   0.784   3.550
 1389TIP3    H2 4174   3.262   0.812   3.653
 1390TIP3   OH2 4175   3.348   4.078   1.700
 1390TIP3    H1 4176   3.363   4.172   1.708
 1390TIP3    H2 4177   3.323   4.050   1.788
 1391TIP3   OH2 4178   3.142   3.559   1.019
 1391TIP3    H1 4179   3.153   3.484   0.962
 1391TIP3    H2 4180   3.231   3.584   1.044
 1392TIP3   OH2 4181   2.589   2.186   2.814
 1392TIP3    H1 4182   2.655   2.215   2.751
 1392TIP3    H2 4183   2.629   2.110   2.858
 1393TIP3   OH2 4184   3.355   2.711   0.040
 1393TIP3    H1 4185   3.277   2.661   0.015
 1393TIP3    H2 4186   3.390   2.664   0.116
 1394TIP3   OH2 4187   2.779   4.336   1.652
 1394TIP3    H1 4188   2.712   4.270   1.637
 1394TIP3    H2 4189   2.737   4.419   1.631
 1395TIP3   OH2 4190   4.229   1.975   2.073
 1395TIP3    H1 4191   4.257   1.998   2.161
 1395TIP3    H2 4192   4.307   1.991   2.018
 1396TIP3   OH2 4193   5.400   2.490   0.162
 1396TIP3    H1 4194   5.416   2.555   0.231
 1396TIP3    H2 4195   5.423   2.535   0.081
 1397TIP3   OH2 4196   0.390   0.903   2.866
 1397TIP3    H1 4197   0.377   0.862   2.951
 1397TIP3    H2 4198   0.357   0.839   2.803
 1398TIP3   OH2 4199   2.053   1.603   0.214
 1398TIP3    H1 4200   2.056   1.662   0.138
 1398TIP3    H2 4201   2.129   1.546   0.202
 1399TIP3   OH2 4202   5.696   0.469   3.647
 1399TIP3    H1 4203   5.645   0.514   3.580
 1399TIP3    H2 4204   5.632   0.415   3.694
 1400TIP3   OH2 4205   4.652   2.356   2.874
 1400TIP3    H1 4206   4.558   2.363   2.890
 1400TIP3    H2 4207   4.691   2.355   2.962
 1401TIP3   OH2 4208   1.682   5.455   4.254
 1401TIP3    H1 4209   1.638   5.537   4.275
 1401TIP3    H2 4210   1.764   5.482   4.213
 1402TIP3   OH2 4211   5.388   5.737   2.528
 1402TIP3    H1 4212   5.323   5.777   2.470
 1402TIP3    H2 4213   5.470   5.745   2.481
 1403TIP3   OH2 4214   1.750   5.489   1.675
 1403TIP3    H1 4215   1.797   5.563   1.713
 1403TIP3    H2 4216   1.665   5.526   1.648
 1404TIP3   OH2 4217   3.185   5.859   4.978
 1404TIP3    H1 4218   3.121   5.839   4.910
 1404TIP3    H2 4219   3.148   5.820   5.058
 1405TIP3   OH2 4220   0.405   4.824   0.019
 1405TIP3    H1 4221   0.390   4.903   0.071
 1405TIP3    H2 4222   0.410   4.855  -0.071
 1406TIP3   OH2 4223   5.243   1.416   4.823
 1406TIP3    H1 4224   5.199   1.455   4.900
 1406TIP3    H2 4225   5.179   1.427   4.752
 1407TIP3   OH2 4226   2.458   1.712   4.056
 1407TIP3    H1 4227   2.553   1.707   4.064
 1407TIP3    H2 4228   2.440   1.805   4.044
 1408TIP3   OH2 4229   4.169   1.964   1.101
 1408TIP3    H1 4230   4.224   1.930   1.171
 1408TIP3    H2 4231   4.190   2.057   1.096
 1409TIP3   OH2 4232   3.246   5.028   2.146
 1409TIP3    H1 4233   3.285   5.039   2.059
 1409TIP3    H2 4234   3.169   5.084   2.145
 1410TIP3   OH2 4235   2.534   3.644   3.056
 1410TIP3    H1 4236   2.605   3.708   3.052
 1410TIP3    H2 4237   2.472   3.681   3.118
 1411TIP3   OH2 4238   2.446   1.330   4.603
 1411TIP3    H1 4239   2.535   1.302   4.626
 1411TIP3    H2 4240   2.458   1.413   4.555
 1412TIP3   OH2 4241   1.301   3.669   4.646
 1412TIP3    H1 4242   1.290   3.716   4.729
 1412TIP3    H2 4243   1.239   3.710   4.586
 1413TIP3   OH2 4244   0.173   4.409   2.088
 1413TIP3    H1 4245   0.151   4.361   2.168
 1413TIP3    H2 4246   0.151   4.348   2.017
 1414TIP3   OH2 4247   4.057   2.980   0.106
 1414TIP3    H1 4248   4.084   3.051   0.165
 1414TIP3    H2 4249   3.974   3.010   0.069
 1415TIP3   OH2 4250   6.254   3.414   3.200
 1415TIP3    H1 4251   6.306   3.338   3.176
 1415TIP3    H2 4252   6.166   3.380   3.215
 1416TIP3   OH2 4253   4.554   2.152   1.094
 1416TIP3    H1 4254   4.605   2.229   1.118
 1416TIP3    H2 4255   4.468   2.168   1.132
 1417TIP3   OH2 4256   3.471   2.408   1.825
 1417TIP3    H1 4257   3.467   2.316   1.798
 1417TIP3    H2 4258   3.464   2.404   1.921
 1418TIP3   OH2 4259   3.349   4.819   0.113
 1418TIP3    H1 4260   3.355   4.726   0.096
 1418TIP3    H2 4261   3.334   4.859   0.027
 1419TIP3   OH2 4262   0.941   4.111   3.702
 1419TIP3    H1 4263   0.872   4.092   3.639
 1419TIP3    H2 4264   1.006   4.043   3.688
 1420TIP3   OH2 4265   1.887   1.683   5.200
 1420TIP3    H1 4266   1.899   1.588   5.194
 1420TIP3    H2 4267   1.867   1.710   5.110
 1421TIP3   OH2 4268   3.228   0.426   0.674
 1421TIP3    H1 4269   3.134   0.434   0.656
 1421TIP3    H2 4270   3.271   0.463   0.597
 1422TIP3   OH2 4271   6.023   2.031   1.687
 1422TIP3    H1 4272   6.073   1.952   1.665
 1422TIP3    H2 4273   5.932   2.002   1.692
 1423TIP3   OH2 4274  -0.002   0.613   0.609
 1423TIP3    H1 4275   0.026   0.684   0.668
 1423TIP3    H2 4276   0.078   0.587   0.564
 1424TIP3   OH2 4277   4.294   3.663   4.331
 1424TIP3    H1 4278   4.269   3.694   4.418
 1424TIP3    H2 4279   4.387   3.682   4.325
 1425TIP3   OH2 4280   4.648   0.722   2.587
 1425TIP3    H1 4281   4.571   0.665   2.586
 1425TIP3    H2 4282   4.676   0.723   2.679
 1426TIP3   OH2 4283   2.512   4.702   2.910
 1426TIP3    H1 4284   2.508   4.744   2.996
 1426TIP3    H2 4285   2.420   4.700   2.881
 1427TIP3   OH2 4286   4.898   1.984   4.377
 1427TIP3    H1 4287   4.952   1.915   4.339
 1427TIP3    H2 4288   4.875   1.953   4.464
 1428TIP3   OH2 4289   5.642   2.405   2.240
 1428TIP3    H1 4290   5.591   2.453   2.174
 1428TIP3    H2 4291   5.696   2.472   2.281
 1429TIP3   OH2 4292   0.672   3.128   3.015
 1429TIP3    H1 4293   0.762   3.102   3.038
 1429TIP3    H2 4294   0.665   3.219   3.044
 1430TIP3   OH2 4295   6.086   5.243   4.020
 1430TIP3    H1 4296   6.104   5.149   4.015
 1430TIP3    H2 4297   6.026   5.253   4.094
 1431TIP3   OH2 4298   1.319   1.124   2.881
 1431TIP3    H1 4299   1.236   1.079   2.868
 1431TIP3    H2 4300   1.298   1.196   2.941
 1432TIP3   OH2 4301   2.467   0.285   3.391
 1432TIP3    H1 4302   2.526   0.253   3.459
 1432TIP3    H2 4303   2.490   0.233   3.314
 1433TIP3   OH2 4304   2.278   3.976   4.399
 1433TIP3    H1 4305   2.319   3.948   4.480
 1433TIP3    H2 4306   2.346   4.023   4.352
 1434TIP3   OH2 4307   0.702   0.859   4.024
 1434TIP3    H1 4308   0.681   0.777   3.978
 1434TIP3    H2 4309   0.628   0.873   4.083
 1435TIP3   OH2 4310   4.225   3.244   4.855
 1435TIP3    H1 4311   4.204   3.336   4.843
 1435TIP3    H2 4312   4.306   3.243   4.906
 1436TIP3   OH2 4313   4.130   3.121   4.625
 1436TIP3    H1 4314   4.129   3.193   4.688
 1436TIP3    H2 4315   4.197   3.061   4.657
 1437TIP3   OH2 4316   1.466   1.587   0.600
 1437TIP3    H1 4317   1.468   1.543   0.515
 1437TIP3    H2 4318   1.393   1.648   0.593
 1438TIP3   OH2 4319   5.557   2.812   3.767
 1438TIP3    H1 4320   5.509   2.860   3.834
 1438TIP3    H2 4321   5.649   2.827   3.787
 1439TIP3   OH2 4322   6.271   5.023   3.714
 1439TIP3    H1 4323   6.280   5.118   3.720
 1439TIP3    H2 4324   6.185   5.010   3.675
 1440TIP3   OH2 4325   4.824   0.694   0.653
 1440TIP3    H1 4326   4.750   0.739   0.694
 1440TIP3    H2 4327   4.807   0.699   0.559
 1441TIP3   OH2 4328   2.928   4.298   2.138
 1441TIP3    H1 4329   2.989   4.224   2.147
 1441TIP3    H2 4330   2.845   4.257   2.115
 1442TIP3   OH2 4331   1.072   3.936   0.111
 1442TIP3    H1 4332   1.073   3.950   0.206
 1442TIP3    H2 4333   1.158   3.966   0.082
 1443TIP3   OH2 4334   3.085   2.901   0.955
 1443TIP3    H1 4335   3.098   2.995   0.968
 1443TIP3    H2 4336   3.170   2.869   0.925
 1444TIP3   OH2 4337   5.427   5.047   2.383
 1444TIP3    H1 4338   5.484   5.124   2.391
 1444TIP3    H2 4339   5.371   5.052   2.460
 1445TIP3   OH2 4340   5.441   5.854   3.436
 1445TIP3    H1 4341   5.530   5.890   3.433
 1445TIP3    H2 4342   5.445   5.776   3.382
 1446TIP3   OH2 4343   5.308   0.629   3.285
 1446TIP3    H1 4344   5.398   0.662   3.281
 1446TIP3    H2 4345   5.265   0.667   3.208
 1447TIP3   OH2 4346   4.623   4.635   3.804
 1447TIP3    H1 4347   4.544   4.597   3.844
 1447TIP3    H2 4348   4.606   4.633   3.710
 1448TIP3   OH2 4349   2.174   2.548   3.741
 1448TIP3    H1 4350   2.267   2.561   3.759
 1448TIP3    H2 4351   2.162   2.453   3.744
 1449TIP3   OH2 4352   2.169   0.663   0.373
 1449TIP3    H1 4353   2.243   0.706   0.332
 1449TIP3    H2 4354   2.138   0.600   0.308
 1450TIP3   OH2 4355   0.464   4.487   0.398
 1450TIP3    H1 4356   0.436   4.574   0.427
 1450TIP3    H2 4357   0.392   4.457   0.342
 1451TIP3   OH2 4358   1.513   3.047   2.881
 1451TIP3    H1 4359   1.532   3.132   2.921
 1451TIP3    H2 4360   1.504   3.065   2.788
 1452TIP3   OH2 4361   2.549   4.913   3.998
 1452TIP3    H1 4362   2.621   4.973   4.018
 1452TIP3    H2 4363   2.479   4.939   4.058
 1453TIP3   OH2 4364   2.661   4.571   3.266
 1453TIP3    H1 4365   2.673   4.663   3.291
 1453TIP3    H2 4366   2.566   4.562   3.257
 1454TIP3   OH2 4367   6.069   5.411   0.393
 1454TIP3    H1 4368   6.054   5.391   0.300
 1454TIP3    H2 4369   6.151   5.460   0.394
 1455TIP3   OH2 4370   1.836   1.556   4.440
 1455TIP3    H1 4371   1.824   1.463   4.460
 1455TIP3    H2 4372   1.907   1.558   4.376
 1456TIP3   OH2 4373   0.298   4.308   2.767
 1456TIP3    H1 4374   0.212   4.298   2.724
 1456TIP3    H2 4375   0.287   4.265   2.852
 1457TIP3   OH2 4376   2.107   4.351   2.383
 1457TIP3    H1 4377   2.148   4.415   2.442
 1457TIP3    H2 4378   2.059   4.405   2.319
 1458TIP3   OH2 4379   5.070   3.597   4.187
 1458TIP3    H1 4380   5.158   3.630   4.207
 1458TIP3    H2 4381   5.050   3.634   4.101
 1459TIP3   OH2 4382   3.127   3.331   1.318
 1459TIP3    H1 4383   3.132   3.258   1.380
 1459TIP3    H2 4384   3.098   3.406   1.370
 1460TIP3   OH2 4385   5.526   5.132   0.317
 1460TIP3    H1 4386   5.552   5.040   0.316
 1460TIP3    H2 4387   5.599   5.178   0.276
 1461TIP3   OH2 4388   4.152   3.493   5.074
 1461TIP3    H1 4389   4.084   3.428   5.057
 1461TIP3    H2 4390   4.219   3.445   5.122
 1462TIP3   OH2 4391   1.021   4.354   3.434
 1462TIP3    H1 4392   1.102   4.330   3.389
 1462TIP3    H2 4393   0.986   4.272   3.468
 1463TIP3   OH2 4394   5.232   4.657   3.742
 1463TIP3    H1 4395   5.176   4.703   3.680
 1463TIP3    H2 4396   5.177   4.644   3.819
 1464TIP3   OH2 4397   3.386   1.785   3.923
 1464TIP3    H1 4398   3.404   1.728   3.998
 1464TIP3    H2 4399   3.358   1.725   3.853
 1465TIP3   OH2 4400   1.162   1.125   1.723
 1465TIP3    H1 4401   1.139   1.193   1.660
 1465TIP3    H2 4402   1.157   1.169   1.808
 1466TIP3   OH2 4403   4.219   5.076   0.375
 1466TIP3    H1 4404   4.156   5.145   0.354
 1466TIP3    H2 4405   4.198   5.051   0.465
 1467TIP3   OH2 4406   5.988   2.984   0.073
 1467TIP3    H1 4407   5.958   3.051   0.133
 1467TIP3    H2 4408   5.918   2.977   0.007
 1468TIP3   OH2 4409   1.222   3.410   0.246
 1468TIP3    H1 4410   1.280   3.435   0.319
 1468TIP3    H2 4411   1.135   3.437   0.275
 1469TIP3   OH2 4412   5.282   3.207   5.098
 1469TIP3    H1 4413   5.293   3.301   5.106
 1469TIP3    H2 4414   5.315   3.171   5.180
 1470TIP3   OH2 4415   5.494   0.130   3.717
 1470TIP3    H1 4416   5.485   0.129   3.812
 1470TIP3    H2 4417   5.485   0.222   3.692
 1471TIP3   OH2 4418   1.589   4.590   4.541
 1471TIP3    H1 4419   1.533   4.662   4.570
 1471TIP3    H2 4420   1.550   4.512   4.579
 1472TIP3   OH2 4421   3.972   4.779   0.377
 1472TIP3    H1 4422   4.058   4.818   0.361
 1472TIP3    H2 4423   3.967   4.706   0.315
 1473TIP3   OH2 4424   1.901   2.370   2.750
 1473TIP3    H1 4425   1.919   2.284   2.789
 1473TIP3    H2 4426   1.833   2.353   2.685
 1474TIP3   OH2 4427   0.667   4.736   0.259
 1474TIP3    H1 4428   0.712   4.769   0.181
 1474TIP3    H2 4429   0.708   4.782   0.332
 1475TIP3   OH2 4430   2.314   4.329   1.647
 1475TIP3    H1 4431   2.326   4.420   1.618
 1475TIP3    H2 4432   2.303   4.279   1.567
 1476TIP3   OH2 4433   2.426   1.798   2.741
 1476TIP3    H1 4434   2.404   1.768   2.653
 1476TIP3    H2 4435   2.494   1.864   2.727
 1477TIP3   OH2 4436   3.767   1.855   2.684
 1477TIP3    H1 4437   3.842   1.912   2.701
 1477TIP3    H2 4438   3.695   1.915   2.668
 1478TIP3   OH2 4439   0.964   4.797   4.884
 1478TIP3    H1 4440   1.058   4.780   4.877
 1478TIP3    H2 4441   0.933   4.801   4.793
 1479TIP3   OH2 4442   0.274   1.134   2.720
 1479TIP3    H1 4443   0.318   1.078   2.784
 1479TIP3    H2 4444   0.202   1.080   2.687
 1480TIP3   OH2 4445   0.528   3.035   2.765
 1480TIP3    H1 4446   0.602   2.984   2.797
 1480TIP3    H2 4447   0.453   3.000   2.812
 1481TIP3   OH2 4448   5.551   2.837   0.064
 1481TIP3    H1 4449   5.634   2.868   0.026
 1481TIP3    H2 4450   5.569   2.829   0.158
 1482TIP3   OH2 4451   3.690   2.256   2.527
 1482TIP3    H1 4452   3.695   2.217   2.614
 1482TIP3    H2 4453   3.779   2.253   2.494
 1483TIP3   OH2 4454   3.122   5.133   3.256
 1483TIP3    H1 4455   3.158   5.194   3.320
 1483TIP3    H2 4456   3.027   5.141   3.264
 1484TIP3   OH2 4457   4.615   0.609   3.161
 1484TIP3    H1 4458   4.599   0.698   3.194
 1484TIP3    H2 4459   4.709   0.597   3.171
 1485TIP3   OH2 4460   5.703   3.502   0.155
 1485TIP3    H1 4461   5.730   3.431   0.097
 1485TIP3    H2 4462   5.651   3.458   0.223
 1486TIP3   OH2 4463   2.419   3.676   4.130
 1486TIP3    H1 4464   2.386   3.608   4.070
 1486TIP3    H2 4465   2.478   3.728   4.076
 1487TIP3   OH2 4466   3.233   3.060   3.303
 1487TIP3    H1 4467   3.297   2.990   3.289
 1487TIP3    H2 4468   3.252   3.123   3.234
 1488TIP3   OH2 4469   3.697   3.306   0.256
 1488TIP3    H1 4470   3.738   3.378   0.208
 1488TIP3    H2 4471   3.609   3.299   0.218
 1489TIP3   OH2 4472   5.413   5.454   2.577
 1489TIP3    H1 4473   5.380   5.536   2.543
 1489TIP3    H2 4474   5.420   5.467   2.671
 1490TIP3   OH2 4475   5.250   0.987   0.378
 1490TIP3    H1 4476   5.312   0.975   0.307
 1490TIP3    H2 4477   5.292   0.949   0.455
 1491TIP3   OH2 4478   2.123   3.336   3.437
 1491TIP3    H1 4479   2.068   3.268   3.399
 1491TIP3    H2 4480   2.100   3.337   3.530
 1492TIP3   OH2 4481   0.736   0.202   1.390
 1492TIP3    H1 4482   0.673   0.253   1.340
 1492TIP3    H2 4483   0.816   0.204   1.337
 1493TIP3   OH2 4484   5.261   2.601   3.316
 1493TIP3    H1 4485   5.277   2.684   3.270
 1493TIP3    H2 4486   5.186   2.619   3.373
 1494TIP3   OH2 4487   4.602   5.259   0.784
 1494TIP3    H1 4488   4.642   5.339   0.751
 1494TIP3    H2 4489   4.605   5.268   0.879
 1495TIP3   OH2 4490   5.116   4.480   2.475
 1495TIP3    H1 4491   5.047   4.506   2.535
 1495TIP3    H2 4492   5.126   4.386   2.488
 1496TIP3   OH2 4493   1.095   5.113   5.156
 1496TIP3    H1 4494   1.092   5.017   5.158
 1496TIP3    H2 4495   1.104   5.136   5.064
 1497TIP3   OH2 4496   1.698   5.380   0.594
 1497TIP3    H1 4497   1.792   5.381   0.575
 1497TIP3    H2 4498   1.660   5.441   0.531
 1498TIP3   OH2 4499   5.619   2.688   2.307
 1498TIP3    H1 4500   5.537   2.697   2.258
 1498TIP3    H2 4501   5.687   2.714   2.244
 1499TIP3   OH2 4502   4.410   2.141   4.605
 1499TIP3    H1 4503   4.427   2.144   4.511
 1499TIP3    H2 4504   4.392   2.049   4.623
 1500TIP3   OH2 4505   4.392   4.445   0.050
 1500TIP3    H1 4506   4.444   4.442   0.130
 1500TIP3    H2 4507   4.427   4.520   0.002
 1501TIP3   OH2 4508   1.754   1.166   4.766
 1501TIP3    H1 4509   1.839   1.143   4.728
 1501TIP3    H2 4510   1.730   1.248   4.723
 1502TIP3   OH2 4511   5.387   0.311   5.159
 1502TIP3    H1 4512   5.328   0.236   5.149
 1502TIP3    H2 4513   5.396   0.323   5.253
 1503TIP3   OH2 4514   0.530   2.582   4.905
 1503TIP3    H1 4515   0.498   2.609   4.991
 1503TIP3    H2 4516   0.469   2.623   4.843
 1504TIP3   OH2 4517   1.195   4.097   4.229
 1504TIP3    H1 4518   1.124   4.068   4.172
 1504TIP3    H2 4519   1.212   4.023   4.287
 1505TIP3   OH2 4520   5.602   2.295   4.872
 1505TIP3    H1 4521   5.643   2.292   4.959
 1505TIP3    H2 4522   5.515   2.259   4.885
 1506TIP3   OH2 4523   3.123   0.418   4.557
 1506TIP3    H1 4524   3.165   0.449   4.477
 1506TIP3    H2 4525   3.094   0.498   4.601
 1507TIP3   OH2 4526   2.611   0.091   0.031
 1507TIP3    H1 4527   2.653   0.158   0.085
 1507TIP3    H2 4528   2.615   0.126  -0.058
 1508TIP3   OH2 4529   3.611   2.909   1.786
 1508TIP3    H1 4530   3.698   2.901   1.826
 1508TIP3    H2 4531   3.570   2.824   1.799
 1509TIP3   OH2 4532   5.314   2.924   3.926
 1509TIP3    H1 4533   5.360   2.960   4.002
 1509TIP3    H2 4534   5.225   2.960   3.932
 1510TIP3   OH2 4535   0.256   3.012   2.045
 1510TIP3    H1 4536   0.274   3.047   1.958
 1510TIP3    H2 4537   0.187   3.068   2.080
 1511TIP3   OH2 4538   5.192   1.119   4.303
 1511TIP3    H1 4539   5.101   1.128   4.275
 1511TIP3    H2 4540   5.216   1.205   4.336
 1512TIP3   OH2 4541   1.826   3.277   3.225
 1512TIP3    H1 4542   1.865   3.318   3.147
 1512TIP3    H2 4543   1.779   3.349   3.269
 1513TIP3   OH2 4544   1.649   3.613   1.637
 1513TIP3    H1 4545   1.571   3.559   1.627
 1513TIP3    H2 4546   1.673   3.604   1.729
 1514TIP3   OH2 4547   3.335   1.891   4.685
 1514TIP3    H1 4548   3.266   1.851   4.737
 1514TIP3    H2 4549   3.394   1.929   4.749
 1515TIP3   OH2 4550   4.686   2.197   1.914
 1515TIP3    H1 4551   4.744   2.168   1.844
 1515TIP3    H2 4552   4.744   2.219   1.987
 1516TIP3   OH2 4553   4.990   0.938   2.618
 1516TIP3    H1 4554   5.004   1.030   2.641
 1516TIP3    H2 4555   4.930   0.941   2.544
 1517TIP3   OH2 4556   0.389   0.211   0.671
 1517TIP3    H1 4557   0.392   0.150   0.745
 1517TIP3    H2 4558   0.446   0.172   0.605
 1518TIP3   OH2 4559   0.301   0.858   4.821
 1518TIP3    H1 4560   0.302   0.762   4.822
 1518TIP3    H2 4561   0.238   0.881   4.889
 1519TIP3   OH2 4562   2.380   1.761   0.671
 1519TIP3    H1 4563   2.326   1.718   0.605
 1519TIP3    H2 4564   2.362   1.712   0.751
 1520TIP3   OH2 4565   1.149   2.752   4.742
 1520TIP3    H1 4566   1.087   2.681   4.725
 1520TIP3    H2 4567   1.178   2.738   4.832
 1521TIP3   OH2 4568   0.287   0.573   0.058
 1521TIP3    H1 4569   0.301   0.480   0.078
 1521TIP3    H2 4570   0.358   0.596  -0.002
 1522TIP3   OH2 4571   0.516   0.446   0.918
 1522TIP3    H1 4572   0.442   0.502   0.895
 1522TIP3    H2 4573   0.561   0.494   0.987
 1523TIP3   OH2 4574   3.388   3.828   3.948
 1523TIP3    H1 4575   3.412   3.736   3.954
 1523TIP3    H2 4576   3.377   3.844   3.854
 1524TIP3   OH2 4577   4.508   5.268   1.802
 1524TIP3    H1 4578   4.528   5.236   1.890
 1524TIP3    H2 4579   4.582   5.241   1.749
 1525TIP3   OH2 4580   5.159   2.730   4.366
 1525TIP3    H1 4581   5.108   2.796   4.319
 1525TIP3    H2 4582   5.200   2.778   4.437
 1526TIP3   OH2 4583   4.500   2.691   0.435
 1526TIP3    H1 4584   4.582   2.740   0.436
 1526TIP3    H2 4585   4.455   2.719   0.515
 1527TIP3   OH2 4586   3.602   0.387   3.854
 1527TIP3    H1 4587   3.630   0.479   3.859
 1527TIP3    H2 4588   3.615   0.354   3.943
 1528TIP3   OH2 4589   5.307   1.966   3.079
 1528TIP3    H1 4590   5.392   1.985   3.041
 1528TIP3    H2 4591   5.264   1.907   3.016
 1529TIP3   OH2 4592   3.181   4.903   0.615
 1529TIP3    H1 4593   3.232   4.871   0.541
 1529TIP3    H2 4594   3.115   4.959   0.576
 1530TIP3   OH2 4595   6.358   5.525   5.148
 1530TIP3    H1 4596   6.359   5.592   5.216
 1530TIP3    H2 4597   6.354   5.575   5.066
 1531TIP3   OH2 4598   1.105   3.028   4.014
 1531TIP3    H1 4599   1.133   2.981   3.936
 1531TIP3    H2 4600   1.078   2.959   4.075
 1532TIP3   OH2 4601   3.167   4.706   3.813
 1532TIP3    H1 4602   3.106   4.701   3.886
 1532TIP3    H2 4603   3.253   4.693   3.854
 1533TIP3   OH2 4604   5.146   3.365   1.117
 1533TIP3    H1 4605   5.174   3.448   1.156
 1533TIP3    H2 4606   5.166   3.299   1.183
 1534TIP3   OH2 4607   2.339   2.910   3.137
 1534TIP3    H1 4608   2.285   2.966   3.081
 1534TIP3    H2 4609   2.372   2.842   3.078
 1535TIP3   OH2 4610   1.222   2.364   2.954
 1535TIP3    H1 4611   1.131   2.383   2.976
 1535TIP3    H2 4612   1.218   2.285   2.900
 1536TIP3   OH2 4613   5.925   1.520   0.725
 1536TIP3    H1 4614   5.943   1.556   0.812
 1536TIP3    H2 4615   6.007   1.531   0.677
 1537TIP3   OH2 4616   4.120   0.662   4.627
 1537TIP3    H1 4617   4.180   0.736   4.621
 1537TIP3    H2 4618   4.124   0.634   4.718
 1538TIP3   OH2 4619   5.091   2.189   4.161
 1538TIP3    H1 4620   5.163   2.243   4.129
 1538TIP3    H2 4621   5.040   2.247   4.217
 1539TIP3   OH2 4622   1.377   4.546   1.814
 1539TIP3    H1 4623   1.455   4.565   1.866
 1539TIP3    H2 4624   1.406   4.558   1.723
 1540TIP3   OH2 4625   3.992   5.663   4.819
 1540TIP3    H1 4626   3.962   5.686   4.731
 1540TIP3    H2 4627   4.071   5.716   4.831
 1541TIP3   OH2 4628   1.221   2.731   0.824
 1541TIP3    H1 4629   1.224   2.637   0.840
 1541TIP3    H2 4630   1.280   2.745   0.750
 1542TIP3   OH2 4631   5.866   3.597   3.178
 1542TIP3    H1 4632   5.899   3.552   3.256
 1542TIP3    H2 4633   5.794   3.543   3.147
 1543TIP3   OH2 4634   0.864   0.430   2.037
 1543TIP3    H1 4635   0.880   0.383   2.120
 1543TIP3    H2 4636   0.803   0.499   2.061
 1544TIP3   OH2 4637   5.139   4.413   4.665
 1544TIP3    H1 4638   5.095   4.497   4.681
 1544TIP3    H2 4639   5.154   4.412   4.570
 1545TIP3   OH2 4640  -0.004   1.549   4.403
 1545TIP3    H1 4641  -0.036   1.543   4.493
 1545TIP3    H2 4642   0.014   1.459   4.377
 1546TIP3   OH2 4643   1.088   0.512   3.192
 1546TIP3    H1 4644   1.167   0.542   3.148
 1546TIP3    H2 4645   1.016   0.541   3.135
 1547TIP3   OH2 4646   0.352   5.308   4.767
 1547TIP3    H1 4647   0.340   5.298   4.673
 1547TIP3    H2 4648   0.433   5.261   4.786
 1548TIP3   OH2 4649   2.435   3.359   4.120
 1548TIP3    H1 4650   2.406   3.332   4.207
 1548TIP3    H2 4651   2.493   3.289   4.091
 1549TIP3   OH2 4652   0.575   3.396   3.195
 1549TIP3    H1 4653   0.568   3.487   3.224
 1549TIP3    H2 4654   0.484   3.366   3.190
 1550TIP3   OH2 4655   2.402   4.588   2.290
 1550TIP3    H1 4656   2.409   4.493   2.305
 1550TIP3    H2 4657   2.440   4.601   2.203
 1551TIP3   OH2 4658   5.682   2.420   3.411
 1551TIP3    H1 4659   5.774   2.446   3.412
 1551TIP3    H2 4660   5.681   2.337   3.460
 1552TIP3   OH2 4661   1.222   1.953   0.182
 1552TIP3    H1 4662   1.234   1.858   0.185
 1552TIP3    H2 4663   1.255   1.984   0.266
 1553TIP3   OH2 4664   5.607   0.170   2.122
 1553TIP3    H1 4665   5.581   0.186   2.031
 1553TIP3    H2 4666   5.649   0.084   2.121
 1554TIP3   OH2 4667   2.004   3.345   1.082
 1554TIP3    H1 4668   2.087   3.345   1.129
 1554TIP3    H2 4669   2.029   3.333   0.990
 1555TIP3   OH2 4670   5.023   1.179   4.954
 1555TIP3    H1 4671   5.087   1.223   4.897
 1555TIP3    H2 4672   5.037   1.086   4.938
 1556TIP3   OH2 4673   5.775   1.285   0.674
 1556TIP3    H1 4674   5.812   1.206   0.714
 1556TIP3    H2 4675   5.821   1.358   0.717
 1557TIP3   OH2 4676   2.785   1.403   1.522
 1557TIP3    H1 4677   2.845   1.459   1.572
 1557TIP3    H2 4678   2.828   1.318   1.521
 1558TIP3   OH2 4679   1.246   5.111   4.022
 1558TIP3    H1 4680   1.315   5.150   3.968
 1558TIP3    H2 4681   1.183   5.181   4.036
 1559TIP3   OH2 4682   0.879   4.667   2.276
 1559TIP3    H1 4683   0.858   4.760   2.281
 1559TIP3    H2 4684   0.801   4.623   2.308
 1560TIP3   OH2 4685   2.224   1.934   4.644
 1560TIP3    H1 4686   2.174   1.973   4.715
 1560TIP3    H2 4687   2.314   1.964   4.658
 1561TIP3   OH2 4688   5.496   2.543   4.774
 1561TIP3    H1 4689   5.549   2.465   4.793
 1561TIP3    H2 4690   5.408   2.508   4.759
 1562TIP3   OH2 4691   4.071   1.596   2.695
 1562TIP3    H1 4692   4.129   1.523   2.671
 1562TIP3    H2 4693   4.025   1.617   2.614
 1563TIP3   OH2 4694   1.462   5.067   4.908
 1563TIP3    H1 4695   1.507   5.071   4.993
 1563TIP3    H2 4696   1.409   5.146   4.905
 1564TIP3   OH2 4697   0.506   0.969   3.343
 1564TIP3    H1 4698   0.580   1.029   3.353
 1564TIP3    H2 4699   0.542   0.894   3.296
 1565TIP3   OH2 4700   1.851   0.015   0.647
 1565TIP3    H1 4701   1.934   0.025   0.600
 1565TIP3    H2 4702   1.791   0.076   0.604
 1566TIP3   OH2 4703   0.204   0.521   0.452
 1566TIP3    H1 4704   0.172   0.515   0.362
 1566TIP3    H2 4705   0.291   0.481   0.449
 1567TIP3   OH2 4706   2.818   5.982   3.597
 1567TIP3    H1 4707   2.894   6.029   3.631
 1567TIP3    H2 4708   2.827   5.987   3.502
 1568TIP3   OH2 4709   0.787   0.614   4.358
 1568TIP3    H1 4710   0.860   0.557   4.384
 1568TIP3    H2 4711   0.712   0.555   4.353
 1569TIP3   OH2 4712   4.669   3.625   4.021
 1569TIP3    H1 4713   4.693   3.623   4.114
 1569TIP3    H2 4714   4.651   3.717   4.003
 1570TIP3   OH2 4715   3.579   0.035   3.973
 1570TIP3    H1 4716   3.493   0.018   4.012
 1570TIP3    H2 4717   3.562   0.041   3.879
 1571TIP3   OH2 4718   0.324   5.399   5.187
 1571TIP3    H1 4719   0.296   5.482   5.226
 1571TIP3    H2 4720   0.259   5.335   5.218
 1572TIP3   OH2 4721   4.351   3.664   2.648
 1572TIP3    H1 4722   4.440   3.640   2.622
 1572TIP3    H2 4723   4.361   3.700   2.736
 1573TIP3   OH2 4724   2.210   4.280   2.003
 1573TIP3    H1 4725   2.172   4.228   2.074
 1573TIP3    H2 4726   2.297   4.243   1.990
 1574TIP3   OH2 4727   6.188   0.641   4.963
 1574TIP3    H1 4728   6.120   0.580   4.992
 1574TIP3    H2 4729   6.270   0.594   4.980
 1575TIP3   OH2 4730   0.055   3.543   1.641
 1575TIP3    H1 4731   0.124   3.610   1.646
 1575TIP3    H2 4732   0.081   3.477   1.706
 1576TIP3   OH2 4733   5.465   0.351   1.628
 1576TIP3    H1 4734   5.389   0.408   1.620
 1576TIP3    H2 4735   5.537   0.401   1.591
 1577TIP3   OH2 4736   5.331   5.190   1.540
 1577TIP3    H1 4737   5.350   5.237   1.622
 1577TIP3    H2 4738   5.345   5.098   1.562
 1578TIP3   OH2 4739   4.313   1.592   1.404
 1578TIP3    H1 4740   4.237   1.647   1.383
 1578TIP3    H2 4741   4.311   1.585   1.499
 1579TIP3   OH2 4742   0.404   3.139   4.159
 1579TIP3    H1 4743   0.431   3.050   4.180
 1579TIP3    H2 4744   0.471   3.171   4.098
 1580TIP3   OH2 4745   3.353   3.893   4.568
 1580TIP3    H1 4746   3.260   3.917   4.570
 1580TIP3    H2 4747   3.387   3.937   4.489
 1581TIP3   OH2 4748   5.076   1.990   1.784
 1581TIP3    H1 4749   5.151   1.972   1.727
 1581TIP3    H2 4750   5.045   2.076   1.757
 1582TIP3   OH2 4751   2.012   2.381   1.427
 1582TIP3    H1 4752   1.931   2.432   1.435
 1582TIP3    H2 4753   1.986   2.302   1.379
 1583TIP3   OH2 4754   5.550   3.817   2.125
 1583TIP3    H1 4755   5.641   3.827   2.151
 1583TIP3    H2 4756   5.520   3.737   2.168
 1584TIP3   OH2 4757   2.339   3.541   2.162
 1584TIP3    H1 4758   2.368   3.615   2.108
 1584TIP3    H2 4759   2.265   3.575   2.212
 1585TIP3   OH2 4760   5.770   4.047   1.710
 1585TIP3    H1 4761   5.825   3.977   1.675
 1585TIP3    H2 4762   5.695   4.050   1.652
 1586TIP3   OH2 4763   1.618   2.123   0.667
 1586TIP3    H1 4764   1.635   2.174   0.587
 1586TIP3    H2 4765   1.698   2.132   0.719
 1587TIP3   OH2 4766   2.631   3.687   0.760
 1587TIP3    H1 4767   2.671   3.609   0.720
 1587TIP3    H2 4768   2.684   3.760   0.730
 1588TIP3   OH2 4769   4.465   5.426   0.371
 1588TIP3    H1 4770   4.451   5.409   0.464
 1588TIP3    H2 4771   4.531   5.361   0.345
 1589TIP3   OH2 4772   2.347   2.527   4.089
 1589TIP3    H1 4773   2.437   2.496   4.098
 1589TIP3    H2 4774   2.352   2.598   4.025
 1590TIP3   OH2 4775   2.060   3.782   3.392
 1590TIP3    H1 4776   2.016   3.768   3.308
 1590TIP3    H2 4777   2.151   3.801   3.368
 1591TIP3   OH2 4778   1.220   1.554   4.285
 1591TIP3    H1 4779   1.136   1.596   4.303
 1591TIP3    H2 4780   1.215   1.527   4.194
 1592TIP3   OH2 4781   6.080   1.749   3.111
 1592TIP3    H1 4782   6.129   1.668   3.124
 1592TIP3    H2 4783   6.014   1.726   3.045
 1593TIP3   OH2 4784   3.405   5.029   1.925
 1593TIP3    H1 4785   3.435   5.096   1.863
 1593TIP3    H2 4786   3.485   4.981   1.949
 1594TIP3   OH2 4787   4.819   3.565   1.430
 1594TIP3    H1 4788   4.809   3.634   1.495
 1594TIP3    H2 4789   4.820   3.611   1.346
 1595TIP3   OH2 4790   5.163   4.765   4.719
 1595TIP3    H1 4791   5.223   4.741   4.789
 1595TIP3    H2 4792   5.200   4.846   4.683
 1596TIP3   OH2 4793   6.247   0.412   2.060
 1596TIP3    H1 4794   6.341   0.422   2.074
 1596TIP3    H2 4795   6.219   0.352   2.130
 1597TIP3   OH2 4796   1.455   4.002   1.835
 1597TIP3    H1 4797   1.504   3.958   1.765
 1597TIP3    H2 4798   1.523   4.034   1.895
 1598TIP3   OH2 4799   0.771   1.564   0.381
 1598TIP3    H1 4800   0.834   1.635   0.367
 1598TIP3    H2 4801   0.727   1.587   0.463
 1599TIP3   OH2 4802   2.451   1.235   3.640
 1599TIP3    H1 4803   2.522   1.239   3.576
 1599TIP3    H2 4804   2.460   1.316   3.690
 1600TIP3   OH2 4805   4.234   0.078   1.307
 1600TIP3    H1 4806   4.319   0.120   1.305
 1600TIP3    H2 4807   4.213   0.068   1.400
 1601TIP3   OH2 4808   4.964   0.330   1.229
 1601TIP3    H1 4809   4.898   0.339   1.160
 1601TIP3    H2 4810   5.028   0.269   1.192
 1602TIP3   OH2 4811   0.693   0.001   2.612
 1602TIP3    H1 4812   0.598  -0.011   2.608
 1602TIP3    H2 4813   0.728  -0.071   2.558
 1603TIP3   OH2 4814   3.472   0.234   1.334
 1603TIP3    H1 4815   3.467   0.143   1.363
 1603TIP3    H2 4816   3.389   0.249   1.287
 1604TIP3   OH2 4817   4.520   2.385   4.626
 1604TIP3    H1 4818   4.499   2.295   4.651
 1604TIP3    H2 4819   4.585   2.376   4.556
 1605TIP3   OH2 4820   2.176   3.761   4.273
 1605TIP3    H1 4821   2.201   3.843   4.314
 1605TIP3    H2 4822   2.257   3.725   4.238
 1606TIP3   OH2 4823   0.435   5.016   0.654
 1606TIP3    H1 4824   0.450   5.047   0.743
 1606TIP3    H2 4825   0.382   4.937   0.665
 1607TIP3   OH2 4826   1.178   0.620   2.108
 1607TIP3    H1 4827   1.260   0.662   2.133
 1607TIP3    H2 4828   1.121   0.692   2.082
 1608TIP3   OH2 4829   5.731   1.060   4.406
 1608TIP3    H1 4830   5.679   0.983   4.430
 1608TIP3    H2 4831   5.699   1.129   4.465
 1609TIP3   OH2 4832   4.092   1.478   0.112
 1609TIP3    H1 4833   4.131   1.554   0.070
 1609TIP3    H2 4834   4.089   1.501   0.205
 1610TIP3   OH2 4835   4.540   0.662   3.960
 1610TIP3    H1 4836   4.592   0.593   3.918
 1610TIP3    H2 4837   4.596   0.739   3.956
 1611TIP3   OH2 4838   0.830   5.738   0.799
 1611TIP3    H1 4839   0.795   5.672   0.860
 1611TIP3    H2 4840   0.788   5.717   0.715
 1612TIP3   OH2 4841   2.434   1.191   0.387
 1612TIP3    H1 4842   2.477   1.225   0.308
 1612TIP3    H2 4843   2.504   1.146   0.434
 1613TIP3   OH2 4844   4.027   5.147   4.337
 1613TIP3    H1 4845   4.041   5.115   4.248
 1613TIP3    H2 4846   3.938   5.181   4.337
 1614TIP3   OH2 4847   2.497   0.969   2.302
 1614TIP3    H1 4848   2.543   0.927   2.230
 1614TIP3    H2 4849   2.519   0.916   2.379
 1615TIP3   OH2 4850   4.091   5.076   5.015
 1615TIP3    H1 4851   4.007   5.031   5.007
 1615TIP3    H2 4852   4.106   5.082   5.110
 1616TIP3   OH2 4853   4.102   4.141   2.311
 1616TIP3    H1 4854   4.056   4.223   2.329
 1616TIP3    H2 4855   4.182   4.147   2.362
 1617TIP3   OH2 4856   5.616   2.071   2.700
 1617TIP3    H1 4857   5.590   2.032   2.616
 1617TIP3    H2 4858   5.639   1.996   2.755
 1618TIP3   OH2 4859   0.865   0.595   5.084
 1618TIP3    H1 4860   0.810   0.561   5.155
 1618TIP3    H2 4861   0.949   0.616   5.127
 1619TIP3   OH2 4862   3.102   2.247   4.565
 1619TIP3    H1 4863   3.148   2.276   4.644
 1619TIP3    H2 4864   3.139   2.161   4.545
 1620TIP3   OH2 4865   3.842   1.465   0.326
 1620TIP3    H1 4866   3.913   1.514   0.368
 1620TIP3    H2 4867   3.878   1.440   0.241
 1621TIP3   OH2 4868   2.931   1.257   5.104
 1621TIP3    H1 4869   2.933   1.270   5.199
 1621TIP3    H2 4870   2.849   1.211   5.087
 1622TIP3   OH2 4871   0.622   0.966   2.998
 1622TIP3    H1 4872   0.689   0.986   2.933
 1622TIP3    H2 4873   0.544   0.946   2.946
 1623TIP3   OH2 4874   4.959   4.697   3.325
 1623TIP3    H1 4875   4.983   4.605   3.333
 1623TIP3    H2 4876   4.951   4.728   3.415
 1624TIP3   OH2 4877   1.072   4.024   5.015
 1624TIP3    H1 4878   1.019   4.094   5.053
 1624TIP3    H2 4879   1.160   4.039   5.048
 1625TIP3   OH2 4880   1.408   5.099   4.624
 1625TIP3    H1 4881   1.427   5.095   4.718
 1625TIP3    H2 4882   1.323   5.143   4.618
 1626TIP3   OH2 4883   1.148   1.640   3.066
 1626TIP3    H1 4884   1.069   1.590   3.045
 1626TIP3    H2 4885   1.138   1.663   3.158
 1627TIP3   OH2 4886   1.124   5.126   3.450
 1627TIP3    H1 4887   1.203   5.181   3.449
 1627TIP3    H2 4888   1.096   5.125   3.542
 1628TIP3   OH2 4889   5.147   1.588   5.024
 1628TIP3    H1 4890   5.070   1.645   5.031
 1628TIP3    H2 4891   5.182   1.583   5.113
 1629TIP3   OH2 4892   3.342   3.519   3.724
 1629TIP3    H1 4893   3.402   3.569   3.668
 1629TIP3    H2 4894   3.384   3.520   3.810
 1630TIP3   OH2 4895   3.446   4.125   3.246
 1630TIP3    H1 4896   3.407   4.213   3.240
 1630TIP3    H2 4897   3.381   4.068   3.205
 1631TIP3   OH2 4898   5.706   2.687   0.565
 1631TIP3    H1 4899   5.660   2.737   0.633
 1631TIP3    H2 4900   5.751   2.618   0.613
 1632TIP3   OH2 4901   1.530   4.427   5.071
 1632TIP3    H1 4902   1.544   4.492   5.140
 1632TIP3    H2 4903   1.614   4.381   5.063
 1633TIP3   OH2 4904   6.347   1.371   5.080
 1633TIP3    H1 4905   6.419   1.309   5.076
 1633TIP3    H2 4906   6.386   1.456   5.060
 1634TIP3   OH2 4907   6.082   1.846   3.487
 1634TIP3    H1 4908   6.134   1.873   3.563
 1634TIP3    H2 4909   6.145   1.804   3.429
 1635TIP3   OH2 4910   0.661   3.785   2.990
 1635TIP3    H1 4911   0.580   3.733   2.990
 1635TIP3    H2 4912   0.696   3.777   2.902
 1636TIP3   OH2 4913   6.188   5.157   1.803
 1636TIP3    H1 4914   6.103   5.191   1.834
 1636TIP3    H2 4915   6.243   5.235   1.795
 1637TIP3   OH2 4916   4.955   2.020   0.915
 1637TIP3    H1 4917   4.982   1.998   0.826
 1637TIP3    H2 4918   4.863   2.045   0.907
 1638TIP3   OH2 4919   2.584   0.156   4.339
 1638TIP3    H1 4920   2.576   0.121   4.250
 1638TIP3    H2 4921   2.510   0.216   4.348
 1639TIP3   OH2 4922   5.190   0.950   0.851
 1639TIP3    H1 4923   5.248   1.001   0.795
 1639TIP3    H2 4924   5.136   1.016   0.895
 1640TIP3   OH2 4925   1.424   2.515   3.477
 1640TIP3    H1 4926   1.497   2.464   3.442
 1640TIP3    H2 4927   1.451   2.606   3.468
 1641TIP3   OH2 4928   4.246   5.226   4.858
 1641TIP3    H1 4929   4.327   5.189   4.894
 1641TIP3    H2 4930   4.176   5.187   4.910
 1642TIP3   OH2 4931   5.826   0.229   4.960
 1642TIP3    H1 4932   5.782   0.180   5.030
 1642TIP3    H2 4933   5.756   0.266   4.908
 1643TIP3   OH2 4934   5.662   4.263   0.302
 1643TIP3    H1 4935   5.608   4.247   0.380
 1643TIP3    H2 4936   5.751   4.248   0.332
 1644TIP3   OH2 4937   3.034   1.929   2.470
 1644TIP3    H1 4938   3.049   1.884   2.387
 1644TIP3    H2 4939   3.032   1.859   2.535
 1645TIP3   OH2 4940   4.822   0.836   0.971
 1645TIP3    H1 4941   4.729   0.852   0.987
 1645TIP3    H2 4942   4.825   0.746   0.939
 1646TIP3   OH2 4943   2.367   3.213   3.396
 1646TIP3    H1 4944   2.404   3.251   3.316
 1646TIP3    H2 4945   2.290   3.266   3.415
 1647TIP3   OH2 4946   1.229   0.510   1.064
 1647TIP3    H1 4947   1.214   0.506   1.158
 1647TIP3    H2 4948   1.201   0.424   1.031
 1648TIP3   OH2 4949   1.102   4.560   1.030
 1648TIP3    H1 4950   1.058   4.644   1.019
 1648TIP3    H2 4951   1.077   4.530   1.117
 1649TIP3   OH2 4952   5.109   0.828   1.363
 1649TIP3    H1 4953   5.205   0.824   1.355
 1649TIP3    H2 4954   5.079   0.741   1.339
 1650TIP3   OH2 4955   3.676   0.953   3.660
 1650TIP3    H1 4956   3.587   0.988   3.651
 1650TIP3    H2 4957   3.682   0.926   3.752
 1651TIP3   OH2 4958   2.984   3.790   4.690
 1651TIP3    H1 4959   2.920   3.736   4.643
 1651TIP3    H2 4960   3.018   3.851   4.625
 1652TIP3   OH2 4961   2.115   4.234   4.910
 1652TIP3    H1 4962   2.088   4.153   4.866
 1652TIP3    H2 4963   2.037   4.264   4.956
 1653TIP3   OH2 4964   0.344   2.707   2.287
 1653TIP3    H1 4965   0.440   2.704   2.293
 1653TIP3    H2 4966   0.317   2.615   2.287
 1654TIP3   OH2 4967   2.605   4.130   1.631
 1654TIP3    H1 4968   2.657   4.072   1.575
 1654TIP3    H2 4969   2.522   4.084   1.644
 1655TIP3   OH2 4970   0.148   2.487   2.711
 1655TIP3    H1 4971   0.213   2.554   2.688
 1655TIP3    H2 4972   0.192   2.433   2.776
 1656TIP3   OH2 4973   0.709   5.904   1.337
 1656TIP3    H1 4974   0.625   5.904   1.293
 1656TIP3    H2 4975   0.774   5.908   1.267
 1657TIP3   OH2 4976   2.921   5.373   0.181
 1657TIP3    H1 4977   3.009   5.341   0.161
 1657TIP3    H2 4978   2.864   5.297   0.164
 1658TIP3   OH2 4979   2.119   0.632   0.674
 1658TIP3    H1 4980   2.138   0.629   0.580
 1658TIP3    H2 4981   2.023   0.630   0.679
 1659TIP3   OH2 4982   5.094   0.771   0.283
 1659TIP3    H1 4983   5.157   0.709   0.246
 1659TIP3    H2 4984   5.145   0.851   0.294
 1660TIP3   OH2 4985   5.670   3.603   2.375
 1660TIP3    H1 4986   5.680   3.691   2.410
 1660TIP3    H2 4987   5.748   3.589   2.322
 1661TIP3   OH2 4988   1.807   4.337   3.457
 1661TIP3    H1 4989   1.756   4.286   3.521
 1661TIP3    H2 4990   1.894   4.298   3.459
 1662TIP3   OH2 4991   4.586   3.917   3.262
 1662TIP3    H1 4992   4.497   3.950   3.266
 1662TIP3    H2 4993   4.640   3.996   3.253
 1663TIP3   OH2 4994   3.114   5.687   2.243
 1663TIP3    H1 4995   3.134   5.602   2.206
 1663TIP3    H2 4996   3.188   5.706   2.301
 1664TIP3   OH2 4997   6.150   3.457   2.002
 1664TIP3    H1 4998   6.108   3.530   1.955
 1664TIP3    H2 4999   6.179   3.398   1.932
 1665TIP3   OH2 5000   2.746   3.821   3.800
 1665TIP3    H1 5001   2.782   3.733   3.806
 1665TIP3    H2 5002   2.726   3.833   3.707
 1666TIP3   OH2 5003   5.774   2.060   3.220
 1666TIP3    H1 5004   5.776   2.070   3.316
 1666TIP3    H2 5005   5.753   2.147   3.188
 1667TIP3   OH2 5006   2.608   5.056   4.263
 1667TIP3    H1 5007   2.521   5.093   4.280
 1667TIP3    H2 5008   2.645   5.112   4.195
 1668TIP3   OH2 5009   3.471   1.760   3.169
 1668TIP3    H1 5010   3.459   1.691   3.104
 1668TIP3    H2 5011   3.566   1.769   3.176
 1669TIP3   OH2 5012   1.248   0.628   1.606
 1669TIP3    H1 5013   1.275   0.554   1.660
 1669TIP3    H2 5014   1.235   0.700   1.668
 1670TIP3   OH2 5015   1.222   0.969   3.683
 1670TIP3    H1 5016   1.292   1.008   3.736
 1670TIP3    H2 5017   1.249   0.878   3.673
 1671TIP3   OH2 5018   4.314   0.320   3.875
 1671TIP3    H1 5019   4.319   0.245   3.935
 1671TIP3    H2 5020   4.270   0.388   3.925
 1672TIP3   OH2 5021   0.298   1.479   3.996
 1672TIP3    H1 5022   0.313   1.523   4.080
 1672TIP3    H2 5023   0.246   1.541   3.945
 1673TIP3   OH2 5024   4.393   4.544   0.549
 1673TIP3    H1 5025   4.363   4.480   0.483
 1673TIP3    H2 5026   4.363   4.628   0.516
 1674TIP3   OH2 5027   2.221   2.569   3.416
 1674TIP3    H1 5028   2.189   2.657   3.399
 1674TIP3    H2 5029   2.213   2.558   3.511
 1675TIP3   OH2 5030   4.645   0.888   3.157
 1675TIP3    H1 5031   4.581   0.944   3.201
 1675TIP3    H2 5032   4.628   0.900   3.064
 1676TIP3   OH2 5033   5.366   3.178   2.774
 1676TIP3    H1 5034   5.292   3.220   2.819
 1676TIP3    H2 5035   5.326   3.107   2.724
 1677TIP3   OH2 5036   3.977   4.603   4.077
 1677TIP3    H1 5037   3.952   4.511   4.084
 1677TIP3    H2 5038   3.928   4.635   4.001
 1678TIP3   OH2 5039   4.954   2.086   3.695
 1678TIP3    H1 5040   4.967   2.076   3.601
 1678TIP3    H2 5041   5.001   2.166   3.717
 1679TIP3   OH2 5042   2.423   1.622   3.202
 1679TIP3    H1 5043   2.457   1.661   3.282
 1679TIP3    H2 5044   2.458   1.678   3.132
 1680TIP3   OH2 5045   5.711   3.116   2.028
 1680TIP3    H1 5046   5.684   3.107   1.937
 1680TIP3    H2 5047   5.690   3.032   2.068
 1681TIP3   OH2 5048   3.870   4.057   4.786
 1681TIP3    H1 5049   3.778   4.073   4.811
 1681TIP3    H2 5050   3.890   3.972   4.824
 1682TIP3   OH2 5051   5.368   1.033   4.097
 1682TIP3    H1 5052   5.404   0.948   4.123
 1682TIP3    H2 5053   5.323   1.066   4.175
 1683TIP3   OH2 5054   4.927   3.326   1.426
 1683TIP3    H1 5055   5.008   3.335   1.477
 1683TIP3    H2 5056   4.888   3.414   1.428
 1684TIP3   OH2 5057   6.247   5.340   2.896
 1684TIP3    H1 5058   6.190   5.341   2.820
 1684TIP3    H2 5059   6.290   5.426   2.896
 1685TIP3   OH2 5060   3.642   2.663   2.901
 1685TIP3    H1 5061   3.674   2.704   2.981
 1685TIP3    H2 5062   3.586   2.729   2.860
 1686TIP3   OH2 5063   2.386   5.449   2.826
 1686TIP3    H1 5064   2.477   5.438   2.852
 1686TIP3    H2 5065   2.336   5.397   2.890
 1687TIP3   OH2 5066   1.606  -0.014   4.346
 1687TIP3    H1 5067   1.563  -0.015   4.260
 1687TIP3    H2 5068   1.538   0.016   4.406
 1688TIP3   OH2 5069   3.402   3.586   4.494
 1688TIP3    H1 5070   3.358   3.579   4.409
 1688TIP3    H2 5071   3.340   3.631   4.550
 1689TIP3   OH2 5072   3.655   2.973   0.826
 1689TIP3    H1 5073   3.650   2.957   0.731
 1689TIP3    H2 5074   3.576   2.931   0.861
 1690TIP3   OH2 5075   5.632   4.347   4.650
 1690TIP3    H1 5076   5.703   4.290   4.620
 1690TIP3    H2 5077   5.650   4.361   4.743
 1691TIP3   OH2 5078   5.842   3.057   3.024
 1691TIP3    H1 5079   5.827   3.094   3.111
 1691TIP3    H2 5080   5.758   3.068   2.979
 1692TIP3   OH2 5081   0.424   3.959   1.016
 1692TIP3    H1 5082   0.505   3.931   1.059
 1692TIP3    H2 5083   0.358   3.895   1.045
 1693TIP3   OH2 5084   4.166   4.593   0.903
 1693TIP3    H1 5085   4.113   4.514   0.908
 1693TIP3    H2 5086   4.154   4.636   0.988
 1694TIP3   OH2 5087   4.698   3.620   4.977
 1694TIP3    H1 5088   4.631   3.571   4.929
 1694TIP3    H2 5089   4.747   3.667   4.909
 1695TIP3   OH2 5090   3.984   4.489   2.981
 1695TIP3    H1 5091   4.054   4.553   2.993
 1695TIP3    H2 5092   3.991   4.432   3.058
 1696TIP3   OH2 5093   4.218   1.869   0.224
 1696TIP3    H1 5094   4.129   1.840   0.204
 1696TIP3    H2 5095   4.263   1.789   0.250
 1697TIP3   OH2 5096   3.760   3.162   4.716
 1697TIP3    H1 5097   3.811   3.242   4.706
 1697TIP3    H2 5098   3.671   3.187   4.687
 1698TIP3   OH2 5099   1.533   4.141   0.118
 1698TIP3    H1 5100   1.458   4.092   0.084
 1698TIP3    H2 5101   1.508   4.163   0.208
 1699TIP3   OH2 5102   4.026   1.140   0.239
 1699TIP3    H1 5103   4.065   1.055   0.220
 1699TIP3    H2 5104   4.101   1.199   0.247
 1700TIP3   OH2 5105   0.618   3.038   2.499
 1700TIP3    H1 5106   0.591   3.025   2.590
 1700TIP3    H2 5107   0.536   3.049   2.451
 1701TIP3   OH2 5108   0.340   2.441   3.284
 1701TIP3    H1 5109   0.395   2.512   3.253
 1701TIP3    H2 5110   0.252   2.479   3.290
 1702TIP3   OH2 5111   0.198   1.038   0.902
 1702TIP3    H1 5112   0.200   1.035   0.997
 1702TIP3    H2 5113   0.285   1.007   0.876
 1703TIP3   OH2 5114   1.375   3.844   3.550
 1703TIP3    H1 5115   1.383   3.752   3.575
 1703TIP3    H2 5116   1.461   3.882   3.569
 1704TIP3   OH2 5117   1.227   1.359   0.296
 1704TIP3    H1 5118   1.188   1.382   0.211
 1704TIP3    H2 5119   1.153   1.364   0.357
 1705TIP3   OH2 5120   5.707   2.316   1.772
 1705TIP3    H1 5121   5.684   2.381   1.838
 1705TIP3    H2 5122   5.750   2.246   1.822
 1706TIP3   OH2 5123   2.534   1.093   1.366
 1706TIP3    H1 5124   2.595   1.039   1.316
 1706TIP3    H2 5125   2.474   1.030   1.406
 1707TIP3   OH2 5126   6.009   1.306   1.182
 1707TIP3    H1 5127   6.061   1.329   1.259
 1707TIP3    H2 5128   6.073   1.268   1.121
 1708TIP3   OH2 5129   4.679   4.170   1.028
 1708TIP3    H1 5130   4.744   4.228   1.067
 1708TIP3    H2 5131   4.697   4.174   0.934
 1709TIP3   OH2 5132   1.998   0.212   2.633
 1709TIP3    H1 5133   1.928   0.170   2.583
 1709TIP3    H2 5134   2.061   0.141   2.649
 1710TIP3   OH2 5135   5.764   3.374   3.439
 1710TIP3    H1 5136   5.743   3.463   3.467
 1710TIP3    H2 5137   5.855   3.361   3.466
 1711TIP3   OH2 5138   4.967   0.950   4.194
 1711TIP3    H1 5139   4.900   0.912   4.138
 1711TIP3    H2 5140   5.012   1.013   4.138
 1712TIP3   OH2 5141   2.393   4.334   2.349
 1712TIP3    H1 5142   2.460   4.277   2.312
 1712TIP3    H2 5143   2.311   4.285   2.338
 1713TIP3   OH2 5144   5.956   5.796   2.331
 1713TIP3    H1 5145   6.050   5.810   2.342
 1713TIP3    H2 5146   5.935   5.726   2.393
 1714TIP3   OH2 5147   4.295   2.646   3.960
 1714TIP3    H1 5148   4.301   2.618   4.051
 1714TIP3    H2 5149   4.202   2.654   3.943
 1715TIP3   OH2 5150   3.380   4.797   0.403
 1715TIP3    H1 5151   3.449   4.863   0.399
 1715TIP3    H2 5152   3.342   4.796   0.315
 1716TIP3   OH2 5153   0.571   5.454   4.278
 1716TIP3    H1 5154   0.587   5.393   4.350
 1716TIP3    H2 5155   0.494   5.418   4.233
 1717TIP3   OH2 5156   2.095   0.062   1.503
 1717TIP3    H1 5157   2.111   0.124   1.574
 1717TIP3    H2 5158   2.018   0.097   1.459
 1718TIP3   OH2 5159   4.790   3.162   3.866
 1718TIP3    H1 5160   4.715   3.159   3.926
 1718TIP3    H2 5161   4.768   3.099   3.797
 1719TIP3   OH2 5162   3.987   0.726   3.915
 1719TIP3    H1 5163   4.073   0.763   3.897
 1719TIP3    H2 5164   3.931   0.802   3.935
 1720TIP3   OH2 5165   0.194   5.891   1.872
 1720TIP3    H1 5166   0.103   5.868   1.852
 1720TIP3    H2 5167   0.243   5.865   1.794
 1721TIP3   OH2 5168   1.386   3.369   2.194
 1721TIP3    H1 5169   1.290   3.366   2.185
 1721TIP3    H2 5170   1.413   3.278   2.187
 1722TIP3   OH2 5171   4.808   5.358   3.891
 1722TIP3    H1 5172   4.749   5.284   3.870
 1722TIP3    H2 5173   4.752   5.421   3.935
 1723TIP3   OH2 5174   0.696   3.196   3.362
 1723TIP3    H1 5175   0.645   3.117   3.385
 1723TIP3    H2 5176   0.648   3.234   3.288
 1724TIP3   OH2 5177   4.476   2.493   2.512
 1724TIP3    H1 5178   4.427   2.571   2.485
 1724TIP3    H2 5179   4.450   2.479   2.603
 1725TIP3   OH2 5180   4.446   0.799   3.650
 1725TIP3    H1 5181   4.358   0.807   3.685
 1725TIP3    H2 5182   4.453   0.871   3.587
 1726TIP3   OH2 5183   3.728   3.846   0.546
 1726TIP3    H1 5184   3.635   3.823   0.547
 1726TIP3    H2 5185   3.762   3.803   0.467
 1727TIP3   OH2 5186   2.474   2.541   3.798
 1727TIP3    H1 5187   2.492   2.593   3.720
 1727TIP3    H2 5188   2.517   2.457   3.782
 1728TIP3   OH2 5189   3.567   3.592   0.842
 1728TIP3    H1 5190   3.583   3.500   0.824
 1728TIP3    H2 5191   3.507   3.592   0.917
 1729TIP3   OH2 5192   5.379   3.708   2.939
 1729TIP3    H1 5193   5.467   3.674   2.919
 1729TIP3    H2 5194   5.395   3.784   2.995
 1730TIP3   OH2 5195   1.540   2.618   4.984
 1730TIP3    H1 5196   1.577   2.601   5.071
 1730TIP3    H2 5197   1.592   2.691   4.950
 1731TIP3   OH2 5198   4.890   1.815   4.740
 1731TIP3    H1 5199   4.819   1.854   4.691
 1731TIP3    H2 5200   4.951   1.887   4.757
 1732TIP3   OH2 5201   6.065   0.576   3.026
 1732TIP3    H1 5202   5.995   0.636   2.999
 1732TIP3    H2 5203   6.130   0.632   3.067
 1733TIP3   OH2 5204   5.557   2.009   1.568
 1733TIP3    H1 5205   5.643   2.012   1.611
 1733TIP3    H2 5206   5.518   1.927   1.598
 1734TIP3   OH2 5207   4.578   2.434   5.198
 1734TIP3    H1 5208   4.625   2.503   5.152
 1734TIP3    H2 5209   4.606   2.353   5.155
 1735TIP3   OH2 5210   1.596   3.551   0.112
 1735TIP3    H1 5211   1.572   3.485   0.177
 1735TIP3    H2 5212   1.512   3.586   0.082
 1736TIP3   OH2 5213   4.882   2.073   0.160
 1736TIP3    H1 5214   4.817   2.006   0.139
 1736TIP3    H2 5215   4.966   2.028   0.149
 1737TIP3   OH2 5216   5.470   0.422   3.774
 1737TIP3    H1 5217   5.379   0.405   3.749
 1737TIP3    H2 5218   5.464   0.468   3.858
 1738TIP3   OH2 5219   1.252   0.662   3.611
 1738TIP3    H1 5220   1.189   0.689   3.678
 1738TIP3    H2 5221   1.288   0.580   3.646
 1739TIP3   OH2 5222   5.827   0.600   4.514
 1739TIP3    H1 5223   5.855   0.681   4.470
 1739TIP3    H2 5224   5.797   0.544   4.443
 1740TIP3   OH2 5225   3.799   4.092   0.093
 1740TIP3    H1 5226   3.762   4.158   0.152
 1740TIP3    H2 5227   3.792   4.131   0.006
 1741TIP3   OH2 5228   6.143   4.332   2.099
 1741TIP3    H1 5229   6.079   4.306   2.165
 1741TIP3    H2 5230   6.090   4.360   2.024
 1742TIP3   OH2 5231   5.764   2.604   5.147
 1742TIP3    H1 5232   5.822   2.630   5.075
 1742TIP3    H2 5233   5.780   2.511   5.157
 1743TIP3   OH2 5234   5.661   4.048   1.957
 1743TIP3    H1 5235   5.673   3.975   2.018
 1743TIP3    H2 5236   5.716   4.027   1.882
 1744TIP3   OH2 5237   1.378   0.241   3.216
 1744TIP3    H1 5238   1.443   0.288   3.269
 1744TIP3    H2 5239   1.296   0.251   3.265
 1745TIP3   OH2 5240   2.501   1.563   2.910
 1745TIP3    H1 5241   2.492   1.643   2.858
 1745TIP3    H2 5242   2.430   1.507   2.879
 1746TIP3   OH2 5243   0.931   4.898   2.677
 1746TIP3    H1 5244   0.970   4.822   2.720
 1746TIP3    H2 5245   0.957   4.890   2.585
 1747TIP3   OH2 5246   0.235   4.588   1.337
 1747TIP3    H1 5247   0.305   4.576   1.272
 1747TIP3    H2 5248   0.192   4.502   1.340
 1748TIP3   OH2 5249   2.460   2.422   0.937
 1748TIP3    H1 5250   2.512   2.346   0.909
 1748TIP3    H2 5251   2.502   2.450   1.018
 1749TIP3   OH2 5252   1.485   2.777   3.421
 1749TIP3    H1 5253   1.437   2.830   3.485
 1749TIP3    H2 5254   1.481   2.827   3.340
 1750TIP3   OH2 5255   3.282   3.911   0.399
 1750TIP3    H1 5256   3.310   3.999   0.424
 1750TIP3    H2 5257   3.357   3.875   0.350
 1751TIP3   OH2 5258   4.593   2.053   1.359
 1751TIP3    H1 5259   4.671   2.005   1.333
 1751TIP3    H2 5260   4.607   2.074   1.451
 1752TIP3   OH2 5261   0.080   4.838   4.322
 1752TIP3    H1 5262   0.085   4.885   4.239
 1752TIP3    H2 5263   0.005   4.779   4.312
 1753TIP3   OH2 5264   3.418   1.697   1.439
 1753TIP3    H1 5265   3.411   1.605   1.412
 1753TIP3    H2 5266   3.492   1.698   1.500
 1754TIP3   OH2 5267   0.269   1.742   4.431
 1754TIP3    H1 5268   0.174   1.740   4.430
 1754TIP3    H2 5269   0.292   1.816   4.487
 1755TIP3   OH2 5270   1.366   1.950   0.999
 1755TIP3    H1 5271   1.421   1.904   0.936
 1755TIP3    H2 5272   1.404   2.038   1.003
 1756TIP3   OH2 5273   5.591   4.182   1.268
 1756TIP3    H1 5274   5.662   4.213   1.213
 1756TIP3    H2 5275   5.511   4.209   1.222
 1757TIP3   OH2 5276   1.968   0.806   3.915
 1757TIP3    H1 5277   1.996   0.895   3.893
 1757TIP3    H2 5278   1.891   0.791   3.859
 1758TIP3   OH2 5279   0.606   5.310   3.709
 1758TIP3    H1 5280   0.643   5.228   3.742
 1758TIP3    H2 5281   0.548   5.283   3.638
 1759TIP3   OH2 5282   0.852   2.066   1.986
 1759TIP3    H1 5283   0.803   2.019   1.918
 1759TIP3    H2 5284   0.789   2.079   2.057
 1760TIP3   OH2 5285   4.451   1.652   2.877
 1760TIP3    H1 5286   4.434   1.570   2.830
 1760TIP3    H2 5287   4.444   1.720   2.809
 1761TIP3   OH2 5288   3.057   1.792   4.794
 1761TIP3    H1 5289   3.056   1.826   4.883
 1761TIP3    H2 5290   3.097   1.705   4.801
 1762TIP3   OH2 5291   2.355   1.695   2.505
 1762TIP3    H1 5292   2.268   1.673   2.472
 1762TIP3    H2 5293   2.415   1.646   2.449
 1763TIP3   OH2 5294   2.204   5.653   4.969
 1763TIP3    H1 5295   2.184   5.560   4.958
 1763TIP3    H2 5296   2.119   5.696   4.965
 1764TIP3   OH2 5297   4.371   0.424   2.767
 1764TIP3    H1 5298   4.365   0.346   2.823
 1764TIP3    H2 5299   4.285   0.431   2.726
 1765TIP3   OH2 5300   6.068   0.628   4.278
 1765TIP3    H1 5301   6.038   0.706   4.324
 1765TIP3    H2 5302   6.066   0.559   4.345
 1766TIP3   OH2 5303   5.849   3.134   0.800
 1766TIP3    H1 5304   5.865   3.043   0.824
 1766TIP3    H2 5305   5.873   3.184   0.878
 1767TIP3   OH2 5306   5.958   0.415   2.535
 1767TIP3    H1 5307   5.907   0.421   2.454
 1767TIP3    H2 5308   5.919   0.342   2.583
 1768TIP3   OH2 5309   2.113   4.099   1.339
 1768TIP3    H1 5310   2.113   4.068   1.430
 1768TIP3    H2 5311   2.022   4.089   1.310
 1769TIP3   OH2 5312   4.076   0.108   3.842
 1769TIP3    H1 5313   4.097   0.129   3.933
 1769TIP3    H2 5314   3.987   0.142   3.829
 1770TIP3   OH2 5315   5.875   2.964   5.051
 1770TIP3    H1 5316   5.858   2.931   5.139
 1770TIP3    H2 5317   5.837   2.899   4.993
 1771TIP3   OH2 5318   0.193   4.659   1.637
 1771TIP3    H1 5319   0.144   4.603   1.698
 1771TIP3    H2 5320   0.257   4.704   1.692
 1772TIP3   OH2 5321   2.102   0.674   2.452
 1772TIP3    H1 5322   2.032   0.633   2.401
 1772TIP3    H2 5323   2.056   0.740   2.505
 1773TIP3   OH2 5324   2.521   1.307   5.091
 1773TIP3    H1 5325   2.433   1.337   5.071
 1773TIP3    H2 5326   2.579   1.371   5.049
 1774TIP3   OH2 5327   5.244   4.051   3.700
 1774TIP3    H1 5328   5.229   4.053   3.605
 1774TIP3    H2 5329   5.271   3.962   3.719
 1775TIP3   OH2 5330   5.295   5.818   4.365
 1775TIP3    H1 5331   5.210   5.801   4.405
 1775TIP3    H2 5332   5.301   5.913   4.359
 1776TIP3   OH2 5333   1.277   1.285   0.823
 1776TIP3    H1 5334   1.183   1.284   0.842
 1776TIP3    H2 5335   1.282   1.313   0.731
 1777TIP3   OH2 5336   2.115   0.627   1.787
 1777TIP3    H1 5337   2.066   0.697   1.831
 1777TIP3    H2 5338   2.199   0.625   1.834
 1778TIP3   OH2 5339   1.228   1.989   4.182
 1778TIP3    H1 5340   1.236   1.993   4.278
 1778TIP3    H2 5341   1.303   1.936   4.154
 1779TIP3   OH2 5342   4.282   5.262   2.400
 1779TIP3    H1 5343   4.224   5.202   2.352
 1779TIP3    H2 5344   4.370   5.230   2.381
 1780TIP3   OH2 5345   1.638  -0.023   2.941
 1780TIP3    H1 5346   1.554  -0.019   2.985
 1780TIP3    H2 5347   1.625   0.024   2.859
 1781TIP3   OH2 5348   1.213   1.548   1.409
 1781TIP3    H1 5349   1.287   1.488   1.420
 1781TIP3    H2 5350   1.137   1.491   1.400
 1782TIP3   OH2 5351   5.604  -0.010   1.867
 1782TIP3    H1 5352   5.607   0.086   1.870
 1782TIP3    H2 5353   5.688  -0.035   1.827
 1783TIP3   OH2 5354   5.704   4.661   1.665
 1783TIP3    H1 5355   5.748   4.658   1.750
 1783TIP3    H2 5356   5.771   4.696   1.605
 1784TIP3   OH2 5357   2.586   3.880   4.031
 1784TIP3    H1 5358   2.618   3.923   4.110
 1784TIP3    H2 5359   2.664   3.867   3.977
 1785TIP3   OH2 5360   1.882   0.084   3.204
 1785TIP3    H1 5361   1.879   0.178   3.187
 1785TIP3    H2 5362   1.870   0.076   3.299
 1786TIP3   OH2 5363   2.298   2.642   1.971
 1786TIP3    H1 5364   2.205   2.665   1.982
 1786TIP3    H2 5365   2.326   2.613   2.058
 1787TIP3   OH2 5366   5.202   5.633   0.343
 1787TIP3    H1 5367   5.177   5.547   0.377
 1787TIP3    H2 5368   5.297   5.629   0.335
 1788TIP3   OH2 5369   4.407   2.455   2.772
 1788TIP3    H1 5370   4.357   2.536   2.763
 1788TIP3    H2 5371   4.357   2.402   2.834
 1789TIP3   OH2 5372   5.301   4.132   0.040
 1789TIP3    H1 5373   5.363   4.068   0.005
 1789TIP3    H2 5374   5.305   4.206  -0.020
 1790TIP3   OH2 5375   5.843   0.399   1.103
 1790TIP3    H1 5376   5.748   0.405   1.091
 1790TIP3    H2 5377   5.871   0.490   1.114
 1791TIP3   OH2 5378   6.225   5.789   1.572
 1791TIP3    H1 5379   6.132   5.769   1.562
 1791TIP3    H2 5380   6.232   5.881   1.547
 1792TIP3   OH2 5381   2.722   0.856   5.142
 1792TIP3    H1 5382   2.760   0.908   5.071
 1792TIP3    H2 5383   2.635   0.894   5.156
 1793TIP3   OH2 5384   6.012   5.329   3.795
 1793TIP3    H1 5385   5.949   5.258   3.779
 1793TIP3    H2 5386   6.054   5.306   3.878
 1794TIP3   OH2 5387   6.019   2.107   2.339
 1794TIP3    H1 5388   5.991   2.195   2.362
 1794TIP3    H2 5389   6.040   2.112   2.246
 1795TIP3   OH2 5390   4.491   0.092   4.335
 1795TIP3    H1 5391   4.424   0.053   4.280
 1795TIP3    H2 5392   4.571   0.089   4.282
 1796TIP3   OH2 5393   2.484   4.141   4.317
 1796TIP3    H1 5394   2.471   4.221   4.369
 1796TIP3    H2 5395   2.579   4.130   4.313
 1797TIP3   OH2 5396   4.199   5.269   1.040
 1797TIP3    H1 5397   4.222   5.307   0.955
 1797TIP3    H2 5398   4.257   5.194   1.049
 1798TIP3   OH2 5399   5.259   2.417   2.586
 1798TIP3    H1 5400   5.226   2.494   2.632
 1798TIP3    H2 5401   5.266   2.349   2.653
 1799TIP3   OH2 5402   2.049   5.952   0.300
 1799TIP3    H1 5403   2.017   5.872   0.257
 1799TIP3    H2 5404   1.972   6.008   0.306
 1800TIP3   OH2 5405   5.546   1.764   0.928
 1800TIP3    H1 5406   5.525   1.695   0.992
 1800TIP3    H2 5407   5.539   1.846   0.977
 1801TIP3   OH2 5408   2.586   5.889   3.713
 1801TIP3    H1 5409   2.676   5.919   3.703
 1801TIP3    H2 5410   2.579   5.814   3.655
 1802TIP3   OH2 5411   3.802   3.003   2.171
 1802TIP3    H1 5412   3.778   3.037   2.258
 1802TIP3    H2 5413   3.728   3.027   2.115
 1803TIP3   OH2 5414   0.742   4.391   0.044
 1803TIP3    H1 5415   0.818   4.448   0.058
 1803TIP3    H2 5416   0.776   4.302   0.055
 1804TIP3   OH2 5417   4.686   1.149   3.696
 1804TIP3    H1 5418   4.689   1.126   3.604
 1804TIP3    H2 5419   4.676   1.066   3.742
 1805TIP3   OH2 5420   1.808   1.556   1.107
 1805TIP3    H1 5421   1.796   1.636   1.055
 1805TIP3    H2 5422   1.825   1.589   1.196
 1806TIP3   OH2 5423   1.631   4.390   0.043
 1806TIP3    H1 5424   1.604   4.300   0.061
 1806TIP3    H2 5425   1.569   4.420  -0.024
 1807TIP3   OH2 5426   0.274   0.795   1.770
 1807TIP3    H1 5427   0.348   0.741   1.741
 1807TIP3    H2 5428   0.314   0.875   1.802
 1808TIP3   OH2 5429   5.215   5.608   1.590
 1808TIP3    H1 5430   5.230   5.602   1.684
 1808TIP3    H2 5431   5.302   5.621   1.552
 1809TIP3   OH2 5432   5.057   3.720   5.241
 1809TIP3    H1 5433   5.120   3.701   5.171
 1809TIP3    H2 5434   5.075   3.654   5.308
 1810TIP3   OH2 5435   0.191   2.468   2.376
 1810TIP3    H1 5436   0.166   2.417   2.453
 1810TIP3    H2 5437   0.237   2.406   2.319
 1811TIP3   OH2 5438   3.535   0.252   5.205
 1811TIP3    H1 5439   3.442   0.276   5.211
 1811TIP3    H2 5440   3.547   0.186   5.274
 1812TIP3   OH2 5441   3.026   3.614   5.163
 1812TIP3    H1 5442   2.935   3.587   5.175
 1812TIP3    H2 5443   3.072   3.532   5.145
 1813TIP3   OH2 5444   5.953   5.332   5.103
 1813TIP3    H1 5445   5.956   5.411   5.157
 1813TIP3    H2 5446   5.948   5.364   5.013
 1814TIP3   OH2 5447   2.935   1.528   4.016
 1814TIP3    H1 5448   2.981   1.468   3.957
 1814TIP3    H2 5449   2.973   1.511   4.102
 1815TIP3   OH2 5450   4.704   3.926   4.006
 1815TIP3    H1 5451   4.750   3.969   3.935
 1815TIP3    H2 5452   4.729   3.975   4.084
 1816TIP3   OH2 5453   1.813   0.083   2.488
 1816TIP3    H1 5454   1.752   0.147   2.452
 1816TIP3    H2 5455   1.851   0.040   2.411
 1817TIP3   OH2 5456   3.937   4.604   2.135
 1817TIP3    H1 5457   3.869   4.647   2.188
 1817TIP3    H2 5458   4.015   4.659   2.148
 1818TIP3   OH2 5459   6.160   3.862   1.809
 1818TIP3    H1 5460   6.250   3.880   1.838
 1818TIP3    H2 5461   6.116   3.947   1.817
 1819TIP3   OH2 5462   5.545   3.734   0.754
 1819TIP3    H1 5463   5.463   3.693   0.727
 1819TIP3    H2 5464   5.605   3.661   0.765
 1820TIP3   OH2 5465   0.087   1.820   0.368
 1820TIP3    H1 5466   0.048   1.894   0.413
 1820TIP3    H2 5467   0.107   1.757   0.437
 1821TIP3   OH2 5468   5.847   2.585   0.784
 1821TIP3    H1 5469   5.938   2.576   0.755
 1821TIP3    H2 5470   5.811   2.497   0.773
 1822TIP3   OH2 5471   1.938   0.328   0.850
 1822TIP3    H1 5472   1.946   0.391   0.922
 1822TIP3    H2 5473   1.859   0.355   0.803
 1823TIP3   OH2 5474   6.164   4.746   4.349
 1823TIP3    H1 5475   6.140   4.692   4.273
 1823TIP3    H2 5476   6.100   4.817   4.349
 1824TIP3   OH2 5477   4.763   3.764   5.193
 1824TIP3    H1 5478   4.854   3.736   5.208
 1824TIP3    H2 5479   4.739   3.720   5.111
 1825TIP3   OH2 5480   5.177   4.076   0.277
 1825TIP3    H1 5481   5.261   4.039   0.305
 1825TIP3    H2 5482   5.194   4.109   0.188
 1826TIP3   OH2 5483   5.122   1.139   4.692
 1826TIP3    H1 5484   5.210   1.105   4.708
 1826TIP3    H2 5485   5.135   1.212   4.632
 1827TIP3   OH2 5486   2.913   3.770   1.568
 1827TIP3    H1 5487   2.837   3.799   1.519
 1827TIP3    H2 5488   2.983   3.830   1.543
 1828TIP3   OH2 5489   5.444   3.373   3.980
 1828TIP3    H1 5490   5.366   3.338   4.022
 1828TIP3    H2 5491   5.514   3.362   4.044
 1829TIP3   OH2 5492   1.339   1.808   1.549
 1829TIP3    H1 5493   1.284   1.834   1.476
 1829TIP3    H2 5494   1.282   1.756   1.605
 1830TIP3   OH2 5495   4.274   1.376   4.633
 1830TIP3    H1 5496   4.232   1.291   4.645
 1830TIP3    H2 5497   4.367   1.356   4.622
 1831TIP3   OH2 5498   0.719   4.835   5.111
 1831TIP3    H1 5499   0.667   4.784   5.174
 1831TIP3    H2 5500   0.658   4.900   5.077
 1832TIP3   OH2 5501   0.237   4.827   0.590
 1832TIP3    H1 5502   0.244   4.807   0.497
 1832TIP3    H2 5503   0.155   4.877   0.598
 1833TIP3   OH2 5504   1.046   2.099   2.197
 1833TIP3    H1 5505   1.021   2.181   2.238
 1833TIP3    H2 5506   0.977   2.082   2.133
 1834TIP3   OH2 5507   4.425   1.875   4.640
 1834TIP3    H1 5508   4.428   1.902   4.732
 1834TIP3    H2 5509   4.368   1.799   4.639
 1835TIP3   OH2 5510   3.712   5.513   0.052
 1835TIP3    H1 5511   3.763   5.562   0.117
 1835TIP3    H2 5512   3.631   5.490   0.097
 1836TIP3   OH2 5513   4.701   3.474   4.308
 1836TIP3    H1 5514   4.617   3.430   4.292
 1836TIP3    H2 5515   4.765   3.403   4.309
 1837TIP3   OH2 5516   2.693   3.111   3.538
 1837TIP3    H1 5517   2.608   3.088   3.576
 1837TIP3    H2 5518   2.680   3.199   3.504
 1838TIP3   OH2 5519   4.536   5.073   4.656
 1838TIP3    H1 5520   4.586   5.000   4.622
 1838TIP3    H2 5521   4.445   5.050   4.638
 1839TIP3   OH2 5522   1.510   5.953   4.381
 1839TIP3    H1 5523   1.572   6.025   4.382
 1839TIP3    H2 5524   1.458   5.965   4.461
 1840TIP3   OH2 5525   0.716   4.368   3.277
 1840TIP3    H1 5526   0.772   4.429   3.230
 1840TIP3    H2 5527   0.695   4.300   3.213
 1841TIP3   OH2 5528   0.785   0.202   1.899
 1841TIP3    H1 5529   0.694   0.201   1.930
 1841TIP3    H2 5530   0.829   0.264   1.957
 1842TIP3   OH2 5531   1.102   4.503   2.409
 1842TIP3    H1 5532   1.152   4.584   2.415
 1842TIP3    H2 5533   1.032   4.522   2.347
 1843TIP3   OH2 5534   6.194   3.814   2.197
 1843TIP3    H1 5535   6.224   3.870   2.126
 1843TIP3    H2 5536   6.114   3.856   2.229
 1844TIP3   OH2 5537   1.114   5.072   3.182
 1844TIP3    H1 5538   1.029   5.115   3.175
 1844TIP3    H2 5539   1.144   5.093   3.271
 1845TIP3   OH2 5540   0.744   4.937   2.274
 1845TIP3    H1 5541   0.660   4.934   2.230
 1845TIP3    H2 5542   0.808   4.943   2.203
 1846TIP3   OH2 5543   3.663   2.208   2.054
 1846TIP3    H1 5544   3.577   2.251   2.046
 1846TIP3    H2 5545   3.644   2.123   2.093
 1847TIP3   OH2 5546   2.762   0.321   1.478
 1847TIP3    H1 5547   2.802   0.246   1.523
 1847TIP3    H2 5548   2.681   0.286   1.441
 1848TIP3   OH2 5549   4.882   4.982   2.092
 1848TIP3    H1 5550   4.877   4.887   2.090
 1848TIP3    H2 5551   4.947   5.002   2.160
 1849TIP3   OH2 5552   2.669   2.443   1.162
 1849TIP3    H1 5553   2.605   2.450   1.233
 1849TIP3    H2 5554   2.753   2.464   1.203
 1850TIP3   OH2 5555   0.910   4.395   4.632
 1850TIP3    H1 5556   0.930   4.325   4.570
 1850TIP3    H2 5557   0.930   4.358   4.718
 1851TIP3   OH2 5558   6.243   3.439   3.607
 1851TIP3    H1 5559   6.295   3.361   3.585
 1851TIP3    H2 5560   6.208   3.421   3.694
 1852TIP3   OH2 5561   2.008   4.352   4.625
 1852TIP3    H1 5562   1.959   4.418   4.676
 1852TIP3    H2 5563   2.056   4.303   4.691
 1853TIP3   OH2 5564   0.281   3.063   4.947
 1853TIP3    H1 5565   0.371   3.030   4.946
 1853TIP3    H2 5566   0.258   3.067   5.040
 1854TIP3   OH2 5567   2.473   5.594   1.600
 1854TIP3    H1 5568   2.416   5.571   1.526
 1854TIP3    H2 5569   2.413   5.608   1.673
 1855TIP3   OH2 5570   5.753   1.642   0.529
 1855TIP3    H1 5571   5.790   1.610   0.611
 1855TIP3    H2 5572   5.785   1.580   0.463
 1856TIP3   OH2 5573   6.287   1.054   1.687
 1856TIP3    H1 5574   6.378   1.077   1.707
 1856TIP3    H2 5575   6.276   0.966   1.723
 1857TIP3   OH2 5576   3.476   2.386   2.899
 1857TIP3    H1 5577   3.510   2.403   2.811
 1857TIP3    H2 5578   3.552   2.358   2.950
 1858TIP3   OH2 5579   3.750   1.036   3.424
 1858TIP3    H1 5580   3.708   0.986   3.494
 1858TIP3    H2 5581   3.834   0.992   3.410
 1859TIP3   OH2 5582   6.243   1.650   3.363
 1859TIP3    H1 5583   6.335   1.663   3.385
 1859TIP3    H2 5584   6.242   1.572   3.308
 1860TIP3   OH2 5585   1.738   3.008   3.931
 1860TIP3    H1 5586   1.713   2.926   3.888
 1860TIP3    H2 5587   1.776   2.982   4.014
 1861TIP3   OH2 5588   6.125   2.500   0.719
 1861TIP3    H1 5589   6.085   2.427   0.766
 1861TIP3    H2 5590   6.218   2.481   0.719
 1862TIP3   OH2 5591   0.531   0.973   4.439
 1862TIP3    H1 5592   0.536   1.016   4.524
 1862TIP3    H2 5593   0.457   0.913   4.446
 1863TIP3   OH2 5594   6.248   4.893   4.976
 1863TIP3    H1 5595   6.210   4.937   4.900
 1863TIP3    H2 5596   6.299   4.961   5.020
 1864TIP3   OH2 5597   6.107   0.093   1.247
 1864TIP3    H1 5598   6.138   0.178   1.278
 1864TIP3    H2 5599   6.165   0.071   1.175
 1865TIP3   OH2 5600   3.909   1.953   2.091
 1865TIP3    H1 5601   4.003   1.941   2.081
 1865TIP3    H2 5602   3.882   1.886   2.154
 1866TIP3   OH2 5603   0.635   0.276   0.221
 1866TIP3    H1 5604   0.718   0.302   0.260
 1866TIP3    H2 5605   0.655   0.196   0.173
 1867TIP3   OH2 5606   3.565   3.717   1.299
 1867TIP3    H1 5607   3.660   3.729   1.304
 1867TIP3    H2 5608   3.530   3.769   1.371
 1868TIP3   OH2 5609   5.740   5.243   0.213
 1868TIP3    H1 5610   5.769   5.258   0.123
 1868TIP3    H2 5611   5.762   5.324   0.259
 1869TIP3   OH2 5612   5.878   5.651   4.681
 1869TIP3    H1 5613   5.942   5.717   4.707
 1869TIP3    H2 5614   5.793   5.692   4.697
 1870TIP3   OH2 5615   0.091   3.079   2.526
 1870TIP3    H1 5616   0.042   3.006   2.564
 1870TIP3    H2 5617   0.075   3.153   2.584
 1871TIP3   OH2 5618   4.371   2.499   1.764
 1871TIP3    H1 5619   4.428   2.534   1.833
 1871TIP3    H2 5620   4.293   2.469   1.811
 1872TIP3   OH2 5621   4.862   5.145   1.497
 1872TIP3    H1 5622   4.928   5.076   1.494
 1872TIP3    H2 5623   4.902   5.215   1.549
 1873TIP3   OH2 5624   4.285   4.480   3.438
 1873TIP3    H1 5625   4.379   4.482   3.423
 1873TIP3    H2 5626   4.272   4.412   3.504
 1874TIP3   OH2 5627   4.330   1.335   1.316
 1874TIP3    H1 5628   4.413   1.312   1.358
 1874TIP3    H2 5629   4.310   1.422   1.350
 1875TIP3   OH2 5630   3.480   5.771   3.415
 1875TIP3    H1 5631   3.526   5.770   3.331
 1875TIP3    H2 5632   3.490   5.861   3.446
 1876TIP3   OH2 5633   3.585   4.151   3.555
 1876TIP3    H1 5634   3.632   4.069   3.541
 1876TIP3    H2 5635   3.495   4.124   3.577
 1877TIP3   OH2 5636   3.319   0.702   0.926
 1877TIP3    H1 5637   3.307   0.788   0.965
 1877TIP3    H2 5638   3.254   0.698   0.856
 1878TIP3   OH2 5639   1.315   0.996   0.906
 1878TIP3    H1 5640   1.312   1.080   0.859
 1878TIP3    H2 5641   1.400   0.958   0.882
 1879TIP3   OH2 5642   0.672   5.753   2.359
 1879TIP3    H1 5643   0.668   5.763   2.264
 1879TIP3    H2 5644   0.732   5.822   2.388
 1880TIP3   OH2 5645   1.008   0.125   3.956
 1880TIP3    H1 5646   0.970   0.137   3.868
 1880TIP3    H2 5647   1.078   0.061   3.943
 1881TIP3   OH2 5648   2.667   1.389   2.526
 1881TIP3    H1 5649   2.610   1.313   2.520
 1881TIP3    H2 5650   2.726   1.370   2.600
 1882TIP3   OH2 5651   2.440   1.910   1.160
 1882TIP3    H1 5652   2.416   1.818   1.164
 1882TIP3    H2 5653   2.356   1.957   1.152
 1883TIP3   OH2 5654   5.586   0.034   0.289
 1883TIP3    H1 5655   5.643   0.041   0.212
 1883TIP3    H2 5656   5.510   0.087   0.267
 1884TIP3   OH2 5657   4.271   0.567   4.000
 1884TIP3    H1 5658   4.242   0.613   4.078
 1884TIP3    H2 5659   4.356   0.606   3.980
 1885TIP3   OH2 5660   4.969   5.818   0.308
 1885TIP3    H1 5661   4.991   5.896   0.359
 1885TIP3    H2 5662   5.049   5.764   0.310
 1886TIP3   OH2 5663   3.849   0.551   2.066
 1886TIP3    H1 5664   3.794   0.510   2.133
 1886TIP3    H2 5665   3.934   0.508   2.075
 1887TIP3   OH2 5666   4.901   1.200   3.162
 1887TIP3    H1 5667   4.913   1.108   3.138
 1887TIP3    H2 5668   4.982   1.223   3.207
 1888TIP3   OH2 5669   3.867   1.210   3.936
 1888TIP3    H1 5670   3.860   1.188   4.029
 1888TIP3    H2 5671   3.914   1.136   3.898
 1889TIP3   OH2 5672   4.756   3.122   4.641
 1889TIP3    H1 5673   4.683   3.080   4.595
 1889TIP3    H2 5674   4.770   3.067   4.718
 1890TIP3   OH2 5675   1.902   4.573   3.249
 1890TIP3    H1 5676   1.969   4.528   3.302
 1890TIP3    H2 5677   1.819   4.550   3.291
 1891TIP3   OH2 5678   0.321   5.652   3.480
 1891TIP3    H1 5679   0.270   5.724   3.443
 1891TIP3    H2 5680   0.358   5.688   3.561
 1892TIP3   OH2 5681   6.068   3.173   0.442
 1892TIP3    H1 5682   6.148   3.132   0.408
 1892TIP3    H2 5683   5.998   3.114   0.416
 1893TIP3   OH2 5684   6.281   5.651   3.547
 1893TIP3    H1 5685   6.325   5.702   3.615
 1893TIP3    H2 5686   6.200   5.698   3.530
 1894TIP3   OH2 5687   1.677   5.522   4.627
 1894TIP3    H1 5688   1.703   5.498   4.716
 1894TIP3    H2 5689   1.697   5.615   4.621
 1895TIP3   OH2 5690   6.389   5.604   3.298
 1895TIP3    H1 5691   6.327   5.533   3.281
 1895TIP3    H2 5692   6.367   5.634   3.386
 1896TIP3   OH2 5693   4.476   5.945   4.983
 1896TIP3    H1 5694   4.529   5.871   4.955
 1896TIP3    H2 5695   4.511   6.019   4.933
 1897TIP3   OH2 5696   4.577   3.929   4.830
 1897TIP3    H1 5697   4.662   3.966   4.856
 1897TIP3    H2 5698   4.598   3.841   4.799
 1898TIP3   OH2 5699   4.069   3.109   2.213
 1898TIP3    H1 5700   4.090   3.164   2.138
 1898TIP3    H2 5701   3.977   3.084   2.199
 1899TIP3   OH2 5702   5.173   5.013   5.030
 1899TIP3    H1 5703   5.098   5.039   5.083
 1899TIP3    H2 5704   5.174   4.917   5.036
 1900TIP3   OH2 5705   1.862   5.280   3.418
 1900TIP3    H1 5706   1.849   5.196   3.374
 1900TIP3    H2 5707   1.863   5.344   3.347
 1901TIP3   OH2 5708   5.424   0.230   1.392
 1901TIP3    H1 5709   5.439   0.263   1.481
 1901TIP3    H2 5710   5.355   0.164   1.401
 1902TIP3   OH2 5711   0.216   5.639   2.593
 1902TIP3    H1 5712   0.278   5.583   2.639
 1902TIP3    H2 5713   0.260   5.661   2.511
 1903TIP3   OH2 5714   3.155   4.334   0.375
 1903TIP3    H1 5715   3.193   4.252   0.343
 1903TIP3    H2 5716   3.115   4.311   0.458
 1904TIP3   OH2 5717   1.190   2.835   1.510
 1904TIP3    H1 5718   1.170   2.741   1.507
 1904TIP3    H2 5719   1.273   2.840   1.557
 1905TIP3   OH2 5720   4.706   1.067   3.430
 1905TIP3    H1 5721   4.763   0.992   3.412
 1905TIP3    H2 5722   4.739   1.137   3.373
 1906TIP3   OH2 5723   4.106   4.565   2.449
 1906TIP3    H1 5724   4.187   4.558   2.499
 1906TIP3    H2 5725   4.124   4.635   2.385
 1907TIP3   OH2 5726   4.912   0.411   1.769
 1907TIP3    H1 5727   4.940   0.404   1.677
 1907TIP3    H2 5728   4.835   0.354   1.775
 1908TIP3   OH2 5729   3.129   1.337   4.125
 1908TIP3    H1 5730   3.208   1.283   4.122
 1908TIP3    H2 5731   3.076   1.307   4.052
 1909TIP3   OH2 5732   0.885   4.169   1.657
 1909TIP3    H1 5733   0.797   4.200   1.680
 1909TIP3    H2 5734   0.903   4.209   1.572
 1910TIP3   OH2 5735   2.358   4.443   3.636
 1910TIP3    H1 5736   2.303   4.375   3.676
 1910TIP3    H2 5737   2.335   4.522   3.684
 1911TIP3   OH2 5738   0.468   3.554   1.443
 1911TIP3    H1 5739   0.372   3.547   1.450
 1911TIP3    H2 5740   0.493   3.476   1.394
 1912TIP3   OH2 5741   0.004   2.289   2.566
 1912TIP3    H1 5742  -0.044   2.366   2.538
 1912TIP3    H2 5743   0.038   2.312   2.653
 1913TIP3   OH2 5744   4.763   3.619   1.138
 1913TIP3    H1 5745   4.800   3.536   1.108
 1913TIP3    H2 5746   4.768   3.677   1.062
 1914TIP3   OH2 5747   5.978   1.419   4.153
 1914TIP3    H1 5748   6.003   1.424   4.061
 1914TIP3    H2 5749   6.038   1.354   4.191
 1915TIP3   OH2 5750   4.915   5.470   3.683
 1915TIP3    H1 5751   4.866   5.451   3.763
 1915TIP3    H2 5752   4.926   5.385   3.640
 1916TIP3   OH2 5753   1.410   1.732   0.022
 1916TIP3    H1 5754   1.430   1.695  -0.064
 1916TIP3    H2 5755   1.351   1.669   0.062
 1917TIP3   OH2 5756   5.307   2.085   3.499
 1917TIP3    H1 5757   5.234   2.142   3.476
 1917TIP3    H2 5758   5.302   2.013   3.435
 1918TIP3   OH2 5759   0.461   4.239   0.025
 1918TIP3    H1 5760   0.395   4.187  -0.022
 1918TIP3    H2 5761   0.461   4.204   0.114
 1919TIP3   OH2 5762   6.131   5.790   0.104
 1919TIP3    H1 5763   6.150   5.868   0.053
 1919TIP3    H2 5764   6.178   5.720   0.059
 1920TIP3   OH2 5765   2.189   3.502   4.025
 1920TIP3    H1 5766   2.102   3.533   4.000
 1920TIP3    H2 5767   2.177   3.467   4.114
 1921TIP3   OH2 5768   3.756   3.714   2.119
 1921TIP3    H1 5769   3.763   3.809   2.132
 1921TIP3    H2 5770   3.804   3.676   2.192
 1922TIP3   OH2 5771   3.704   4.732   4.639
 1922TIP3    H1 5772   3.755   4.782   4.703
 1922TIP3    H2 5773   3.613   4.750   4.664
 1923TIP3   OH2 5774   3.837   3.811   1.227
 1923TIP3    H1 5775   3.867   3.887   1.177
 1923TIP3    H2 5776   3.821   3.845   1.315
 1924TIP3   OH2 5777   5.623   4.928   4.988
 1924TIP3    H1 5778   5.712   4.895   4.981
 1924TIP3    H2 5779   5.595   4.904   5.076
 1925TIP3   OH2 5780   3.615   0.808   0.563
 1925TIP3    H1 5781   3.605   0.882   0.623
 1925TIP3    H2 5782   3.697   0.826   0.516
 1926TIP3   OH2 5783   0.242   2.796   4.907
 1926TIP3    H1 5784   0.266   2.880   4.946
 1926TIP3    H2 5785   0.301   2.788   4.832
 1927TIP3   OH2 5786   2.030   4.894   2.642
 1927TIP3    H1 5787   2.075   4.824   2.595
 1927TIP3    H2 5788   2.081   4.972   2.622
 1928TIP3   OH2 5789   4.267   5.380   0.151
 1928TIP3    H1 5790   4.291   5.434   0.227
 1928TIP3    H2 5791   4.171   5.379   0.153
 1929TIP3   OH2 5792   4.549   4.602   2.368
 1929TIP3    H1 5793   4.592   4.538   2.312
 1929TIP3    H2 5794   4.477   4.636   2.315
 1930TIP3   OH2 5795   3.470   5.404   0.152
 1930TIP3    H1 5796   3.433   5.438   0.233
 1930TIP3    H2 5797   3.426   5.453   0.083
 1931TIP3   OH2 5798   4.402   4.025   1.457
 1931TIP3    H1 5799   4.347   4.076   1.516
 1931TIP3    H2 5800   4.348   3.950   1.432
 1932TIP3   OH2 5801   3.453   1.027   1.863
 1932TIP3    H1 5802   3.449   0.982   1.779
 1932TIP3    H2 5803   3.393   0.978   1.920
 1933TIP3   OH2 5804   6.113   5.514   4.060
 1933TIP3    H1 5805   6.096   5.557   3.976
 1933TIP3    H2 5806   6.113   5.420   4.039
 1934TIP3   OH2 5807   3.100   3.765   2.474
 1934TIP3    H1 5808   3.112   3.794   2.384
 1934TIP3    H2 5809   3.010   3.734   2.478
 1935TIP3   OH2 5810   1.669   2.583   0.410
 1935TIP3    H1 5811   1.687   2.659   0.355
 1935TIP3    H2 5812   1.598   2.538   0.365
 1936TIP3   OH2 5813   5.542   3.991  -0.014
 1936TIP3    H1 5814   5.546   3.904   0.025
 1936TIP3    H2 5815   5.594   4.046   0.045
 1937TIP3   OH2 5816   6.159   1.107   0.237
 1937TIP3    H1 5817   6.152   1.112   0.333
 1937TIP3    H2 5818   6.072   1.080   0.208
 1938TIP3   OH2 5819   4.981   4.347   2.762
 1938TIP3    H1 5820   4.980   4.335   2.857
 1938TIP3    H2 5821   4.890   4.366   2.739
 1939TIP3   OH2 5822   4.465   3.173   4.974
 1939TIP3    H1 5823   4.488   3.083   4.951
 1939TIP3    H2 5824   4.550   3.217   4.983
 1940TIP3   OH2 5825   5.133   0.943   3.266
 1940TIP3    H1 5826   5.098   0.926   3.178
 1940TIP3    H2 5827   5.200   1.010   3.252
 1941TIP3   OH2 5828   0.304   2.462   0.828
 1941TIP3    H1 5829   0.338   2.531   0.771
 1941TIP3    H2 5830   0.378   2.437   0.882
 1942TIP3   OH2 5831   0.365   2.672   2.894
 1942TIP3    H1 5832   0.299   2.688   2.961
 1942TIP3    H2 5833   0.369   2.577   2.886
 1943TIP3   OH2 5834   3.373   2.618   5.075
 1943TIP3    H1 5835   3.305   2.608   5.142
 1943TIP3    H2 5836   3.326   2.609   4.992
 1944TIP3   OH2 5837   6.327   5.492   1.260
 1944TIP3    H1 5838   6.294   5.553   1.194
 1944TIP3    H2 5839   6.381   5.546   1.318
 1945TIP3   OH2 5840   0.848   5.176   1.455
 1945TIP3    H1 5841   0.825   5.084   1.445
 1945TIP3    H2 5842   0.848   5.210   1.365
 1946TIP3   OH2 5843   3.018   3.083   4.254
 1946TIP3    H1 5844   2.926   3.106   4.242
 1946TIP3    H2 5845   3.042   3.122   4.339
 1947TIP3   OH2 5846   0.849   2.687   0.992
 1947TIP3    H1 5847   0.841   2.771   0.949
 1947TIP3    H2 5848   0.941   2.682   1.019
 1948TIP3   OH2 5849   5.820   5.177   3.657
 1948TIP3    H1 5850   5.778   5.103   3.614
 1948TIP3    H2 5851   5.766   5.194   3.734
 1949TIP3   OH2 5852   0.055   4.920   3.132
 1949TIP3    H1 5853   0.083   5.011   3.133
 1949TIP3    H2 5854   0.134   4.871   3.108
 1950TIP3   OH2 5855   5.190   5.886   3.111
 1950TIP3    H1 5856   5.127   5.841   3.166
 1950TIP3    H2 5857   5.222   5.959   3.165
 1951TIP3   OH2 5858   0.632   5.267   3.079
 1951TIP3    H1 5859   0.693   5.203   3.117
 1951TIP3    H2 5860   0.673   5.352   3.095
 1952TIP3   OH2 5861   0.826   2.872   0.193
 1952TIP3    H1 5862   0.801   2.807   0.128
 1952TIP3    H2 5863   0.838   2.822   0.274
 1953TIP3   OH2 5864   4.740   5.646   5.092
 1953TIP3    H1 5865   4.831   5.630   5.068
 1953TIP3    H2 5866   4.693   5.651   5.009
 1954TIP3   OH2 5867   0.556   4.743   2.959
 1954TIP3    H1 5868   0.624   4.802   2.993
 1954TIP3    H2 5869   0.594   4.707   2.879
 1955TIP3   OH2 5870   1.433   4.731   0.494
 1955TIP3    H1 5871   1.344   4.756   0.521
 1955TIP3    H2 5872   1.466   4.679   0.567
 1956TIP3   OH2 5873   2.525   0.498   3.607
 1956TIP3    H1 5874   2.459   0.469   3.544
 1956TIP3    H2 5875   2.601   0.443   3.588
 1957TIP3   OH2 5876   6.278   2.151   4.936
 1957TIP3    H1 5877   6.263   2.134   5.029
 1957TIP3    H2 5878   6.328   2.075   4.906
 1958TIP3   OH2 5879   1.006   4.624   4.504
 1958TIP3    H1 5880   1.022   4.581   4.420
 1958TIP3    H2 5881   0.989   4.552   4.565
 1959TIP3   OH2 5882   0.385   2.343   4.811
 1959TIP3    H1 5883   0.457   2.404   4.826
 1959TIP3    H2 5884   0.318   2.369   4.875
 1960TIP3   OH2 5885   5.711   3.347   2.347
 1960TIP3    H1 5886   5.659   3.426   2.361
 1960TIP3    H2 5887   5.730   3.315   2.435
 1961TIP3   OH2 5888   4.867   1.037   4.601
 1961TIP3    H1 5889   4.958   1.014   4.622
 1961TIP3    H2 5890   4.828   1.058   4.686
 1962TIP3   OH2 5891   0.400   1.696   2.039
 1962TIP3    H1 5892   0.466   1.628   2.049
 1962TIP3    H2 5893   0.412   1.727   1.949
 1963TIP3   OH2 5894   3.379   3.615   2.181
 1963TIP3    H1 5895   3.359   3.560   2.256
 1963TIP3    H2 5896   3.475   3.621   2.180
 1964TIP3   OH2 5897   2.541   0.161   4.746
 1964TIP3    H1 5898   2.527   0.092   4.811
 1964TIP3    H2 5899   2.598   0.121   4.681
 1965TIP3   OH2 5900   3.158   1.624   4.196
 1965TIP3    H1 5901   3.247   1.658   4.204
 1965TIP3    H2 5902   3.105   1.684   4.248
 1966TIP3   OH2 5903   5.974   3.975   2.346
 1966TIP3    H1 5904   6.040   3.995   2.412
 1966TIP3    H2 5905   5.938   4.061   2.322
 1967TIP3   OH2 5906   3.372   4.183   2.651
 1967TIP3    H1 5907   3.361   4.138   2.734
 1967TIP3    H2 5908   3.396   4.114   2.589
 1968TIP3   OH2 5909   1.117   1.664   0.973
 1968TIP3    H1 5910   1.213   1.671   0.972
 1968TIP3    H2 5911   1.098   1.603   0.902
 1969TIP3   OH2 5912   0.986   2.710   2.821
 1969TIP3    H1 5913   0.954   2.631   2.863
 1969TIP3    H2 5914   0.925   2.727   2.749
 1970TIP3   OH2 5915   1.245   5.287   4.899
 1970TIP3    H1 5916   1.243   5.364   4.843
 1970TIP3    H2 5917   1.163   5.241   4.880
 1971TIP3   OH2 5918   5.689   5.630   5.095
 1971TIP3    H1 5919   5.611   5.666   5.137
 1971TIP3    H2 5920   5.664   5.540   5.073
 1972TIP3   OH2 5921   2.847   0.840   0.371
 1972TIP3    H1 5922   2.921   0.782   0.358
 1972TIP3    H2 5923   2.881   0.911   0.426
 1973TIP3   OH2 5924   3.300   0.816   4.212
 1973TIP3    H1 5925   3.254   0.732   4.220
 1973TIP3    H2 5926   3.258   0.860   4.139
 1974TIP3   OH2 5927   3.395   2.991   1.432
 1974TIP3    H1 5928   3.488   2.972   1.422
 1974TIP3    H2 5929   3.360   2.986   1.343
 1975TIP3   OH2 5930   2.250   2.203   2.910
 1975TIP3    H1 5931   2.206   2.287   2.912
 1975TIP3    H2 5932   2.284   2.196   2.821
 1976TIP3   OH2 5933   2.505   5.717   4.313
 1976TIP3    H1 5934   2.487   5.808   4.291
 1976TIP3    H2 5935   2.467   5.706   4.401
 1977TIP3   OH2 5936   2.741   1.447   3.264
 1977TIP3    H1 5937   2.732   1.494   3.181
 1977TIP3    H2 5938   2.767   1.514   3.327
 1978TIP3   OH2 5939   0.940   0.622   0.939
 1978TIP3    H1 5940   0.976   0.544   0.981
 1978TIP3    H2 5941   1.004   0.691   0.960
 1979TIP3   OH2 5942   1.804   5.924   0.130
 1979TIP3    H1 5943   1.723   5.874   0.144
 1979TIP3    H2 5944   1.856   5.870   0.070
 1980TIP3   OH2 5945   0.336   5.768   1.009
 1980TIP3    H1 5946   0.351   5.678   0.980
 1980TIP3    H2 5947   0.321   5.817   0.928
 1981TIP3   OH2 5948   1.045   1.412   0.085
 1981TIP3    H1 5949   0.959   1.388   0.119
 1981TIP3    H2 5950   1.048   1.508   0.093
 1982TIP3   OH2 5951   0.777   5.553   1.001
 1982TIP3    H1 5952   0.770   5.568   1.095
 1982TIP3    H2 5953   0.727   5.472   0.986
 1983TIP3   OH2 5954   5.142   0.116   2.985
 1983TIP3    H1 5955   5.089   0.052   2.938
 1983TIP3    H2 5956   5.209   0.143   2.922
 1984TIP3   OH2 5957   5.882   1.946   4.385
 1984TIP3    H1 5958   5.947   1.910   4.446
 1984TIP3    H2 5959   5.859   1.873   4.328
 1985TIP3   OH2 5960   1.866   3.958   3.469
 1985TIP3    H1 5961   1.921   3.923   3.399
 1985TIP3    H2 5962   1.928   3.986   3.536
 1986TIP3   OH2 5963   3.221   4.906   4.578
 1986TIP3    H1 5964   3.170   4.959   4.517
 1986TIP3    H2 5965   3.290   4.965   4.609
 1987TIP3   OH2 5966   4.557   3.874   1.970
 1987TIP3    H1 5967   4.635   3.819   1.979
 1987TIP3    H2 5968   4.497   3.842   2.038
 1988TIP3   OH2 5969   4.181   5.545   2.788
 1988TIP3    H1 5970   4.116   5.482   2.758
 1988TIP3    H2 5971   4.261   5.493   2.798
 1989TIP3   OH2 5972   4.721   1.697   0.929
 1989TIP3    H1 5973   4.814   1.673   0.930
 1989TIP3    H2 5974   4.700   1.711   0.837
 1990TIP3   OH2 5975   4.905   0.180   2.267
 1990TIP3    H1 5976   4.957   0.227   2.332
 1990TIP3    H2 5977   4.915   0.087   2.290
 1991TIP3   OH2 5978   2.219   2.447   5.050
 1991TIP3    H1 5979   2.236   2.539   5.034
 1991TIP3    H2 5980   2.214   2.439   5.145
 1992TIP3   OH2 5981   1.521   2.462   0.199
 1992TIP3    H1 5982   1.463   2.396   0.238
 1992TIP3    H2 5983   1.466   2.540   0.193
 1993TIP3   OH2 5984   2.784   3.653   4.510
 1993TIP3    H1 5985   2.706   3.599   4.523
 1993TIP3    H2 5986   2.853   3.590   4.488
 1994TIP3   OH2 5987   1.915   3.924   1.252
 1994TIP3    H1 5988   1.850   3.903   1.319
 1994TIP3    H2 5989   1.939   3.839   1.215
 1995TIP3   OH2 5990   5.724   1.456   4.079
 1995TIP3    H1 5991   5.811   1.429   4.108
 1995TIP3    H2 5992   5.679   1.375   4.056
 1996TIP3   OH2 5993   2.476   4.025   0.554
 1996TIP3    H1 5994   2.517   4.098   0.507
 1996TIP3    H2 5995   2.499   4.040   0.646
 1997TIP3   OH2 5996   3.636   0.694   1.759
 1997TIP3    H1 5997   3.567   0.756   1.778
 1997TIP3    H2 5998   3.611   0.654   1.675
 1998TIP3   OH2 5999   4.541   5.753   3.811
 1998TIP3    H1 6000   4.459   5.704   3.818
 1998TIP3    H2 6001   4.607   5.693   3.845
 1999TIP3   OH2 6002   3.912   3.018   3.851
 1999TIP3    H1 6003   3.903   3.100   3.802
 1999TIP3    H2 6004   3.822   2.991   3.870
 2000TIP3   OH2 6005   5.621   4.296   2.343
 2000TIP3    H1 6006   5.651   4.272   2.431
 2000TIP3    H2 6007   5.533   4.330   2.356
 2001TIP3   OH2 6008   2.080   5.234   2.230
 2001TIP3    H1 6009   2.064   5.207   2.321
 2001TIP3    H2 6010   2.037   5.319   2.223
 2002TIP3   OH2 6011   6.368   1.641   2.935
 2002TIP3    H1 6012   6.304   1.571   2.941
 2002TIP3    H2 6013   6.318   1.721   2.947
 2003TIP3   OH2 6014   2.884   4.948   0.685
 2003TIP3    H1 6015   2.866   5.003   0.609
 2003TIP3    H2 6016   2.940   5.001   0.741
 2004TIP3   OH2 6017   0.755   3.504   1.488
 2004TIP3    H1 6018   0.700   3.434   1.455
 2004TIP3    H2 6019   0.703   3.546   1.557
 2005TIP3   OH2 6020   0.308   0.758   3.085
 2005TIP3    H1 6021   0.395   0.739   3.120
 2005TIP3    H2 6022   0.265   0.673   3.078
 2006TIP3   OH2 6023   3.437   5.217   3.938
 2006TIP3    H1 6024   3.530   5.237   3.946
 2006TIP3    H2 6025   3.414   5.244   3.849
 2007TIP3   OH2 6026   3.546   3.177   0.488
 2007TIP3    H1 6027   3.633   3.137   0.493
 2007TIP3    H2 6028   3.555   3.260   0.534
 2008TIP3   OH2 6029   4.369   3.886   5.157
 2008TIP3    H1 6030   4.374   3.791   5.146
 2008TIP3    H2 6031   4.365   3.920   5.068
 2009TIP3   OH2 6032   4.104   4.036   1.367
 2009TIP3    H1 6033   4.031   4.035   1.305
 2009TIP3    H2 6034   4.062   4.032   1.453
 2010TIP3   OH2 6035   6.194   4.596   4.871
 2010TIP3    H1 6036   6.248   4.643   4.807
 2010TIP3    H2 6037   6.241   4.606   4.954
 2011TIP3   OH2 6038   3.060   4.307   4.796
 2011TIP3    H1 6039   3.005   4.247   4.746
 2011TIP3    H2 6040   2.998   4.363   4.843
 2012TIP3   OH2 6041   1.587   1.267   0.568
 2012TIP3    H1 6042   1.551   1.315   0.493
 2012TIP3    H2 6043   1.584   1.175   0.542
 2013TIP3   OH2 6044   5.885   3.001   0.384
 2013TIP3    H1 6045   5.835   3.008   0.465
 2013TIP3    H2 6046   5.819   3.007   0.315
 2014TIP3   OH2 6047   3.182   1.111   0.643
 2014TIP3    H1 6048   3.232   1.070   0.573
 2014TIP3    H2 6049   3.240   1.106   0.720
 2015TIP3   OH2 6050   4.076   3.997   4.461
 2015TIP3    H1 6051   4.086   4.046   4.380
 2015TIP3    H2 6052   4.127   4.046   4.526
 2016TIP3   OH2 6053   0.046   3.044   0.578
 2016TIP3    H1 6054   0.104   2.971   0.595
 2016TIP3    H2 6055   0.058   3.064   0.485
 2017TIP3   OH2 6056   4.081   4.299   0.201
 2017TIP3    H1 6057   4.058   4.375   0.254
 2017TIP3    H2 6058   4.026   4.228   0.234
 2018TIP3   OH2 6059   1.960   4.688   4.985
 2018TIP3    H1 6060   2.003   4.640   5.056
 2018TIP3    H2 6061   2.031   4.734   4.940
 2019TIP3   OH2 6062   1.831   5.046   3.275
 2019TIP3    H1 6063   1.798   4.981   3.337
 2019TIP3    H2 6064   1.906   5.003   3.234
 2020TIP3   OH2 6065   4.166   1.830   2.836
 2020TIP3    H1 6066   4.112   1.755   2.809
 2020TIP3    H2 6067   4.166   1.827   2.931
 2021TIP3   OH2 6068   2.020   4.216   0.523
 2021TIP3    H1 6069   1.982   4.199   0.609
 2021TIP3    H2 6070   1.961   4.173   0.461
 2022TIP3   OH2 6071   3.830   0.248   3.769
 2022TIP3    H1 6072   3.765   0.296   3.820
 2022TIP3    H2 6073   3.791   0.237   3.683
 2023TIP3   OH2 6074   6.250   4.769   0.813
 2023TIP3    H1 6075   6.219   4.845   0.863
 2023TIP3    H2 6076   6.284   4.807   0.732
 2024TIP3   OH2 6077   4.696   3.180   1.504
 2024TIP3    H1 6078   4.657   3.220   1.426
 2024TIP3    H2 6079   4.767   3.240   1.528
 2025TIP3   OH2 6080   0.689   2.189   3.259
 2025TIP3    H1 6081   0.731   2.195   3.345
 2025TIP3    H2 6082   0.698   2.096   3.235
 2026TIP3   OH2 6083   1.111   0.107   0.608
 2026TIP3    H1 6084   1.179   0.053   0.648
 2026TIP3    H2 6085   1.044   0.115   0.676
 2027TIP3   OH2 6086   2.928   5.158   3.029
 2027TIP3    H1 6087   2.902   5.231   3.085
 2027TIP3    H2 6088   3.022   5.168   3.018
 2028TIP3   OH2 6089   3.086   1.594   1.189
 2028TIP3    H1 6090   3.124   1.615   1.104
 2028TIP3    H2 6091   2.997   1.563   1.170
 2029TIP3   OH2 6092   6.084   2.249   0.790
 2029TIP3    H1 6093   6.036   2.167   0.801
 2029TIP3    H2 6094   6.170   2.230   0.827
 2030TIP3   OH2 6095   5.357   0.691   4.564
 2030TIP3    H1 6096   5.354   0.720   4.655
 2030TIP3    H2 6097   5.288   0.625   4.558
 2031TIP3   OH2 6098   3.134   3.568   3.994
 2031TIP3    H1 6099   3.170   3.602   4.076
 2031TIP3    H2 6100   3.150   3.474   3.997
 2032TIP3   OH2 6101   3.961   5.014   1.223
 2032TIP3    H1 6102   3.928   5.017   1.313
 2032TIP3    H2 6103   4.053   4.987   1.232
 2033TIP3   OH2 6104   4.209   4.409   4.132
 2033TIP3    H1 6105   4.183   4.499   4.154
 2033TIP3    H2 6106   4.214   4.409   4.036
 2034TIP3   OH2 6107   5.189   0.559   3.936
 2034TIP3    H1 6108   5.199   0.489   3.871
 2034TIP3    H2 6109   5.243   0.531   4.010
 2035TIP3   OH2 6110   3.230   2.573   3.494
 2035TIP3    H1 6111   3.189   2.537   3.415
 2035TIP3    H2 6112   3.161   2.623   3.536
 2036TIP3   OH2 6113   4.233   1.786   1.632
 2036TIP3    H1 6114   4.270   1.872   1.611
 2036TIP3    H2 6115   4.141   1.793   1.606
 2037TIP3   OH2 6116   1.616   1.491   4.824
 2037TIP3    H1 6117   1.705   1.518   4.849
 2037TIP3    H2 6118   1.565   1.500   4.905
 2038TIP3   OH2 6119   1.473   5.890   1.434
 2038TIP3    H1 6120   1.560   5.925   1.450
 2038TIP3    H2 6121   1.485   5.825   1.365
 2039TIP3   OH2 6122   4.920   1.090   0.276
 2039TIP3    H1 6123   4.906   1.110   0.368
 2039TIP3    H2 6124   4.833   1.092   0.237
 2040TIP3   OH2 6125   6.192   0.090   0.623
 2040TIP3    H1 6126   6.149   0.005   0.634
 2040TIP3    H2 6127   6.265   0.071   0.564
 2041TIP3   OH2 6128   0.827   1.240   1.578
 2041TIP3    H1 6129   0.895   1.298   1.613
 2041TIP3    H2 6130   0.785   1.203   1.656
 2042TIP3   OH2 6131   0.591   0.084   2.151
 2042TIP3    H1 6132   0.512   0.070   2.202
 2042TIP3    H2 6133   0.559   0.114   2.065
 2043TIP3   OH2 6134   0.151   2.532   3.622
 2043TIP3    H1 6135   0.073   2.480   3.604
 2043TIP3    H2 6136   0.222   2.467   3.624
 2044TIP3   OH2 6137   2.774   4.466   4.187
 2044TIP3    H1 6138   2.693   4.479   4.237
 2044TIP3    H2 6139   2.749   4.480   4.096
 2045TIP3   OH2 6140   1.825   5.827   2.472
 2045TIP3    H1 6141   1.733   5.832   2.445
 2045TIP3    H2 6142   1.823   5.775   2.552
 2046TIP3   OH2 6143   3.715   5.251   4.002
 2046TIP3    H1 6144   3.789   5.311   4.007
 2046TIP3    H2 6145   3.753   5.167   3.975
 2047TIP3   OH2 6146   3.157   1.960   5.121
 2047TIP3    H1 6147   3.213   1.906   5.176
 2047TIP3    H2 6148   3.077   1.908   5.111
 2048TIP3   OH2 6149   0.170   5.628   2.215
 2048TIP3    H1 6150   0.219   5.705   2.243
 2048TIP3    H2 6151   0.164   5.636   2.119
 2049TIP3   OH2 6152   2.895   3.008   1.991
 2049TIP3    H1 6153   2.820   3.014   1.932
 2049TIP3    H2 6154   2.971   3.006   1.933
 2050TIP3   OH2 6155   2.200   3.091   4.972
 2050TIP3    H1 6156   2.196   3.159   5.039
 2050TIP3    H2 6157   2.172   3.011   5.017
 2051TIP3   OH2 6158   5.587   3.911   3.128
 2051TIP3    H1 6159   5.537   3.982   3.088
 2051TIP3    H2 6160   5.646   3.881   3.059
 2052TIP3   OH2 6161   5.538   4.248   4.188
 2052TIP3    H1 6162   5.520   4.262   4.095
 2052TIP3    H2 6163   5.452   4.250   4.230
 2053TIP3   OH2 6164   3.707   5.688   3.625
 2053TIP3    H1 6165   3.781   5.658   3.677
 2053TIP3    H2 6166   3.748   5.732   3.550
 2054TIP3   OH2 6167   3.746   4.434   3.139
 2054TIP3    H1 6168   3.830   4.463   3.104
 2054TIP3    H2 6169   3.711   4.375   3.073
 2055TIP3   OH2 6170   4.485   5.639   1.284
 2055TIP3    H1 6171   4.508   5.719   1.332
 2055TIP3    H2 6172   4.422   5.595   1.341
 2056TIP3   OH2 6173   1.457   0.749   2.700
 2056TIP3    H1 6174   1.459   0.799   2.781
 2056TIP3    H2 6175   1.506   0.669   2.720
 2057TIP3   OH2 6176   0.059   3.573   3.391
 2057TIP3    H1 6177   0.042   3.531   3.476
 2057TIP3    H2 6178  -0.005   3.533   3.332
 2058TIP3   OH2 6179   0.376   5.342   4.137
 2058TIP3    H1 6180   0.373   5.250   4.164
 2058TIP3    H2 6181   0.288   5.375   4.154
 2059TIP3   OH2 6182   0.745   2.031   4.182
 2059TIP3    H1 6183   0.673   2.094   4.175
 2059TIP3    H2 6184   0.705   1.946   4.164
 2060TIP3   OH2 6185   2.015   4.933   1.957
 2060TIP3    H1 6186   2.022   5.013   1.905
 2060TIP3    H2 6187   1.983   4.867   1.895
 2061TIP3   OH2 6188   0.656   3.824   1.094
 2061TIP3    H1 6189   0.710   3.749   1.067
 2061TIP3    H2 6190   0.703   3.861   1.169
 2062TIP3   OH2 6191   6.337   5.200   5.040
 2062TIP3    H1 6192   6.304   5.286   5.015
 2062TIP3    H2 6193   6.424   5.195   4.999
 2063TIP3   OH2 6194   6.291   2.645   1.627
 2063TIP3    H1 6195   6.252   2.732   1.634
 2063TIP3    H2 6196   6.281   2.621   1.535
 2064TIP3   OH2 6197   1.540   3.946   4.655
 2064TIP3    H1 6198   1.527   4.006   4.581
 2064TIP3    H2 6199   1.632   3.958   4.678
 2065TIP3   OH2 6200   5.013   2.040   2.057
 2065TIP3    H1 6201   5.068   2.029   1.979
 2065TIP3    H2 6202   4.936   1.986   2.039
 2066TIP3   OH2 6203   6.041   1.353   3.903
 2066TIP3    H1 6204   6.115   1.308   3.864
 2066TIP3    H2 6205   5.965   1.300   3.878
 2067TIP3   OH2 6206   4.927   5.686   3.524
 2067TIP3    H1 6207   4.911   5.607   3.576
 2067TIP3    H2 6208   4.858   5.747   3.550
 2068TIP3   OH2 6209   4.945   0.776   0.030
 2068TIP3    H1 6210   4.964   0.772   0.124
 2068TIP3    H2 6211   4.962   0.688  -0.002
 2069TIP3   OH2 6212   3.521   2.833   2.211
 2069TIP3    H1 6213   3.426   2.835   2.196
 2069TIP3    H2 6214   3.555   2.907   2.161
 2070TIP3   OH2 6215   3.842   4.135   0.860
 2070TIP3    H1 6216   3.888   4.116   0.778
 2070TIP3    H2 6217   3.871   4.223   0.884
 2071TIP3   OH2 6218   5.835   5.774   0.867
 2071TIP3    H1 6219   5.765   5.711   0.845
 2071TIP3    H2 6220   5.906   5.751   0.807
 2072TIP3   OH2 6221   5.909   2.661   0.143
 2072TIP3    H1 6222   5.833   2.603   0.137
 2072TIP3    H2 6223   5.944   2.664   0.054
 2073TIP3   OH2 6224   3.925   2.026   4.654
 2073TIP3    H1 6225   3.979   1.947   4.653
 2073TIP3    H2 6226   3.987   2.098   4.656
 2074TIP3   OH2 6227   0.543   5.086   0.958
 2074TIP3    H1 6228   0.519   4.997   0.933
 2074TIP3    H2 6229   0.477   5.112   1.022
 2075TIP3   OH2 6230   1.770   5.103   1.452
 2075TIP3    H1 6231   1.698   5.078   1.394
 2075TIP3    H2 6232   1.803   5.020   1.486
 2076TIP3   OH2 6233   5.765   5.865   4.900
 2076TIP3    H1 6234   5.685   5.833   4.857
 2076TIP3    H2 6235   5.801   5.788   4.944
 2077TIP3   OH2 6236   0.759   5.115   4.069
 2077TIP3    H1 6237   0.738   5.136   3.978
 2077TIP3    H2 6238   0.679   5.072   4.102
 2078TIP3   OH2 6239   3.576   3.150   4.168
 2078TIP3    H1 6240   3.602   3.063   4.197
 2078TIP3    H2 6241   3.625   3.210   4.225
 2079TIP3   OH2 6242   6.047   1.548   1.574
 2079TIP3    H1 6243   6.134   1.513   1.555
 2079TIP3    H2 6244   6.029   1.519   1.664
 2080TIP3   OH2 6245   5.400   0.392   4.470
 2080TIP3    H1 6246   5.308   0.389   4.497
 2080TIP3    H2 6247   5.443   0.448   4.535
 2081TIP3   OH2 6248   3.816   3.761   4.557
 2081TIP3    H1 6249   3.793   3.677   4.596
 2081TIP3    H2 6250   3.912   3.762   4.558
 2082TIP3   OH2 6251   0.054   0.615   1.551
 2082TIP3    H1 6252   0.069   0.589   1.642
 2082TIP3    H2 6253   0.121   0.568   1.501
 2083TIP3   OH2 6254   1.077   1.014   2.725
 2083TIP3    H1 6255   0.990   1.030   2.764
 2083TIP3    H2 6256   1.105   0.931   2.764
 2084TIP3   OH2 6257   5.881   4.045   4.866
 2084TIP3    H1 6258   5.948   4.113   4.865
 2084TIP3    H2 6259   5.929   3.963   4.866
 2085TIP3   OH2 6260   0.788   3.944   3.175
 2085TIP3    H1 6261   0.866   3.978   3.131
 2085TIP3    H2 6262   0.749   3.885   3.111
 2086TIP3   OH2 6263   5.383   3.920   0.371
 2086TIP3    H1 6264   5.360   3.914   0.464
 2086TIP3    H2 6265   5.413   3.833   0.348
 2087TIP3   OH2 6266   0.109   1.875   1.541
 2087TIP3    H1 6267   0.062   1.941   1.490
 2087TIP3    H2 6268   0.189   1.859   1.491
 2088TIP3   OH2 6269   2.924   1.335   1.250
 2088TIP3    H1 6270   2.870   1.320   1.328
 2088TIP3    H2 6271   2.863   1.324   1.177
 2089TIP3   OH2 6272   5.941   3.627   0.378
 2089TIP3    H1 6273   6.004   3.557   0.364
 2089TIP3    H2 6274   5.980   3.682   0.446
 2090TIP3   OH2 6275   3.533   0.492   4.302
 2090TIP3    H1 6276   3.604   0.515   4.243
 2090TIP3    H2 6277   3.510   0.402   4.279
 2091TIP3   OH2 6278   0.089   0.578   3.271
 2091TIP3    H1 6279   0.069   0.484   3.279
 2091TIP3    H2 6280   0.184   0.583   3.280
 2092TIP3   OH2 6281   1.969   1.763   0.644
 2092TIP3    H1 6282   1.882   1.802   0.654
 2092TIP3    H2 6283   1.958   1.695   0.578
 2093TIP3   OH2 6284   0.205   2.285   0.310
 2093TIP3    H1 6285   0.286   2.326   0.283
 2093TIP3    H2 6286   0.180   2.229   0.236
 2094TIP3   OH2 6287   3.917   5.236   1.067
 2094TIP3    H1 6288   3.917   5.150   1.108
 2094TIP3    H2 6289   4.005   5.246   1.031
 2095TIP3   OH2 6290   2.003   2.999   1.904
 2095TIP3    H1 6291   2.058   3.057   1.852
 2095TIP3    H2 6292   1.946   3.059   1.953
 2096TIP3   OH2 6293   3.846   5.205   0.351
 2096TIP3    H1 6294   3.761   5.241   0.327
 2096TIP3    H2 6295   3.847   5.117   0.312
 2097TIP3   OH2 6296   3.484   4.659   4.180
 2097TIP3    H1 6297   3.564   4.606   4.186
 2097TIP3    H2 6298   3.483   4.709   4.262
 2098TIP3   OH2 6299   4.704   3.690   0.319
 2098TIP3    H1 6300   4.697   3.786   0.323
 2098TIP3    H2 6301   4.701   3.663   0.411
 2099TIP3   OH2 6302   2.117   3.150   1.680
 2099TIP3    H1 6303   2.187   3.085   1.682
 2099TIP3    H2 6304   2.072   3.135   1.597
 2100TIP3   OH2 6305   1.647   5.463   2.327
 2100TIP3    H1 6306   1.578   5.421   2.379
 2100TIP3    H2 6307   1.607   5.476   2.241
 2101TIP3   OH2 6308   1.505   1.868   1.814
 2101TIP3    H1 6309   1.495   1.782   1.773
 2101TIP3    H2 6310   1.502   1.930   1.741
 2102TIP3   OH2 6311   3.421   2.370   2.077
 2102TIP3    H1 6312   3.453   2.424   2.149
 2102TIP3    H2 6313   3.335   2.407   2.055
 2103TIP3   OH2 6314   5.158   4.378   1.698
 2103TIP3    H1 6315   5.250   4.406   1.694
 2103TIP3    H2 6316   5.140   4.367   1.791
 2104TIP3   OH2 6317   4.496   1.814   2.139
 2104TIP3    H1 6318   4.575   1.816   2.192
 2104TIP3    H2 6319   4.510   1.881   2.072
 2105TIP3   OH2 6320   5.593   0.803   1.785
 2105TIP3    H1 6321   5.513   0.758   1.812
 2105TIP3    H2 6322   5.656   0.785   1.854
 2106TIP3   OH2 6323   1.193   4.877   3.868
 2106TIP3    H1 6324   1.182   4.952   3.926
 2106TIP3    H2 6325   1.189   4.801   3.925
 2107TIP3   OH2 6326   1.328   2.240   1.279
 2107TIP3    H1 6327   1.312   2.310   1.342
 2107TIP3    H2 6328   1.247   2.189   1.279
 2108TIP3   OH2 6329   0.977   2.041   3.440
 2108TIP3    H1 6330   0.972   2.129   3.478
 2108TIP3    H2 6331   0.955   1.983   3.512
 2109TIP3   OH2 6332   0.976   3.716   3.813
 2109TIP3    H1 6333   0.949   3.664   3.738
 2109TIP3    H2 6334   1.045   3.774   3.780
 2110TIP3   OH2 6335   3.316   3.616   2.621
 2110TIP3    H1 6336   3.268   3.682   2.572
 2110TIP3    H2 6337   3.268   3.607   2.703
 2111TIP3   OH2 6338   4.323   4.859   2.526
 2111TIP3    H1 6339   4.294   4.862   2.435
 2111TIP3    H2 6340   4.297   4.943   2.563
 2112TIP3   OH2 6341   3.410   4.977   1.200
 2112TIP3    H1 6342   3.375   5.062   1.174
 2112TIP3    H2 6343   3.475   4.997   1.268
 2113TIP3   OH2 6344   0.632   4.341   4.568
 2113TIP3    H1 6345   0.715   4.384   4.590
 2113TIP3    H2 6346   0.571   4.413   4.554
 2114TIP3   OH2 6347   1.229   1.432   2.654
 2114TIP3    H1 6348   1.146   1.459   2.691
 2114TIP3    H2 6349   1.294   1.486   2.699
 2115TIP3   OH2 6350   2.029   2.517   1.948
 2115TIP3    H1 6351   2.017   2.576   1.874
 2115TIP3    H2 6352   1.940   2.496   1.976
 2116TIP3   OH2 6353   5.567   5.254   2.455
 2116TIP3    H1 6354   5.650   5.302   2.454
 2116TIP3    H2 6355   5.517   5.293   2.527
 2117TIP3   OH2 6356   1.321   0.492   0.599
 2117TIP3    H1 6357   1.255   0.549   0.558
 2117TIP3    H2 6358   1.277   0.457   0.676
 2118TIP3   OH2 6359   2.393   5.870   2.413
 2118TIP3    H1 6360   2.391   5.791   2.359
 2118TIP3    H2 6361   2.486   5.886   2.430
 2119TIP3   OH2 6362   0.662   4.380   1.093
 2119TIP3    H1 6363   0.606   4.302   1.096
 2119TIP3    H2 6364   0.611   4.447   1.140
 2120TIP3   OH2 6365   6.005   3.818   5.161
 2120TIP3    H1 6366   5.989   3.801   5.068
 2120TIP3    H2 6367   5.918   3.818   5.200
 2121TIP3   OH2 6368   1.952   0.831   3.081
 2121TIP3    H1 6369   2.013   0.895   3.118
 2121TIP3    H2 6370   1.998   0.794   3.006
 2122TIP3   OH2 6371   2.329   1.001   4.526
 2122TIP3    H1 6372   2.423   0.994   4.507
 2122TIP3    H2 6373   2.311   0.928   4.584
 2123TIP3   OH2 6374   4.508   2.790   1.129
 2123TIP3    H1 6375   4.482   2.807   1.220
 2123TIP3    H2 6376   4.567   2.862   1.108
 2124TIP3   OH2 6377   2.053   2.461   2.264
 2124TIP3    H1 6378   2.046   2.373   2.301
 2124TIP3    H2 6379   2.022   2.452   2.174
 2125TIP3   OH2 6380   1.704   2.027   1.906
 2125TIP3    H1 6381   1.774   1.966   1.930
 2125TIP3    H2 6382   1.630   1.971   1.884
 2126TIP3   OH2 6383   3.315   4.382   3.125
 2126TIP3    H1 6384   3.223   4.392   3.099
 2126TIP3    H2 6385   3.362   4.369   3.042
 2127TIP3   OH2 6386   0.851   0.139   4.221
 2127TIP3    H1 6387   0.889   0.124   4.134
 2127TIP3    H2 6388   0.789   0.211   4.207
 2128TIP3   OH2 6389   0.557   4.317   2.618
 2128TIP3    H1 6390   0.466   4.301   2.641
 2128TIP3    H2 6391   0.603   4.237   2.643
 2129TIP3   OH2 6392   1.370  -0.015   2.473
 2129TIP3    H1 6393   1.327  -0.042   2.392
 2129TIP3    H2 6394   1.321   0.062   2.501
 2130TIP3   OH2 6395   2.863   3.300   2.619
 2130TIP3    H1 6396   2.880   3.376   2.675
 2130TIP3    H2 6397   2.793   3.330   2.560
 2131TIP3   OH2 6398   0.273   2.745   2.001
 2131TIP3    H1 6399   0.296   2.734   2.093
 2131TIP3    H2 6400   0.258   2.839   1.990
 2132TIP3   OH2 6401   5.426   1.821   0.395
 2132TIP3    H1 6402   5.395   1.894   0.449
 2132TIP3    H2 6403   5.453   1.862   0.313
 2133TIP3   OH2 6404   1.553   4.989   1.324
 2133TIP3    H1 6405   1.562   4.894   1.337
 2133TIP3    H2 6406   1.504   5.019   1.401
 2134TIP3   OH2 6407   0.838   1.745   3.400
 2134TIP3    H1 6408   0.822   1.804   3.326
 2134TIP3    H2 6409   0.873   1.802   3.469
 2135TIP3   OH2 6410   3.669   5.225   4.566
 2135TIP3    H1 6411   3.750   5.200   4.610
 2135TIP3    H2 6412   3.689   5.218   4.473
 2136TIP3   OH2 6413   3.445   0.877   1.633
 2136TIP3    H1 6414   3.393   0.803   1.603
 2136TIP3    H2 6415   3.469   0.923   1.553
 2137TIP3   OH2 6416   2.668   3.385   0.531
 2137TIP3    H1 6417   2.760   3.403   0.550
 2137TIP3    H2 6418   2.637   3.462   0.484
 2138TIP3   OH2 6419   4.388   1.234   3.214
 2138TIP3    H1 6420   4.481   1.239   3.194
 2138TIP3    H2 6421   4.347   1.206   3.132
 2139TIP3   OH2 6422   6.162   3.197   2.653
 2139TIP3    H1 6423   6.243   3.219   2.700
 2139TIP3    H2 6424   6.141   3.275   2.603
 2140TIP3   OH2 6425   6.320   0.598   4.211
 2140TIP3    H1 6426   6.383   0.635   4.273
 2140TIP3    H2 6427   6.234   0.621   4.247
 2141TIP3   OH2 6428   4.927   0.683   3.147
 2141TIP3    H1 6429   4.960   0.595   3.131
 2141TIP3    H2 6430   5.006   0.735   3.168
 2142TIP3   OH2 6431   0.689   2.349   0.437
 2142TIP3    H1 6432   0.606   2.362   0.393
 2142TIP3    H2 6433   0.745   2.308   0.371
 2143TIP3   OH2 6434   0.186   1.159   1.717
 2143TIP3    H1 6435   0.160   1.185   1.805
 2143TIP3    H2 6436   0.281   1.150   1.722
 2144TIP3   OH2 6437   3.071   3.160   0.732
 2144TIP3    H1 6438   3.008   3.209   0.785
 2144TIP3    H2 6439   3.115   3.226   0.679
 2145TIP3   OH2 6440   5.437   5.204   0.586
 2145TIP3    H1 6441   5.438   5.132   0.648
 2145TIP3    H2 6442   5.468   5.165   0.504
 2146TIP3   OH2 6443   2.864   5.625   0.746
 2146TIP3    H1 6444   2.942   5.680   0.753
 2146TIP3    H2 6445   2.794   5.686   0.725
 2147TIP3   OH2 6446   1.272   0.575   4.267
 2147TIP3    H1 6447   1.351   0.622   4.295
 2147TIP3    H2 6448   1.245   0.619   4.186
 2148TIP3   OH2 6449   1.107   5.725   1.311
 2148TIP3    H1 6450   1.139   5.636   1.327
 2148TIP3    H2 6451   1.016   5.713   1.283
 2149TIP3   OH2 6452   0.235   1.114   0.336
 2149TIP3    H1 6453   0.271   1.045   0.281
 2149TIP3    H2 6454   0.199   1.178   0.275
 2150TIP3   OH2 6455   3.213   4.480   2.033
 2150TIP3    H1 6456   3.279   4.542   2.002
 2150TIP3    H2 6457   3.139   4.492   1.974
 2151TIP3   OH2 6458   6.124   2.011   2.728
 2151TIP3    H1 6459   6.088   2.051   2.649
 2151TIP3    H2 6460   6.117   2.079   2.795
 2152TIP3   OH2 6461   3.675   4.742   3.459
 2152TIP3    H1 6462   3.611   4.756   3.530
 2152TIP3    H2 6463   3.744   4.806   3.476
 2153TIP3   OH2 6464   2.902   4.141   0.337
 2153TIP3    H1 6465   2.971   4.163   0.400
 2153TIP3    H2 6466   2.821   4.146   0.387
 2154TIP3   OH2 6467   5.811   1.731   1.527
 2154TIP3    H1 6468   5.872   1.661   1.550
 2154TIP3    H2 6469   5.741   1.687   1.479
 2155TIP3   OH2 6470   4.264   1.260   4.245
 2155TIP3    H1 6471   4.330   1.329   4.254
 2155TIP3    H2 6472   4.200   1.296   4.183
 2156TIP3   OH2 6473   3.202   0.106   2.663
 2156TIP3    H1 6474   3.118   0.064   2.682
 2156TIP3    H2 6475   3.250   0.043   2.610
 2157TIP3   OH2 6476   1.800   5.375   1.927
 2157TIP3    H1 6477   1.759   5.418   1.853
 2157TIP3    H2 6478   1.748   5.403   2.003
 2158TIP3   OH2 6479   3.688   3.334   4.348
 2158TIP3    H1 6480   3.770   3.284   4.351
 2158TIP3    H2 6481   3.695   3.395   4.422
 2159TIP3   OH2 6482   2.586   1.378   4.094
 2159TIP3    H1 6483   2.540   1.421   4.166
 2159TIP3    H2 6484   2.626   1.449   4.044
 2160TIP3   OH2 6485   5.853   5.778   3.696
 2160TIP3    H1 6486   5.833   5.688   3.722
 2160TIP3    H2 6487   5.796   5.832   3.750
 2161TIP3   OH2 6488   1.685   2.609   0.719
 2161TIP3    H1 6489   1.715   2.622   0.630
 2161TIP3    H2 6490   1.751   2.552   0.759
 2162TIP3   OH2 6491   2.015   0.683   4.889
 2162TIP3    H1 6492   2.053   0.704   4.803
 2162TIP3    H2 6493   2.086   0.638   4.935
 2163TIP3   OH2 6494   5.184   0.184   1.508
 2163TIP3    H1 6495   5.129   0.259   1.527
 2163TIP3    H2 6496   5.136   0.135   1.441
 2164TIP3   OH2 6497   2.665   4.181   3.169
 2164TIP3    H1 6498   2.572   4.191   3.151
 2164TIP3    H2 6499   2.709   4.227   3.097
 2165TIP3   OH2 6500   1.987   0.907   2.592
 2165TIP3    H1 6501   1.900   0.940   2.616
 2165TIP3    H2 6502   2.011   0.847   2.663
 2166TIP3   OH2 6503   1.523   2.765   2.904
 2166TIP3    H1 6504   1.500   2.846   2.949
 2166TIP3    H2 6505   1.536   2.790   2.813
 2167TIP3   OH2 6506   3.493   2.537   0.598
 2167TIP3    H1 6507   3.567   2.479   0.611
 2167TIP3    H2 6508   3.492   2.593   0.676
 2168TIP3   OH2 6509   4.659   0.601   2.054
 2168TIP3    H1 6510   4.645   0.696   2.045
 2168TIP3    H2 6511   4.700   0.591   2.140
 2169TIP3   OH2 6512   4.815   1.849   2.040
 2169TIP3    H1 6513   4.824   1.771   2.095
 2169TIP3    H2 6514   4.869   1.830   1.963
 2170TIP3   OH2 6515   5.936   1.009   5.101
 2170TIP3    H1 6516   5.878   1.050   5.037
 2170TIP3    H2 6517   5.911   1.047   5.185
 2171TIP3   OH2 6518   1.063   1.388   1.665
 2171TIP3    H1 6519   1.042   1.455   1.600
 2171TIP3    H2 6520   1.136   1.425   1.714
 2172TIP3   OH2 6521   1.961   5.350   3.960
 2172TIP3    H1 6522   1.883   5.358   4.015
 2172TIP3    H2 6523   1.942   5.404   3.883
 2173TIP3   OH2 6524   5.462   0.886   0.214
 2173TIP3    H1 6525   5.548   0.903   0.252
 2173TIP3    H2 6526   5.475   0.894   0.119
 2174TIP3   OH2 6527   2.641   1.568   1.193
 2174TIP3    H1 6528   2.621   1.493   1.249
 2174TIP3    H2 6529   2.673   1.528   1.111
 2175TIP3   OH2 6530   1.239   2.224   3.735
 2175TIP3    H1 6531   1.165   2.192   3.786
 2175TIP3    H2 6532   1.211   2.215   3.644
 2176TIP3   OH2 6533   3.332   4.771   1.426
 2176TIP3    H1 6534   3.268   4.834   1.461
 2176TIP3    H2 6535   3.376   4.819   1.356
 2177TIP3   OH2 6536   0.638   3.182   3.767
 2177TIP3    H1 6537   0.699   3.255   3.760
 2177TIP3    H2 6538   0.652   3.149   3.856
 2178TIP3   OH2 6539   0.991   5.216   2.446
 2178TIP3    H1 6540   1.017   5.273   2.519
 2178TIP3    H2 6541   0.915   5.168   2.480
 2179TIP3   OH2 6542   5.112   2.869   2.807
 2179TIP3    H1 6543   5.163   2.911   2.738
 2179TIP3    H2 6544   5.037   2.927   2.820
 2180TIP3   OH2 6545   6.059   0.501   1.851
 2180TIP3    H1 6546   6.125   0.463   1.909
 2180TIP3    H2 6547   5.986   0.439   1.853
 2181TIP3   OH2 6548   6.113   4.961   4.034
 2181TIP3    H1 6549   6.179   4.895   4.013
 2181TIP3    H2 6550   6.030   4.918   4.016
 2182TIP3   OH2 6551   6.179   5.188   2.228
 2182TIP3    H1 6552   6.176   5.271   2.275
 2182TIP3    H2 6553   6.145   5.209   2.141
 2183TIP3   OH2 6554   0.791   5.382   4.128
 2183TIP3    H1 6555   0.716   5.409   4.182
 2183TIP3    H2 6556   0.783   5.286   4.123
 2184TIP3   OH2 6557   1.598   3.871   4.294
 2184TIP3    H1 6558   1.619   3.952   4.248
 2184TIP3    H2 6559   1.677   3.818   4.287
 2185TIP3   OH2 6560   5.062   3.984   4.076
 2185TIP3    H1 6561   5.036   3.907   4.025
 2185TIP3    H2 6562   4.981   4.033   4.090
 2186TIP3   OH2 6563   0.158   2.802   1.714
 2186TIP3    H1 6564   0.111   2.871   1.668
 2186TIP3    H2 6565   0.135   2.722   1.666
 2187TIP3   OH2 6566   3.796   2.465   4.021
 2187TIP3    H1 6567   3.831   2.524   4.087
 2187TIP3    H2 6568   3.828   2.500   3.938
 2188TIP3   OH2 6569  -0.063   4.930   2.517
 2188TIP3    H1 6570   0.008   4.897   2.462
 2188TIP3    H2 6571  -0.050   4.887   2.602
 2189TIP3   OH2 6572   1.437   0.273   2.058
 2189TIP3    H1 6573   1.422   0.331   2.132
 2189TIP3    H2 6574   1.493   0.324   1.999
 2190TIP3   OH2 6575   4.233   2.642   1.105
 2190TIP3    H1 6576   4.240   2.565   1.162
 2190TIP3    H2 6577   4.279   2.711   1.153
 2191TIP3   OH2 6578   5.799   2.561   4.685
 2191TIP3    H1 6579   5.750   2.523   4.612
 2191TIP3    H2 6580   5.876   2.601   4.644
 2192TIP3   OH2 6581   4.505   0.769   4.610
 2192TIP3    H1 6582   4.550   0.753   4.694
 2192TIP3    H2 6583   4.577   0.782   4.548
 2193TIP3   OH2 6584   1.622   0.530   3.610
 2193TIP3    H1 6585   1.543   0.477   3.621
 2193TIP3    H2 6586   1.623   0.589   3.686
 2194TIP3   OH2 6587   1.424   3.854   0.710
 2194TIP3    H1 6588   1.474   3.929   0.743
 2194TIP3    H2 6589   1.491   3.787   0.693
 2195TIP3   OH2 6590   6.039   0.823   0.074
 2195TIP3    H1 6591   6.093   0.795   0.000
 2195TIP3    H2 6592   6.008   0.911   0.049
 2196TIP3   OH2 6593   3.865   5.435   0.506
 2196TIP3    H1 6594   3.920   5.402   0.576
 2196TIP3    H2 6595   3.871   5.369   0.437
 2197TIP3   OH2 6596   5.862   1.798   4.784
 2197TIP3    H1 6597   5.825   1.885   4.773
 2197TIP3    H2 6598   5.920   1.805   4.859
 2198TIP3   OH2 6599   1.239   2.854   2.234
 2198TIP3    H1 6600   1.252   2.929   2.176
 2198TIP3    H2 6601   1.327   2.828   2.260
 2199TIP3   OH2 6602   3.827   5.019   3.908
 2199TIP3    H1 6603   3.777   5.037   3.829
 2199TIP3    H2 6604   3.915   4.998   3.877
 2200TIP3   OH2 6605   0.199   4.854   4.785
 2200TIP3    H1 6606   0.200   4.891   4.697
 2200TIP3    H2 6607   0.132   4.786   4.783
 2201TIP3   OH2 6608   1.178   4.415   1.700
 2201TIP3    H1 6609   1.207   4.323   1.699
 2201TIP3    H2 6610   1.248   4.461   1.748
 2202TIP3   OH2 6611   0.085   5.070   3.430
 2202TIP3    H1 6612   0.002   5.022   3.438
 2202TIP3    H2 6613   0.059   5.158   3.402
 2203TIP3   OH2 6614   0.731   4.166   3.524
 2203TIP3    H1 6615   0.736   4.222   3.446
 2203TIP3    H2 6616   0.664   4.101   3.503
 2204TIP3   OH2 6617   1.068   5.634   0.493
 2204TIP3    H1 6618   1.149   5.684   0.478
 2204TIP3    H2 6619   1.093   5.543   0.475
 2205TIP3   OH2 6620   2.665   5.452   3.080
 2205TIP3    H1 6621   2.596   5.494   3.131
 2205TIP3    H2 6622   2.626   5.368   3.053
 2206TIP3   OH2 6623   3.909   4.391   1.944
 2206TIP3    H1 6624   3.963   4.462   1.977
 2206TIP3    H2 6625   3.947   4.312   1.982
 2207TIP3   OH2 6626   1.841   5.663   5.080
 2207TIP3    H1 6627   1.905   5.636   5.146
 2207TIP3    H2 6628   1.885   5.732   5.031
 2208TIP3   OH2 6629   4.521   4.981   0.749
 2208TIP3    H1 6630   4.611   4.982   0.718
 2208TIP3    H2 6631   4.504   5.072   0.774
 2209TIP3   OH2 6632   1.226   3.334   3.579
 2209TIP3    H1 6633   1.197   3.383   3.502
 2209TIP3    H2 6634   1.313   3.302   3.555
 2210TIP3   OH2 6635   5.115   5.319   0.977
 2210TIP3    H1 6636   5.043   5.371   0.941
 2210TIP3    H2 6637   5.169   5.298   0.901
 2211TIP3   OH2 6638   0.735   2.740   4.765
 2211TIP3    H1 6639   0.804   2.781   4.818
 2211TIP3    H2 6640   0.695   2.677   4.824
 2212TIP3   OH2 6641   5.597   5.920   1.319
 2212TIP3    H1 6642   5.667   5.914   1.255
 2212TIP3    H2 6643   5.549   5.838   1.310
 2213TIP3   OH2 6644   3.050   4.195   2.988
 2213TIP3    H1 6645   3.057   4.183   2.893
 2213TIP3    H2 6646   3.136   4.171   3.021
 2214TIP3   OH2 6647   1.990   4.492   0.416
 2214TIP3    H1 6648   1.916   4.472   0.359
 2214TIP3    H2 6649   2.034   4.408   0.429
 2215TIP3   OH2 6650   2.974   4.054   3.823
 2215TIP3    H1 6651   2.975   4.038   3.729
 2215TIP3    H2 6652   2.986   3.968   3.863
 2216TIP3   OH2 6653   1.789   1.483   3.373
 2216TIP3    H1 6654   1.708   1.494   3.323
 2216TIP3    H2 6655   1.775   1.404   3.425
 2217TIP3   OH2 6656   1.715   3.092   4.336
 2217TIP3    H1 6657   1.666   3.080   4.418
 2217TIP3    H2 6658   1.779   3.160   4.357
 2218TIP3   OH2 6659   0.284   1.419   1.252
 2218TIP3    H1 6660   0.308   1.356   1.321
 2218TIP3    H2 6661   0.309   1.504   1.288
 2219TIP3   OH2 6662   5.921   3.333   0.618
 2219TIP3    H1 6663   5.884   3.253   0.655
 2219TIP3    H2 6664   5.978   3.303   0.547
 2220TIP3   OH2 6665   5.170   4.718   2.081
 2220TIP3    H1 6666   5.219   4.789   2.121
 2220TIP3    H2 6667   5.217   4.699   1.999
 2221TIP3   OH2 6668   3.217   3.617   0.384
 2221TIP3    H1 6669   3.241   3.707   0.403
 2221TIP3    H2 6670   3.237   3.570   0.465
 2222TIP3   OH2 6671   5.649   4.338   0.569
 2222TIP3    H1 6672   5.572   4.379   0.530
 2222TIP3    H2 6673   5.686   4.405   0.626
 2223TIP3   OH2 6674   5.048   5.475   2.331
 2223TIP3    H1 6675   5.110   5.402   2.326
 2223TIP3    H2 6676   4.964   5.433   2.349
 2224TIP3   OH2 6677   3.172   4.243   3.370
 2224TIP3    H1 6678   3.151   4.166   3.317
 2224TIP3    H2 6679   3.139   4.317   3.319
 2225TIP3   OH2 6680   2.560   3.260   1.720
 2225TIP3    H1 6681   2.623   3.257   1.792
 2225TIP3    H2 6682   2.577   3.344   1.676
 2226TIP3   OH2 6683   2.682   2.999   1.443
 2226TIP3    H1 6684   2.705   3.072   1.500
 2226TIP3    H2 6685   2.764   2.973   1.402
 2227TIP3   OH2 6686   4.663   5.846   4.599
 2227TIP3    H1 6687   4.629   5.848   4.509
 2227TIP3    H2 6688   4.686   5.938   4.617
 2228TIP3   OH2 6689   3.552   0.105   4.624
 2228TIP3    H1 6690   3.496   0.178   4.651
 2228TIP3    H2 6691   3.592   0.074   4.705
 2229TIP3   OH2 6692   1.037   0.486   4.377
 2229TIP3    H1 6693   1.042   0.398   4.415
 2229TIP3    H2 6694   1.128   0.507   4.356
 2230TIP3   OH2 6695   2.307   0.909   2.059
 2230TIP3    H1 6696   2.368   0.893   1.987
 2230TIP3    H2 6697   2.262   0.826   2.071
 2231TIP3   OH2 6698   0.160   4.015   4.749
 2231TIP3    H1 6699   0.103   3.961   4.694
 2231TIP3    H2 6700   0.239   4.027   4.697
 2232TIP3   OH2 6701   1.843   2.776   1.019
 2232TIP3    H1 6702   1.921   2.804   1.067
 2232TIP3    H2 6703   1.864   2.789   0.927
 2233TIP3   OH2 6704   1.996   4.835   3.171
 2233TIP3    H1 6705   1.986   4.848   3.077
 2233TIP3    H2 6706   1.960   4.748   3.187
 2234TIP3   OH2 6707   1.564   4.704   4.999
 2234TIP3    H1 6708   1.615   4.748   4.930
 2234TIP3    H2 6709   1.582   4.611   4.985
 2235TIP3   OH2 6710   4.648   1.929   3.261
 2235TIP3    H1 6711   4.567   1.935   3.210
 2235TIP3    H2 6712   4.715   1.907   3.196
 2236TIP3   OH2 6713   0.708   1.910   4.849
 2236TIP3    H1 6714   0.637   1.965   4.816
 2236TIP3    H2 6715   0.671   1.864   4.924
 2237TIP3   OH2 6716   5.170   1.360   3.240
 2237TIP3    H1 6717   5.176   1.417   3.317
 2237TIP3    H2 6718   5.225   1.402   3.174
 2238TIP3   OH2 6719   0.409   3.556   2.161
 2238TIP3    H1 6720   0.361   3.473   2.165
 2238TIP3    H2 6721   0.483   3.539   2.103
 2239TIP3   OH2 6722   5.755   1.591   0.130
 2239TIP3    H1 6723   5.762   1.662   0.194
 2239TIP3    H2 6724   5.839   1.590   0.086
 2240TIP3   OH2 6725   0.915   4.624   3.410
 2240TIP3    H1 6726   0.915   4.532   3.438
 2240TIP3    H2 6727   0.916   4.619   3.314
 2241TIP3   OH2 6728   4.031   1.811   3.998
 2241TIP3    H1 6729   4.093   1.852   3.938
 2241TIP3    H2 6730   3.968   1.880   4.018
 2242TIP3   OH2 6731   2.402   2.552   0.564
 2242TIP3    H1 6732   2.393   2.622   0.499
 2242TIP3    H2 6733   2.407   2.598   0.648
 2243TIP3   OH2 6734   3.124   3.847   2.937
 2243TIP3    H1 6735   3.109   3.913   2.869
 2243TIP3    H2 6736   3.119   3.763   2.891
 2244TIP3   OH2 6737   6.101   5.382   2.394
 2244TIP3    H1 6738   6.167   5.447   2.372
 2244TIP3    H2 6739   6.143   5.326   2.460
 2245TIP3   OH2 6740   2.084   4.063   0.075
 2245TIP3    H1 6741   2.138   3.993   0.111
 2245TIP3    H2 6742   2.021   4.083   0.144
 2246TIP3   OH2 6743   2.794   4.888   2.522
 2246TIP3    H1 6744   2.873   4.942   2.533
 2246TIP3    H2 6745   2.724   4.951   2.511
 2247TIP3   OH2 6746   5.641   3.780   4.765
 2247TIP3    H1 6747   5.623   3.849   4.701
 2247TIP3    H2 6748   5.585   3.707   4.738
 2248TIP3   OH2 6749   4.445   4.743   3.544
 2248TIP3    H1 6750   4.476   4.812   3.485
 2248TIP3    H2 6751   4.477   4.662   3.506
 2249TIP3   OH2 6752   0.418   4.108   2.288
 2249TIP3    H1 6753   0.422   4.036   2.224
 2249TIP3    H2 6754   0.441   4.067   2.371
 2250TIP3   OH2 6755   4.333   4.320   4.381
 2250TIP3    H1 6756   4.347   4.287   4.292
 2250TIP3    H2 6757   4.360   4.247   4.438
 2251TIP3   OH2 6758   0.442   4.408   5.021
 2251TIP3    H1 6759   0.452   4.384   5.114
 2251TIP3    H2 6760   0.406   4.329   4.980
 2252TIP3   OH2 6761   4.714   3.360   0.396
 2252TIP3    H1 6762   4.656   3.412   0.452
 2252TIP3    H2 6763   4.696   3.270   0.421
 2253TIP3   OH2 6764   2.026   5.177   1.869
 2253TIP3    H1 6765   1.971   5.236   1.920
 2253TIP3    H2 6766   1.992   5.182   1.780
 2254TIP3   OH2 6767   1.218   3.979   0.893
 2254TIP3    H1 6768   1.256   3.906   0.844
 2254TIP3    H2 6769   1.190   4.041   0.825
 2255TIP3   OH2 6770   1.223   5.995   1.484
 2255TIP3    H1 6771   1.298   5.941   1.459
 2255TIP3    H2 6772   1.172   5.940   1.542
 2256TIP3   OH2 6773   5.407   4.116   2.157
 2256TIP3    H1 6774   5.315   4.095   2.173
 2256TIP3    H2 6775   5.442   4.038   2.113
 2257TIP3   OH2 6776   1.964   0.294   4.099
 2257TIP3    H1 6777   1.947   0.376   4.145
 2257TIP3    H2 6778   1.966   0.318   4.006
 2258TIP3   OH2 6779   0.470   3.878   2.155
 2258TIP3    H1 6780   0.455   3.798   2.105
 2258TIP3    H2 6781   0.564   3.878   2.173
 2259TIP3   OH2 6782   4.644   2.397   1.175
 2259TIP3    H1 6783   4.707   2.365   1.240
 2259TIP3    H2 6784   4.697   2.444   1.111
 2260TIP3   OH2 6785   2.728   5.336   1.976
 2260TIP3    H1 6786   2.752   5.386   2.053
 2260TIP3    H2 6787   2.731   5.399   1.904
 2261TIP3   OH2 6788   5.681   2.474   0.121
 2261TIP3    H1 6789   5.615   2.523   0.170
 2261TIP3    H2 6790   5.723   2.417   0.186
 2262TIP3   OH2 6791   0.844   2.619   1.447
 2262TIP3    H1 6792   0.759   2.659   1.464
 2262TIP3    H2 6793   0.826   2.525   1.443
 2263TIP3   OH2 6794   1.498   0.349   2.982
 2263TIP3    H1 6795   1.415   0.355   2.935
 2263TIP3    H2 6796   1.472   0.338   3.074
 2264TIP3   OH2 6797   2.794   5.893   3.321
 2264TIP3    H1 6798   2.802   5.843   3.240
 2264TIP3    H2 6799   2.861   5.961   3.313
 2265TIP3   OH2 6800   4.462   1.533   4.425
 2265TIP3    H1 6801   4.375   1.510   4.458
 2265TIP3    H2 6802   4.458   1.512   4.332
 2266TIP3   OH2 6803   3.587   4.400   0.658
 2266TIP3    H1 6804   3.526   4.448   0.602
 2266TIP3    H2 6805   3.547   4.404   0.746
 2267TIP3   OH2 6806   0.851   4.464   3.814
 2267TIP3    H1 6807   0.941   4.430   3.808
 2267TIP3    H2 6808   0.852   4.543   3.760
 2268TIP3   OH2 6809   3.652   1.343   4.605
 2268TIP3    H1 6810   3.667   1.276   4.672
 2268TIP3    H2 6811   3.583   1.306   4.550
 2269TIP3   OH2 6812   0.582   4.644   1.260
 2269TIP3    H1 6813   0.546   4.586   1.327
 2269TIP3    H2 6814   0.528   4.723   1.266
 2270TIP3   OH2 6815   1.438   4.570   1.558
 2270TIP3    H1 6816   1.471   4.622   1.485
 2270TIP3    H2 6817   1.459   4.479   1.534
 2271TIP3   OH2 6818   2.252   3.909   2.170
 2271TIP3    H1 6819   2.211   3.845   2.111
 2271TIP3    H2 6820   2.181   3.939   2.227
 2272TIP3   OH2 6821   4.664   0.347   0.716
 2272TIP3    H1 6822   4.629   0.418   0.769
 2272TIP3    H2 6823   4.687   0.388   0.633
 2273TIP3   OH2 6824   3.284   2.706   2.739
 2273TIP3    H1 6825   3.319   2.619   2.721
 2273TIP3    H2 6826   3.293   2.754   2.657
 2274TIP3   OH2 6827   4.927   4.672   2.610
 2274TIP3    H1 6828   4.908   4.669   2.704
 2274TIP3    H2 6829   4.946   4.765   2.593
 2275TIP3   OH2 6830   4.284   2.920   4.247
 2275TIP3    H1 6831   4.209   2.874   4.283
 2275TIP3    H2 6832   4.260   3.012   4.251
 2276TIP3   OH2 6833   4.029   0.723   0.345
 2276TIP3    H1 6834   4.040   0.746   0.253
 2276TIP3    H2 6835   4.053   0.630   0.349
 2277TIP3   OH2 6836   0.211   4.365   4.257
 2277TIP3    H1 6837   0.261   4.316   4.323
 2277TIP3    H2 6838   0.265   4.442   4.239
 2278TIP3   OH2 6839   0.708   3.948   2.244
 2278TIP3    H1 6840   0.775   3.982   2.184
 2278TIP3    H2 6841   0.735   3.980   2.330
 2279TIP3   OH2 6842   1.451   2.943   3.183
 2279TIP3    H1 6843   1.460   3.034   3.209
 2279TIP3    H2 6844   1.384   2.943   3.114
 2280TIP3   OH2 6845   1.233   1.546   4.927
 2280TIP3    H1 6846   1.168   1.552   4.996
 2280TIP3    H2 6847   1.285   1.625   4.936
 2281TIP3   OH2 6848   2.917   0.078   0.100
 2281TIP3    H1 6849   2.846   0.129   0.140
 2281TIP3    H2 6850   2.996   0.110   0.143
 2282TIP3   OH2 6851   4.646   2.158   3.415
 2282TIP3    H1 6852   4.689   2.074   3.399
 2282TIP3    H2 6853   4.716   2.223   3.410
 2283TIP3   OH2 6854   5.012   0.440   0.919
 2283TIP3    H1 6855   4.957   0.508   0.959
 2283TIP3    H2 6856   5.033   0.474   0.832
 2284TIP3   OH2 6857   2.392   0.553   0.690
 2284TIP3    H1 6858   2.403   0.526   0.599
 2284TIP3    H2 6859   2.302   0.583   0.696
 2285TIP3   OH2 6860   3.345   4.046   4.949
 2285TIP3    H1 6861   3.298   3.968   4.979
 2285TIP3    H2 6862   3.298   4.119   4.989
 2286TIP3   OH2 6863   5.588   1.879   1.303
 2286TIP3    H1 6864   5.607   1.913   1.391
 2286TIP3    H2 6865   5.510   1.824   1.315
 2287TIP3   OH2 6866   5.808   4.876   0.538
 2287TIP3    H1 6867   5.789   4.816   0.610
 2287TIP3    H2 6868   5.753   4.845   0.466
 2288TIP3   OH2 6869   2.095   4.199   3.208
 2288TIP3    H1 6870   2.132   4.114   3.183
 2288TIP3    H2 6871   2.103   4.201   3.303
 2289TIP3   OH2 6872   0.374   3.936   3.646
 2289TIP3    H1 6873   0.385   4.016   3.594
 2289TIP3    H2 6874   0.463   3.906   3.663
 2290TIP3   OH2 6875   5.113   3.801   1.359
 2290TIP3    H1 6876   5.063   3.824   1.280
 2290TIP3    H2 6877   5.161   3.880   1.381
 2291TIP3   OH2 6878   5.538   2.643   3.396
 2291TIP3    H1 6879   5.463   2.605   3.351
 2291TIP3    H2 6880   5.590   2.568   3.423
 2292TIP3   OH2 6881   3.661   4.049   1.173
 2292TIP3    H1 6882   3.681   4.130   1.221
 2292TIP3    H2 6883   3.665   3.980   1.239
 2293TIP3   OH2 6884   5.316   0.682   1.796
 2293TIP3    H1 6885   5.271   0.619   1.853
 2293TIP3    H2 6886   5.292   0.656   1.708
 2294TIP3   OH2 6887   5.349   3.638   4.242
 2294TIP3    H1 6888   5.442   3.618   4.237
 2294TIP3    H2 6889   5.309   3.558   4.276
 2295TIP3   OH2 6890   3.514   4.876   2.231
 2295TIP3    H1 6891   3.431   4.905   2.191
 2295TIP3    H2 6892   3.500   4.887   2.325
 2296TIP3   OH2 6893   1.457   0.351   4.435
 2296TIP3    H1 6894   1.388   0.308   4.385
 2296TIP3    H2 6895   1.517   0.384   4.368
 2297TIP3   OH2 6896   5.489   3.420   0.556
 2297TIP3    H1 6897   5.579   3.435   0.526
 2297TIP3    H2 6898   5.444   3.382   0.480
 2298TIP3   OH2 6899   0.381   3.352   2.570
 2298TIP3    H1 6900   0.332   3.428   2.602
 2298TIP3    H2 6901   0.313   3.289   2.546
 2299TIP3   OH2 6902   5.330   4.662   1.482
 2299TIP3    H1 6903   5.277   4.582   1.477
 2299TIP3    H2 6904   5.351   4.682   1.390
 2300TIP3   OH2 6905   0.146   4.338   1.293
 2300TIP3    H1 6906   0.164   4.250   1.324
 2300TIP3    H2 6907   0.166   4.335   1.200
 2301TIP3   OH2 6908   6.045   5.275   2.679
 2301TIP3    H1 6909   5.974   5.325   2.721
 2301TIP3    H2 6910   6.017   5.184   2.687
 2302TIP3   OH2 6911   0.982   5.555   2.971
 2302TIP3    H1 6912   0.985   5.576   2.877
 2302TIP3    H2 6913   1.016   5.466   2.976
 2303TIP3   OH2 6914   3.075   5.307   4.580
 2303TIP3    H1 6915   3.080   5.270   4.492
 2303TIP3    H2 6916   3.162   5.294   4.616
 2304TIP3   OH2 6917   5.759   1.577   3.446
 2304TIP3    H1 6918   5.754   1.652   3.506
 2304TIP3    H2 6919   5.850   1.574   3.418
 2305TIP3   OH2 6920   4.583   1.386   2.435
 2305TIP3    H1 6921   4.596   1.293   2.454
 2305TIP3    H2 6922   4.493   1.392   2.403
 2306TIP3   OH2 6923   5.903   2.974   4.067
 2306TIP3    H1 6924   5.915   2.883   4.094
 2306TIP3    H2 6925   5.977   2.992   4.009
 2307TIP3   OH2 6926   4.598   5.733   4.851
 2307TIP3    H1 6927   4.516   5.684   4.855
 2307TIP3    H2 6928   4.608   5.756   4.759
 2308TIP3   OH2 6929   3.232   5.483   5.067
 2308TIP3    H1 6930   3.291   5.506   4.994
 2308TIP3    H2 6931   3.146   5.475   5.026
 2309TIP3   OH2 6932   4.087   2.942   1.735
 2309TIP3    H1 6933   4.032   2.874   1.773
 2309TIP3    H2 6934   4.169   2.937   1.783
 2310TIP3   OH2 6935   4.539   0.322   3.729
 2310TIP3    H1 6936   4.455   0.329   3.774
 2310TIP3    H2 6937   4.593   0.391   3.768
 2311TIP3   OH2 6938   5.317   2.110   2.106
 2311TIP3    H1 6939   5.372   2.076   2.035
 2311TIP3    H2 6940   5.267   2.181   2.066
 2312TIP3   OH2 6941   4.253   5.878   4.038
 2312TIP3    H1 6942   4.300   5.801   4.007
 2312TIP3    H2 6943   4.184   5.843   4.095
 2313TIP3   OH2 6944   4.186   1.432   2.335
 2313TIP3    H1 6945   4.214   1.497   2.270
 2313TIP3    H2 6946   4.240   1.356   2.318
 2314TIP3   OH2 6947   1.993   3.056   3.295
 2314TIP3    H1 6948   1.967   3.129   3.238
 2314TIP3    H2 6949   1.913   3.003   3.303
 2315TIP3   OH2 6950   6.044   5.355   0.101
 2315TIP3    H1 6951   5.971   5.334   0.042
 2315TIP3    H2 6952   6.122   5.344   0.047
 2316TIP3   OH2 6953   4.692   4.294   1.886
 2316TIP3    H1 6954   4.704   4.231   1.957
 2316TIP3    H2 6955   4.693   4.379   1.929
 2317TIP3   OH2 6956   0.070   2.784   2.306
 2317TIP3    H1 6957   0.129   2.730   2.254
 2317TIP3    H2 6958   0.124   2.820   2.376
 2318TIP3   OH2 6959   3.870   5.005   0.176
 2318TIP3    H1 6960   3.794   4.953   0.150
 2318TIP3    H2 6961   3.943   4.942   0.175
 2319TIP3   OH2 6962   5.596   0.488   1.063
 2319TIP3    H1 6963   5.553   0.505   1.147
 2319TIP3    H2 6964   5.525   0.460   1.005
 2320TIP3   OH2 6965   3.831   5.685   2.866
 2320TIP3    H1 6966   3.825   5.751   2.796
 2320TIP3    H2 6967   3.841   5.736   2.946
 2321TIP3   OH2 6968   4.255   0.886   4.607
 2321TIP3    H1 6969   4.345   0.856   4.608
 2321TIP3    H2 6970   4.255   0.963   4.551
 2322TIP3   OH2 6971   0.660   0.681   3.782
 2322TIP3    H1 6972   0.566   0.687   3.803
 2322TIP3    H2 6973   0.665   0.708   3.690
 2323TIP3   OH2 6974   3.007   6.044   1.280
 2323TIP3    H1 6975   3.090   6.000   1.296
 2323TIP3    H2 6976   3.022   6.095   1.200
 2324TIP3   OH2 6977   0.466   0.977   1.059
 2324TIP3    H1 6978   0.536   1.041   1.076
 2324TIP3    H2 6979   0.387   1.018   1.095
 2325TIP3   OH2 6980   6.263   3.643   0.082
 2325TIP3    H1 6981   6.351   3.673   0.057
 2325TIP3    H2 6982   6.216   3.723   0.105
 2326TIP3   OH2 6983   4.164   1.131   1.464
 2326TIP3    H1 6984   4.112   1.063   1.509
 2326TIP3    H2 6985   4.247   1.132   1.512
 2327TIP3   OH2 6986   3.582   0.837   4.234
 2327TIP3    H1 6987   3.488   0.821   4.228
 2327TIP3    H2 6988   3.623   0.757   4.200
 2328TIP3   OH2 6989   4.056   1.133   3.320
 2328TIP3    H1 6990   4.112   1.210   3.321
 2328TIP3    H2 6991   3.968   1.168   3.335
 2329TIP3   OH2 6992   3.577   0.383   2.846
 2329TIP3    H1 6993   3.485   0.374   2.822
 2329TIP3    H2 6994   3.593   0.477   2.848
 2330TIP3   OH2 6995   3.859   5.518   1.055
 2330TIP3    H1 6996   3.881   5.548   1.143
 2330TIP3    H2 6997   3.874   5.424   1.058
 2331TIP3   OH2 6998   2.753  -0.020   0.992
 2331TIP3    H1 6999   2.810   0.014   0.923
 2331TIP3    H2 7000   2.806  -0.085   1.038
 2332TIP3   OH2 7001   3.964   1.034   3.676
 2332TIP3    H1 7002   3.873   1.012   3.692
 2332TIP3    H2 7003   3.983   0.998   3.589
 2333TIP3   OH2 7004   4.605   5.004   3.625
 2333TIP3    H1 7005   4.628   4.948   3.551
 2333TIP3    H2 7006   4.522   5.045   3.599
 2334TIP3   OH2 7007   1.725   3.912   0.538
 2334TIP3    H1 7008   1.683   3.869   0.613
 2334TIP3    H2 7009   1.701   3.858   0.463
 2335TIP3   OH2 7010   0.398   2.791   0.843
 2335TIP3    H1 7011   0.416   2.768   0.935
 2335TIP3    H2 7012   0.447   2.726   0.793
 2336TIP3   OH2 7013   5.057   3.799   2.970
 2336TIP3    H1 7014   5.048   3.708   3.001
 2336TIP3    H2 7015   5.150   3.809   2.950
 2337TIP3   OH2 7016   5.193   2.608   0.534
 2337TIP3    H1 7017   5.233   2.535   0.485
 2337TIP3    H2 7018   5.230   2.600   0.622
 2338TIP3   OH2 7019   0.086   4.625   1.888
 2338TIP3    H1 7020   0.118   4.580   1.967
 2338TIP3    H2 7021   0.048   4.707   1.921
 2339TIP3   OH2 7022   5.333   4.036   4.377
 2339TIP3    H1 7023   5.343   4.066   4.468
 2339TIP3    H2 7024   5.405   3.975   4.365
 2340TIP3   OH2 7025   4.497   1.911   3.053
 2340TIP3    H1 7026   4.409   1.920   3.089
 2340TIP3    H2 7027   4.498   1.970   2.978
 2341TIP3   OH2 7028   3.976   2.094   4.970
 2341TIP3    H1 7029   4.007   2.018   4.921
 2341TIP3    H2 7030   3.901   2.062   5.021
 2342TIP3   OH2 7031   1.807   5.738   2.716
 2342TIP3    H1 7032   1.902   5.737   2.726
 2342TIP3    H2 7033   1.774   5.689   2.791
 2343TIP3   OH2 7034   2.887   0.761   3.304
 2343TIP3    H1 7035   2.831   0.791   3.233
 2343TIP3    H2 7036   2.974   0.796   3.282
 2344TIP3   OH2 7037   0.862   0.299   3.129
 2344TIP3    H1 7038   0.837   0.391   3.118
 2344TIP3    H2 7039   0.940   0.302   3.185
 2345TIP3   OH2 7040   1.750   5.115   3.781
 2345TIP3    H1 7041   1.791   5.036   3.745
 2345TIP3    H2 7042   1.767   5.109   3.875
 2346TIP3   OH2 7043   5.804   1.980  -0.002
 2346TIP3    H1 7044   5.814   1.897   0.044
 2346TIP3    H2 7045   5.891   2.020  -0.001
 2347TIP3   OH2 7046   3.951   3.824   0.879
 2347TIP3    H1 7047   4.014   3.825   0.951
 2347TIP3    H2 7048   4.001   3.853   0.803
 2348TIP3   OH2 7049   2.481   3.500   3.896
 2348TIP3    H1 7050   2.444   3.460   3.975
 2348TIP3    H2 7051   2.500   3.426   3.838
 2349TIP3   OH2 7052   0.164   5.621   1.946
 2349TIP3    H1 7053   0.160   5.556   1.877
 2349TIP3    H2 7054   0.097   5.685   1.923
 2350TIP3   OH2 7055   5.676   3.368   4.166
 2350TIP3    H1 7056   5.731   3.372   4.088
 2350TIP3    H2 7057   5.652   3.276   4.174
 2351TIP3   OH2 7058   3.997   1.782   0.595
 2351TIP3    H1 7059   4.025   1.838   0.667
 2351TIP3    H2 7060   4.075   1.732   0.572
 2352TIP3   OH2 7061   1.027   4.517   1.282
 2352TIP3    H1 7062   0.961   4.586   1.285
 2352TIP3    H2 7063   0.993   4.447   1.338
 2353TIP3   OH2 7064   2.297   1.076   2.617
 2353TIP3    H1 7065   2.206   1.102   2.633
 2353TIP3    H2 7066   2.297   0.981   2.628
 2354TIP3   OH2 7067   1.313   2.197   1.777
 2354TIP3    H1 7068   1.272   2.281   1.757
 2354TIP3    H2 7069   1.248   2.132   1.749
 2355TIP3   OH2 7070   0.204   2.911   2.789
 2355TIP3    H1 7071   0.186   2.914   2.695
 2355TIP3    H2 7072   0.266   2.838   2.799
 2356TIP3   OH2 7073   5.455   4.205   3.069
 2356TIP3    H1 7074   5.407   4.280   3.033
 2356TIP3    H2 7075   5.540   4.241   3.095
 2357TIP3   OH2 7076   2.166   1.219   0.260
 2357TIP3    H1 7077   2.242   1.268   0.293
 2357TIP3    H2 7078   2.103   1.221   0.333
 2358TIP3   OH2 7079   4.708   5.520   1.175
 2358TIP3    H1 7080   4.716   5.567   1.092
 2358TIP3    H2 7081   4.628   5.554   1.215
 2359TIP3   OH2 7082   1.912   2.929   0.749
 2359TIP3    H1 7083   1.937   3.006   0.698
 2359TIP3    H2 7084   1.993   2.904   0.794
 2360TIP3   OH2 7085   3.857   0.906   0.448
 2360TIP3    H1 7086   3.907   0.967   0.502
 2360TIP3    H2 7087   3.918   0.834   0.430
 2361TIP3   OH2 7088   1.841   2.009   3.302
 2361TIP3    H1 7089   1.835   1.918   3.273
 2361TIP3    H2 7090   1.788   2.013   3.382
 2362TIP3   OH2 7091   6.081   2.948   2.830
 2362TIP3    H1 7092   6.018   2.995   2.884
 2362TIP3    H2 7093   6.062   2.976   2.740
 2363TIP3   OH2 7094   5.781   1.058   2.201
 2363TIP3    H1 7095   5.852   1.013   2.246
 2363TIP3    H2 7096   5.823   1.102   2.127
 2364TIP3   OH2 7097   5.959   4.946   4.365
 2364TIP3    H1 7098   5.964   5.039   4.387
 2364TIP3    H2 7099   5.930   4.904   4.446
 2365TIP3   OH2 7100   1.313   2.250   0.298
 2365TIP3    H1 7101   1.296   2.241   0.204
 2365TIP3    H2 7102   1.330   2.161   0.328
 2366TIP3   OH2 7103   3.764   5.706   3.939
 2366TIP3    H1 7104   3.807   5.784   3.905
 2366TIP3    H2 7105   3.692   5.690   3.878
 2367TIP3   OH2 7106   2.855   4.812   1.810
 2367TIP3    H1 7107   2.773   4.832   1.764
 2367TIP3    H2 7108   2.830   4.753   1.880
 2368TIP3   OH2 7109   0.229   1.386   2.769
 2368TIP3    H1 7110   0.175   1.430   2.704
 2368TIP3    H2 7111   0.234   1.295   2.738
 2369TIP3   OH2 7112   4.256   0.853   2.859
 2369TIP3    H1 7113   4.325   0.788   2.872
 2369TIP3    H2 7114   4.194   0.838   2.930
 2370TIP3   OH2 7115   5.998   0.064   4.042
 2370TIP3    H1 7116   5.974   0.118   4.117
 2370TIP3    H2 7117   6.071   0.011   4.073
 2371TIP3   OH2 7118   2.710   5.266   4.898
 2371TIP3    H1 7119   2.730   5.201   4.966
 2371TIP3    H2 7120   2.775   5.250   4.830
 2372TIP3   OH2 7121   6.090   1.015   4.059
 2372TIP3    H1 7122   6.105   1.014   3.964
 2372TIP3    H2 7123   5.999   1.042   4.069
 2373TIP3   OH2 7124   0.180   5.145   1.525
 2373TIP3    H1 7125   0.162   5.236   1.547
 2373TIP3    H2 7126   0.095   5.109   1.500
 2374TIP3   OH2 7127   1.321   3.033   1.329
 2374TIP3    H1 7128   1.231   3.009   1.308
 2374TIP3    H2 7129   1.363   2.950   1.351
 2375TIP3   OH2 7130   3.687   2.119   3.179
 2375TIP3    H1 7131   3.684   2.204   3.224
 2375TIP3    H2 7132   3.775   2.116   3.141
 2376TIP3   OH2 7133   1.758   1.304   0.996
 2376TIP3    H1 7134   1.767   1.395   1.025
 2376TIP3    H2 7135   1.677   1.304   0.945
 2377TIP3   OH2 7136   4.450   2.391   0.389
 2377TIP3    H1 7137   4.381   2.344   0.434
 2377TIP3    H2 7138   4.477   2.459   0.451
 2378TIP3   OH2 7139   4.770   3.532   0.051
 2378TIP3    H1 7140   4.751   3.468  -0.017
 2378TIP3    H2 7141   4.803   3.480   0.125
 2379TIP3   OH2 7142   4.161   3.306   1.646
 2379TIP3    H1 7143   4.153   3.398   1.670
 2379TIP3    H2 7144   4.254   3.294   1.627
 2380TIP3   OH2 7145   4.017   3.004   4.996
 2380TIP3    H1 7146   4.058   3.050   4.923
 2380TIP3    H2 7147   3.930   2.980   4.963
 2381TIP3   OH2 7148   3.583   5.001   0.402
 2381TIP3    H1 7149   3.560   5.060   0.473
 2381TIP3    H2 7150   3.579   5.055   0.323
 2382TIP3   OH2 7151   4.492   1.594   0.733
 2382TIP3    H1 7152   4.530   1.656   0.671
 2382TIP3    H2 7153   4.567   1.550   0.772
 2383TIP3   OH2 7154   3.486   5.220   2.187
 2383TIP3    H1 7155   3.576   5.202   2.159
 2383TIP3    H2 7156   3.436   5.145   2.155
 2384TIP3   OH2 7157   6.041   2.027   3.171
 2384TIP3    H1 7158   5.949   2.054   3.177
 2384TIP3    H2 7159   6.036   1.935   3.143
 2385TIP3   OH2 7160   1.688   1.721   0.570
 2385TIP3    H1 7161   1.611   1.674   0.603
 2385TIP3    H2 7162   1.679   1.717   0.475
 2386TIP3   OH2 7163   0.086   2.847   1.028
 2386TIP3    H1 7164   0.095   2.929   0.979
 2386TIP3    H2 7165   0.176   2.821   1.046
 2387TIP3   OH2 7166   4.871   3.178   2.138
 2387TIP3    H1 7167   4.847   3.264   2.172
 2387TIP3    H2 7168   4.873   3.122   2.216
 2388TIP3   OH2 7169   4.198   5.529   2.355
 2388TIP3    H1 7170   4.224   5.442   2.387
 2388TIP3    H2 7171   4.177   5.516   2.263
 2389TIP3   OH2 7172   4.102   2.418   3.093
 2389TIP3    H1 7173   4.048   2.339   3.102
 2389TIP3    H2 7174   4.182   2.387   3.051
 2390TIP3   OH2 7175   4.299   0.745   1.370
 2390TIP3    H1 7176   4.314   0.793   1.451
 2390TIP3    H2 7177   4.283   0.655   1.398
 2391TIP3   OH2 7178   4.753   5.943   3.577
 2391TIP3    H1 7179   4.677   5.996   3.600
 2391TIP3    H2 7180   4.818   6.006   3.545
 2392TIP3   OH2 7181   1.512   0.166   3.745
 2392TIP3    H1 7182   1.431   0.214   3.762
 2392TIP3    H2 7183   1.520   0.164   3.650
 2393TIP3   OH2 7184   3.667   2.016   4.905
 2393TIP3    H1 7185   3.575   2.036   4.921
 2393TIP3    H2 7186   3.670   1.993   4.812
 2394TIP3   OH2 7187   0.398   2.387   3.542
 2394TIP3    H1 7188   0.339   2.312   3.539
 2394TIP3    H2 7189   0.405   2.416   3.451
 2395TIP3   OH2 7190   2.779   1.448   4.519
 2395TIP3    H1 7191   2.859   1.427   4.471
 2395TIP3    H2 7192   2.727   1.368   4.516
 2396TIP3   OH2 7193   2.110   2.800   4.251
 2396TIP3    H1 7194   2.122   2.705   4.245
 2396TIP3    H2 7195   2.194   2.833   4.283
 2397TIP3   OH2 7196   2.037   1.413   0.580
 2397TIP3    H1 7197   1.982   1.469   0.634
 2397TIP3    H2 7198   1.979   1.384   0.509
 2398TIP3   OH2 7199   5.307   3.780   3.809
 2398TIP3    H1 7200   5.299   3.836   3.886
 2398TIP3    H2 7201   5.266   3.698   3.835
 2399TIP3   OH2 7202   2.557   4.221   3.919
 2399TIP3    H1 7203   2.644   4.225   3.959
 2399TIP3    H2 7204   2.504   4.281   3.971
 2400TIP3   OH2 7205   6.028   4.276   4.868
 2400TIP3    H1 7206   6.023   4.269   4.963
 2400TIP3    H2 7207   6.120   4.298   4.850
 2401TIP3   OH2 7208   1.700   3.108   5.115
 2401TIP3    H1 7209   1.741   3.192   5.094
 2401TIP3    H2 7210   1.621   3.132   5.164
 2402TIP3   OH2 7211   2.901   5.681   3.516
 2402TIP3    H1 7212   2.942   5.662   3.432
 2402TIP3    H2 7213   2.882   5.774   3.514
 2403TIP3   OH2 7214   2.362   3.766   3.234
 2403TIP3    H1 7215   2.390   3.816   3.311
 2403TIP3    H2 7216   2.342   3.679   3.268
 2404TIP3   OH2 7217   1.236   4.993   1.647
 2404TIP3    H1 7218   1.215   4.906   1.616
 2404TIP3    H2 7219   1.277   4.979   1.733
 2405TIP3   OH2 7220   3.715   2.744   1.414
 2405TIP3    H1 7221   3.665   2.664   1.399
 2405TIP3    H2 7222   3.803   2.724   1.380
 2406TIP3   OH2 7223   4.055   1.786   4.647
 2406TIP3    H1 7224   3.970   1.743   4.659
 2406TIP3    H2 7225   4.067   1.789   4.552
 2407TIP3   OH2 7226   0.693   0.592   1.085
 2407TIP3    H1 7227   0.763   0.586   1.021
 2407TIP3    H2 7228   0.737   0.616   1.167
 2408TIP3   OH2 7229   5.441   0.580   2.667
 2408TIP3    H1 7230   5.471   0.580   2.577
 2408TIP3    H2 7231   5.352   0.546   2.663
 2409TIP3   OH2 7232   2.812   3.874   0.072
 2409TIP3    H1 7233   2.893   3.851   0.117
 2409TIP3    H2 7234   2.815   3.824  -0.010
 2410TIP3   OH2 7235   0.045   0.034   1.418
 2410TIP3    H1 7236   0.086   0.080   1.491
 2410TIP3    H2 7237  -0.030   0.088   1.393
 2411TIP3   OH2 7238   6.150   2.843   2.380
 2411TIP3    H1 7239   6.171   2.838   2.473
 2411TIP3    H2 7240   6.234   2.838   2.336
 2412TIP3   OH2 7241   0.521   4.023   0.768
 2412TIP3    H1 7242   0.478   3.997   0.849
 2412TIP3    H2 7243   0.614   4.027   0.790
 2413TIP3   OH2 7244   2.654   4.872   4.492
 2413TIP3    H1 7245   2.572   4.911   4.521
 2413TIP3    H2 7246   2.719   4.901   4.556
 2414TIP3   OH2 7247   3.713   0.588   4.104
 2414TIP3    H1 7248   3.685   0.626   4.021
 2414TIP3    H2 7249   3.785   0.530   4.081
 2415TIP3   OH2 7250   4.042   2.256   1.483
 2415TIP3    H1 7251   4.077   2.288   1.399
 2415TIP3    H2 7252   3.976   2.321   1.507
 2416TIP3   OH2 7253   3.001   2.585   4.322
 2416TIP3    H1 7254   2.956   2.506   4.351
 2416TIP3    H2 7255   2.946   2.620   4.251
 2417TIP3   OH2 7256   3.366   4.038   2.884
 2417TIP3    H1 7257   3.408   4.054   2.969
 2417TIP3    H2 7258   3.303   3.968   2.902
 2418TIP3   OH2 7259   0.182   3.843   3.430
 2418TIP3    H1 7260   0.238   3.865   3.505
 2418TIP3    H2 7261   0.175   3.748   3.433
 2419TIP3   OH2 7262   1.285   4.774   4.956
 2419TIP3    H1 7263   1.367   4.746   4.998
 2419TIP3    H2 7264   1.313   4.831   4.885
 2420TIP3   OH2 7265   1.799   4.848   3.709
 2420TIP3    H1 7266   1.712   4.847   3.750
 2420TIP3    H2 7267   1.857   4.809   3.774
 2421TIP3   OH2 7268   5.235   2.482   4.732
 2421TIP3    H1 7269   5.196   2.554   4.781
 2421TIP3    H2 7270   5.170   2.458   4.666
 2422TIP3   OH2 7271   0.733   4.223   3.835
 2422TIP3    H1 7272   0.793   4.170   3.783
 2422TIP3    H2 7273   0.763   4.313   3.822
 2423TIP3   OH2 7274   1.024   3.217   2.422
 2423TIP3    H1 7275   0.939   3.258   2.439
 2423TIP3    H2 7276   1.003   3.126   2.401
 2424TIP3   OH2 7277   5.681   1.808   3.160
 2424TIP3    H1 7278   5.659   1.759   3.240
 2424TIP3    H2 7279   5.722   1.888   3.192
 2425TIP3   OH2 7280   3.664   0.558   1.484
 2425TIP3    H1 7281   3.637   0.527   1.398
 2425TIP3    H2 7282   3.691   0.479   1.531
 2426TIP3   OH2 7283   5.496   2.121   5.085
 2426TIP3    H1 7284   5.590   2.115   5.066
 2426TIP3    H2 7285   5.484   2.068   5.164
 2427TIP3   OH2 7286   4.171   5.268   1.725
 2427TIP3    H1 7287   4.248   5.321   1.703
 2427TIP3    H2 7288   4.102   5.301   1.667
 2428TIP3   OH2 7289   4.305   3.443   0.816
 2428TIP3    H1 7290   4.298   3.518   0.875
 2428TIP3    H2 7291   4.214   3.413   0.805
 2429TIP3   OH2 7292   3.368   2.498   2.353
 2429TIP3    H1 7293   3.310   2.437   2.399
 2429TIP3    H2 7294   3.327   2.584   2.365
 2430TIP3   OH2 7295   2.910   1.372   4.773
 2430TIP3    H1 7296   2.943   1.284   4.752
 2430TIP3    H2 7297   2.883   1.409   4.689
 2431TIP3   OH2 7298   1.519   2.206   3.861
 2431TIP3    H1 7299   1.436   2.214   3.814
 2431TIP3    H2 7300   1.553   2.295   3.865
 2432TIP3   OH2 7301   0.791   0.881   4.343
 2432TIP3    H1 7302   0.711   0.928   4.363
 2432TIP3    H2 7303   0.765   0.789   4.343
 2433TIP3   OH2 7304   5.300   0.875   1.965
 2433TIP3    H1 7305   5.298   0.799   1.907
 2433TIP3    H2 7306   5.369   0.855   2.028
 2434TIP3   OH2 7307   4.677   1.701   0.249
 2434TIP3    H1 7308   4.727   1.677   0.327
 2434TIP3    H2 7309   4.720   1.654   0.178
 2435TIP3   OH2 7310   3.033   0.959   2.393
 2435TIP3    H1 7311   2.991   0.878   2.420
 2435TIP3    H2 7312   2.961   1.019   2.375
 2436TIP3   OH2 7313   1.700   5.353   0.208
 2436TIP3    H1 7314   1.775   5.334   0.264
 2436TIP3    H2 7315   1.651   5.270   0.204
 2437TIP3   OH2 7316   4.037   0.374   4.613
 2437TIP3    H1 7317   3.943   0.394   4.606
 2437TIP3    H2 7318   4.081   0.450   4.575
 2438TIP3   OH2 7319   2.978   0.890   5.001
 2438TIP3    H1 7320   2.936   0.907   4.916
 2438TIP3    H2 7321   3.048   0.955   5.006
 2439TIP3   OH2 7322   3.239   0.487   1.999
 2439TIP3    H1 7323   3.273   0.572   2.025
 2439TIP3    H2 7324   3.150   0.484   2.035
 2440TIP3   OH2 7325   5.144   0.468   4.548
 2440TIP3    H1 7326   5.100   0.432   4.471
 2440TIP3    H2 7327   5.073   0.483   4.611
 2441TIP3   OH2 7328   1.548   0.998   3.688
 2441TIP3    H1 7329   1.585   1.077   3.649
 2441TIP3    H2 7330   1.571   0.928   3.627
 2442TIP3   OH2 7331   3.290   4.386   0.771
 2442TIP3    H1 7332   3.343   4.450   0.817
 2442TIP3    H2 7333   3.253   4.434   0.697
 2443TIP3   OH2 7334   5.418   3.579   2.258
 2443TIP3    H1 7335   5.484   3.588   2.325
 2443TIP3    H2 7336   5.433   3.492   2.220
 2444TIP3   OH2 7337   3.934   2.649   2.804
 2444TIP3    H1 7338   3.845   2.614   2.806
 2444TIP3    H2 7339   3.951   2.677   2.894
 2445TIP3   OH2 7340   0.768   4.899   3.077
 2445TIP3    H1 7341   0.706   4.906   3.150
 2445TIP3    H2 7342   0.852   4.879   3.119
 2446TIP3   OH2 7343   0.099   4.565   3.158
 2446TIP3    H1 7344   0.148   4.647   3.154
 2446TIP3    H2 7345   0.127   4.516   3.080
 2447TIP3   OH2 7346   0.587   1.990   1.276
 2447TIP3    H1 7347   0.598   2.046   1.199
 2447TIP3    H2 7348   0.676   1.969   1.303
 2448TIP3   OH2 7349   2.348   4.614   1.604
 2448TIP3    H1 7350   2.390   4.661   1.532
 2448TIP3    H2 7351   2.255   4.614   1.581
 2449TIP3   OH2 7352   0.864   5.853   0.362
 2449TIP3    H1 7353   0.886   5.777   0.308
 2449TIP3    H2 7354   0.948   5.886   0.392
 2450TIP3   OH2 7355   4.164   4.488   5.102
 2450TIP3    H1 7356   4.118   4.513   5.022
 2450TIP3    H2 7357   4.252   4.465   5.074
 2451TIP3   OH2 7358   0.464   4.843   4.964
 2451TIP3    H1 7359   0.507   4.925   4.942
 2451TIP3    H2 7360   0.396   4.868   5.026
 2452TIP3   OH2 7361   1.644   4.708   3.043
 2452TIP3    H1 7362   1.681   4.770   3.105
 2452TIP3    H2 7363   1.676   4.737   2.958
 2453TIP3   OH2 7364   6.128   2.962   0.716
 2453TIP3    H1 7365   6.068   2.890   0.697
 2453TIP3    H2 7366   6.205   2.944   0.662
 2454TIP3   OH2 7367   0.788   5.068   2.847
 2454TIP3    H1 7368   0.849   5.021   2.791
 2454TIP3    H2 7369   0.795   5.025   2.932
 2455TIP3   OH2 7370   0.475   1.512   1.758
 2455TIP3    H1 7371   0.539   1.476   1.820
 2455TIP3    H2 7372   0.465   1.443   1.692
 2456TIP3   OH2 7373   2.476   0.538   0.412
 2456TIP3    H1 7374   2.436   0.458   0.378
 2456TIP3    H2 7375   2.446   0.607   0.353
 2457TIP3   OH2 7376   0.394   5.202   3.222
 2457TIP3    H1 7377   0.482   5.202   3.183
 2457TIP3    H2 7378   0.363   5.292   3.211
 2458TIP3   OH2 7379   3.968   0.009   4.269
 2458TIP3    H1 7380   3.908  -0.024   4.202
 2458TIP3    H2 7381   3.911   0.041   4.339
 2459TIP3   OH2 7382   5.501   0.043   3.241
 2459TIP3    H1 7383   5.577   0.017   3.189
 2459TIP3    H2 7384   5.526   0.027   3.331
 2460TIP3   OH2 7385   0.403   3.570   2.418
 2460TIP3    H1 7386   0.427   3.566   2.325
 2460TIP3    H2 7387   0.482   3.543   2.464
 2461TIP3   OH2 7388   3.095   5.694   3.292
 2461TIP3    H1 7389   3.184   5.663   3.278
 2461TIP3    H2 7390   3.101   5.789   3.281
 2462TIP3   OH2 7391   0.949   3.664   4.855
 2462TIP3    H1 7392   0.915   3.605   4.787
 2462TIP3    H2 7393   0.992   3.734   4.806
 2463TIP3   OH2 7394   3.157   0.760   1.559
 2463TIP3    H1 7395   3.235   0.710   1.534
 2463TIP3    H2 7396   3.160   0.764   1.654
 2464TIP3   OH2 7397   2.136   5.789   1.714
 2464TIP3    H1 7398   2.204   5.725   1.734
 2464TIP3    H2 7399   2.117   5.831   1.798
 2465TIP3   OH2 7400   5.668   2.166   4.388
 2465TIP3    H1 7401   5.686   2.082   4.431
 2465TIP3    H2 7402   5.606   2.144   4.318
 2466TIP3   OH2 7403   4.648   5.913   2.341
 2466TIP3    H1 7404   4.556   5.888   2.343
 2466TIP3    H2 7405   4.674   5.916   2.433
 2467TIP3   OH2 7406   4.022   0.536   0.106
 2467TIP3    H1 7407   3.968   0.565   0.033
 2467TIP3    H2 7408   4.081   0.471   0.068
 2468TIP3   OH2 7409   5.744   2.788   4.850
 2468TIP3    H1 7410   5.739   2.732   4.773
 2468TIP3    H2 7411   5.659   2.780   4.892
 2469TIP3   OH2 7412   3.182   2.018   3.311
 2469TIP3    H1 7413   3.153   2.047   3.397
 2469TIP3    H2 7414   3.228   1.936   3.327
 2470TIP3   OH2 7415   0.518   0.438   4.808
 2470TIP3    H1 7416   0.610   0.418   4.793
 2470TIP3    H2 7417   0.499   0.400   4.894
 2471TIP3   OH2 7418   3.093   4.669   1.777
 2471TIP3    H1 7419   3.047   4.591   1.807
 2471TIP3    H2 7420   3.025   4.736   1.771
 2472TIP3   OH2 7421   4.553   2.303   3.137
 2472TIP3    H1 7422   4.586   2.300   3.227
 2472TIP3    H2 7423   4.534   2.395   3.120
 2473TIP3   OH2 7424   1.009   2.715   0.011
 2473TIP3    H1 7425   1.019   2.641  -0.049
 2473TIP3    H2 7426   1.051   2.686   0.092
 2474TIP3   OH2 7427   3.335   2.799   3.969
 2474TIP3    H1 7428   3.398   2.796   3.897
 2474TIP3    H2 7429   3.370   2.737   4.033
 2475TIP3   OH2 7430   5.831   4.326   1.133
 2475TIP3    H1 7431   5.897   4.299   1.197
 2475TIP3    H2 7432   5.881   4.372   1.065
 2476TIP3   OH2 7433   4.718   0.084   0.465
 2476TIP3    H1 7434   4.672   0.165   0.445
 2476TIP3    H2 7435   4.810   0.108   0.471
 2477TIP3   OH2 7436   2.865   4.110   2.431
 2477TIP3    H1 7437   2.905   4.196   2.442
 2477TIP3    H2 7438   2.909   4.073   2.354
 2478TIP3   OH2 7439   2.097   1.646   1.674
 2478TIP3    H1 7440   2.011   1.681   1.695
 2478TIP3    H2 7441   2.101   1.562   1.720
 2479TIP3   OH2 7442   2.040   2.215   0.376
 2479TIP3    H1 7443   2.100   2.289   0.382
 2479TIP3    H2 7444   2.081   2.155   0.313
 2480TIP3   OH2 7445   5.218   3.014   2.610
 2480TIP3    H1 7446   5.178   3.091   2.569
 2480TIP3    H2 7447   5.244   2.959   2.536
 2481TIP3   OH2 7448   5.905   0.192   2.764
 2481TIP3    H1 7449   6.000   0.181   2.770
 2481TIP3    H2 7450   5.870   0.118   2.814
 2482TIP3   OH2 7451   5.255   1.678   1.966
 2482TIP3    H1 7452   5.349   1.689   1.948
 2482TIP3    H2 7453   5.253   1.634   2.051
 2483TIP3   OH2 7454   0.710   3.752   2.602
 2483TIP3    H1 7455   0.621   3.777   2.629
 2483TIP3    H2 7456   0.738   3.690   2.669
 2484TIP3   OH2 7457   0.444   2.530   1.945
 2484TIP3    H1 7458   0.410   2.446   1.974
 2484TIP3    H2 7459   0.394   2.594   1.995
 2485TIP3   OH2 7460   1.905   2.977   4.151
 2485TIP3    H1 7461   1.832   3.003   4.207
 2485TIP3    H2 7462   1.967   2.935   4.210
 2486TIP3   OH2 7463   6.153   1.809   1.595
 2486TIP3    H1 7464   6.222   1.801   1.529
 2486TIP3    H2 7465   6.080   1.759   1.559
 2487TIP3   OH2 7466   2.816   4.362   3.385
 2487TIP3    H1 7467   2.847   4.301   3.318
 2487TIP3    H2 7468   2.762   4.425   3.338
 2488TIP3   OH2 7469   2.831   3.648   2.508
 2488TIP3    H1 7470   2.809   3.613   2.595
 2488TIP3    H2 7471   2.758   3.706   2.486
 2489TIP3   OH2 7472   6.125   3.832   4.301
 2489TIP3    H1 7473   6.220   3.823   4.291
 2489TIP3    H2 7474   6.096   3.874   4.220
 2490TIP3   OH2 7475   2.133   2.804   3.303
 2490TIP3    H1 7476   2.082   2.885   3.305
 2490TIP3    H2 7477   2.190   2.814   3.226
 2491TIP3   OH2 7478   0.518   2.227   4.060
 2491TIP3    H1 7479   0.431   2.258   4.038
 2491TIP3    H2 7480   0.515   2.211   4.155
 2492TIP3   OH2 7481   3.718   0.227   2.656
 2492TIP3    H1 7482   3.681   0.280   2.726
 2492TIP3    H2 7483   3.699   0.137   2.682
 2493TIP3   OH2 7484   3.879   2.756   3.202
 2493TIP3    H1 7485   3.793   2.784   3.170
 2493TIP3    H2 7486   3.861   2.674   3.249
 2494TIP3   OH2 7487   2.235   3.315   0.311
 2494TIP3    H1 7488   2.243   3.282   0.221
 2494TIP3    H2 7489   2.289   3.394   0.312
 2495TIP3   OH2 7490   2.853   3.121   3.857
 2495TIP3    H1 7491   2.905   3.176   3.798
 2495TIP3    H2 7492   2.914   3.054   3.887
 2496TIP3   OH2 7493   5.524   2.239   0.210
 2496TIP3    H1 7494   5.486   2.157   0.180
 2496TIP3    H2 7495   5.500   2.304   0.144
 2497TIP3   OH2 7496   5.000   3.120   5.013
 2497TIP3    H1 7497   5.045   3.113   5.097
 2497TIP3    H2 7498   4.985   3.214   5.001
 2498TIP3   OH2 7499   3.558   0.748   3.262
 2498TIP3    H1 7500   3.525   0.813   3.323
 2498TIP3    H2 7501   3.560   0.667   3.313
 2499TIP3   OH2 7502   1.686   5.459   0.871
 2499TIP3    H1 7503   1.726   5.437   0.787
 2499TIP3    H2 7504   1.740   5.413   0.936
 2500TIP3   OH2 7505   4.882   5.077   5.013
 2500TIP3    H1 7506   4.914   5.091   4.924
 2500TIP3    H2 7507   4.791   5.108   5.011
 2501TIP3   OH2 7508   5.314   4.647   1.862
 2501TIP3    H1 7509   5.350   4.694   1.787
 2501TIP3    H2 7510   5.369   4.569   1.871
 2502TIP3   OH2 7511   0.985   2.512   4.713
 2502TIP3    H1 7512   0.913   2.490   4.773
 2502TIP3    H2 7513   0.972   2.454   4.638
 2503TIP3   OH2 7514   1.325   5.467   3.090
 2503TIP3    H1 7515   1.344   5.551   3.048
 2503TIP3    H2 7516   1.411   5.427   3.104
 2504TIP3   OH2 7517   5.960   2.402   1.282
 2504TIP3    H1 7518   5.950   2.443   1.197
 2504TIP3    H2 7519   5.871   2.387   1.313
 2505TIP3   OH2 7520   5.145   2.231   1.221
 2505TIP3    H1 7521   5.054   2.237   1.191
 2505TIP3    H2 7522   5.197   2.253   1.145
 2506TIP3   OH2 7523   3.031   0.169   4.630
 2506TIP3    H1 7524   3.079   0.138   4.706
 2506TIP3    H2 7525   3.074   0.252   4.606
 2507TIP3   OH2 7526   3.996   1.523   1.711
 2507TIP3    H1 7527   3.994   1.618   1.697
 2507TIP3    H2 7528   4.002   1.486   1.623
 2508TIP3   OH2 7529   6.026   4.978   2.417
 2508TIP3    H1 7530   6.065   5.058   2.383
 2508TIP3    H2 7531   6.097   4.935   2.465
 2509TIP3   OH2 7532   0.891   5.238   3.242
 2509TIP3    H1 7533   0.880   5.208   3.332
 2509TIP3    H2 7534   0.938   5.321   3.249
 2510TIP3   OH2 7535   5.058   4.973   1.522
 2510TIP3    H1 7536   5.143   4.949   1.559
 2510TIP3    H2 7537   5.054   4.926   1.439
 2511TIP3   OH2 7538   2.820   4.150   4.723
 2511TIP3    H1 7539   2.791   4.059   4.729
 2511TIP3    H2 7540   2.786   4.192   4.802
 2512TIP3   OH2 7541   3.463   4.381   3.416
 2512TIP3    H1 7542   3.476   4.409   3.507
 2512TIP3    H2 7543   3.497   4.292   3.413
 2513TIP3   OH2 7544   2.354   2.062   1.561
 2513TIP3    H1 7545   2.315   2.110   1.488
 2513TIP3    H2 7546   2.348   1.970   1.535
 2514TIP3   OH2 7547   2.701   2.386   2.283
 2514TIP3    H1 7548   2.679   2.305   2.238
 2514TIP3    H2 7549   2.619   2.415   2.323
 2515TIP3   OH2 7550   0.050   1.912   4.739
 2515TIP3    H1 7551   0.074   1.819   4.731
 2515TIP3    H2 7552   0.058   1.946   4.650
 2516TIP3   OH2 7553   5.227   4.470   2.213
 2516TIP3    H1 7554   5.199   4.547   2.163
 2516TIP3    H2 7555   5.171   4.471   2.291
 2517TIP3   OH2 7556   4.149   4.709   3.465
 2517TIP3    H1 7557   4.119   4.692   3.554
 2517TIP3    H2 7558   4.197   4.631   3.440
 2518TIP3   OH2 7559   3.611   1.704   0.690
 2518TIP3    H1 7560   3.620   1.705   0.595
 2518TIP3    H2 7561   3.549   1.634   0.708
 2519TIP3   OH2 7562   5.346   0.153   2.817
 2519TIP3    H1 7563   5.418   0.187   2.764
 2519TIP3    H2 7564   5.292   0.103   2.756
 2520TIP3   OH2 7565   1.555   1.527   2.037
 2520TIP3    H1 7566   1.460   1.536   2.042
 2520TIP3    H2 7567   1.589   1.611   2.069
 2521TIP3   OH2 7568   1.372   0.485   0.212
 2521TIP3    H1 7569   1.343   0.399   0.183
 2521TIP3    H2 7570   1.291   0.531   0.234
 2522TIP3   OH2 7571   1.450   4.201   4.467
 2522TIP3    H1 7572   1.449   4.235   4.378
 2522TIP3    H2 7573   1.540   4.216   4.497
 2523TIP3   OH2 7574   4.740   5.899   1.099
 2523TIP3    H1 7575   4.756   5.946   1.181
 2523TIP3    H2 7576   4.803   5.827   1.100
 2524TIP3   OH2 7577   0.195   2.560   4.237
 2524TIP3    H1 7578   0.164   2.510   4.312
 2524TIP3    H2 7579   0.290   2.547   4.238
 2525TIP3   OH2 7580   5.770   0.753   5.045
 2525TIP3    H1 7581   5.676   0.762   5.061
 2525TIP3    H2 7582   5.807   0.840   5.064
 2526TIP3   OH2 7583   5.978   0.072   2.465
 2526TIP3    H1 7584   5.968   0.087   2.371
 2526TIP3    H2 7585   6.067   0.102   2.484
 2527TIP3   OH2 7586   6.266   5.060   1.527
 2527TIP3    H1 7587   6.252   5.128   1.461
 2527TIP3    H2 7588   6.208   5.083   1.599
 2528TIP3   OH2 7589   3.292   1.766   3.387
 2528TIP3    H1 7590   3.324   1.716   3.461
 2528TIP3    H2 7591   3.340   1.732   3.312
 2529TIP3   OH2 7592   3.956   0.200   0.163
 2529TIP3    H1 7593   3.916   0.115   0.145
 2529TIP3    H2 7594   3.956   0.245   0.079
 2530TIP3   OH2 7595   2.862   1.710   2.065
 2530TIP3    H1 7596   2.877   1.753   1.981
 2530TIP3    H2 7597   2.891   1.620   2.051
 2531TIP3   OH2 7598   0.047   1.149   3.112
 2531TIP3    H1 7599  -0.040   1.122   3.140
 2531TIP3    H2 7600   0.107   1.103   3.170
 2532TIP3   OH2 7601   0.327   2.197   1.710
 2532TIP3    H1 7602   0.373   2.114   1.718
 2532TIP3    H2 7603   0.397   2.262   1.696
 2533TIP3   OH2 7604   1.370   5.148   0.456
 2533TIP3    H1 7605   1.298   5.166   0.517
 2533TIP3    H2 7606   1.433   5.098   0.508
 2534TIP3   OH2 7607   2.729   1.855   1.220
 2534TIP3    H1 7608   2.704   1.764   1.209
 2534TIP3    H2 7609   2.810   1.864   1.171
 2535TIP3   OH2 7610   3.542   1.215   3.923
 2535TIP3    H1 7611   3.532   1.300   3.879
 2535TIP3    H2 7612   3.507   1.230   4.011
 2536TIP3   OH2 7613   1.934   0.500   3.025
 2536TIP3    H1 7614   2.029   0.513   3.018
 2536TIP3    H2 7615   1.896   0.574   2.977
 2537TIP3   OH2 7616   5.564   2.931   1.397
 2537TIP3    H1 7617   5.615   3.004   1.361
 2537TIP3    H2 7618   5.475   2.964   1.403
 2538TIP3   OH2 7619   2.746   2.877   4.456
 2538TIP3    H1 7620   2.826   2.876   4.509
 2538TIP3    H2 7621   2.677   2.854   4.519
 2539TIP3   OH2 7622   1.875   3.723   2.553
 2539TIP3    H1 7623   1.954   3.713   2.607
 2539TIP3    H2 7624   1.816   3.655   2.585
 2540TIP3   OH2 7625   1.212   0.239   2.512
 2540TIP3    H1 7626   1.125   0.267   2.541
 2540TIP3    H2 7627   1.272   0.295   2.562
 2541TIP3   OH2 7628   0.109   5.945   2.287
 2541TIP3    H1 7629   0.090   6.037   2.270
 2541TIP3    H2 7630   0.170   5.920   2.218
 2542TIP3   OH2 7631   4.441   5.583   4.530
 2542TIP3    H1 7632   4.477   5.553   4.613
 2542TIP3    H2 7633   4.506   5.644   4.495
 2543TIP3   OH2 7634   1.623   4.344   4.642
 2543TIP3    H1 7635   1.670   4.422   4.671
 2543TIP3    H2 7636   1.552   4.334   4.705
 2544TIP3   OH2 7637   0.414   4.233   0.564
 2544TIP3    H1 7638   0.455   4.195   0.642
 2544TIP3    H2 7639   0.461   4.315   0.549
 2545TIP3   OH2 7640   0.446   1.059   4.698
 2545TIP3    H1 7641   0.366   1.017   4.731
 2545TIP3    H2 7642   0.446   1.146   4.739
 2546TIP3   OH2 7643   2.712   2.965   4.816
 2546TIP3    H1 7644   2.741   3.012   4.738
 2546TIP3    H2 7645   2.779   2.898   4.829
 2547TIP3   OH2 7646   2.050   2.193   1.739
 2547TIP3    H1 7647   1.970   2.244   1.749
 2547TIP3    H2 7648   2.027   2.124   1.676
 2548TIP3   OH2 7649   2.217   1.148   3.495
 2548TIP3    H1 7650   2.289   1.183   3.548
 2548TIP3    H2 7651   2.186   1.223   3.445
 2549TIP3   OH2 7652   2.298   0.203   2.648
 2549TIP3    H1 7653   2.327   0.137   2.712
 2549TIP3    H2 7654   2.378   0.227   2.601
 2550TIP3   OH2 7655   2.514   1.175   2.482
 2550TIP3    H1 7656   2.439   1.139   2.530
 2550TIP3    H2 7657   2.506   1.137   2.394
 2551TIP3   OH2 7658   2.079   5.025   0.220
 2551TIP3    H1 7659   2.041   5.111   0.239
 2551TIP3    H2 7660   2.173   5.037   0.230
 2552TIP3   OH2 7661   3.434   0.225   3.427
 2552TIP3    H1 7662   3.383   0.185   3.497
 2552TIP3    H2 7663   3.403   0.182   3.347
 2553TIP3   OH2 7664   4.255   4.338   4.702
 2553TIP3    H1 7665   4.236   4.410   4.643
 2553TIP3    H2 7666   4.330   4.369   4.754
 2554TIP3   OH2 7667   5.993   0.515   3.390
 2554TIP3    H1 7668   6.003   0.498   3.484
 2554TIP3    H2 7669   5.902   0.544   3.381
 2555TIP3   OH2 7670   2.567   4.573   4.351
 2555TIP3    H1 7671   2.536   4.554   4.440
 2555TIP3    H2 7672   2.496   4.624   4.312
 2556TIP3   OH2 7673   5.412   1.942   1.902
 2556TIP3    H1 7674   5.415   1.895   1.819
 2556TIP3    H2 7675   5.469   1.890   1.960
 2557TIP3   OH2 7676   0.388   0.754   0.518
 2557TIP3    H1 7677   0.343   0.793   0.593
 2557TIP3    H2 7678   0.322   0.701   0.475
 2558TIP3   OH2 7679   2.996   4.000   2.209
 2558TIP3    H1 7680   2.950   3.931   2.161
 2558TIP3    H2 7681   3.082   3.963   2.229
 2559TIP3   OH2 7682   5.190   5.435   4.355
 2559TIP3    H1 7683   5.172   5.453   4.262
 2559TIP3    H2 7684   5.284   5.450   4.365
 2560TIP3   OH2 7685   1.677   5.648   2.935
 2560TIP3    H1 7686   1.631   5.658   3.019
 2560TIP3    H2 7687   1.608   5.652   2.869
 2561TIP3   OH2 7688   2.804   2.808   2.142
 2561TIP3    H1 7689   2.825   2.879   2.081
 2561TIP3    H2 7690   2.711   2.819   2.160
 2562TIP3   OH2 7691   1.135   5.908   5.030
 2562TIP3    H1 7692   1.195   5.901   5.105
 2562TIP3    H2 7693   1.165   5.840   4.970
 2563TIP3   OH2 7694   1.797   0.928   0.679
 2563TIP3    H1 7695   1.809   0.834   0.664
 2563TIP3    H2 7696   1.882   0.967   0.659
 2564TIP3   OH2 7697   6.239   1.766   2.674
 2564TIP3    H1 7698   6.334   1.768   2.685
 2564TIP3    H2 7699   6.210   1.854   2.696
 2565TIP3   OH2 7700   0.469   0.976   3.774
 2565TIP3    H1 7701   0.522   0.946   3.700
 2565TIP3    H2 7702   0.513   1.055   3.804
 2566TIP3   OH2 7703   0.475   4.021   3.075
 2566TIP3    H1 7704   0.495   3.929   3.056
 2566TIP3    H2 7705   0.400   4.017   3.135
 2567TIP3   OH2 7706   1.940   2.746   1.788
 2567TIP3    H1 7707   1.980   2.828   1.816
 2567TIP3    H2 7708   1.854   2.745   1.830
 2568TIP3   OH2 7709   3.831   3.511   3.934
 2568TIP3    H1 7710   3.862   3.440   3.990
 2568TIP3    H2 7711   3.867   3.590   3.973
 2569TIP3   OH2 7712   0.053   1.317   4.051
 2569TIP3    H1 7713  -0.025   1.371   4.050
 2569TIP3    H2 7714   0.051   1.273   4.137
 2570TIP3   OH2 7715   0.248   0.993   3.224
 2570TIP3    H1 7716   0.266   0.947   3.142
 2570TIP3    H2 7717   0.332   0.992   3.270
 2571TIP3   OH2 7718   6.050   2.256   0.081
 2571TIP3    H1 7719   6.102   2.336   0.086
 2571TIP3    H2 7720   5.970   2.276   0.129
 2572TIP3   OH2 7721   5.214   5.587   4.795
 2572TIP3    H1 7722   5.196   5.681   4.791
 2572TIP3    H2 7723   5.255   5.567   4.711
 2573TIP3   OH2 7724   0.505   3.195   4.677
 2573TIP3    H1 7725   0.553   3.202   4.595
 2573TIP3    H2 7726   0.506   3.102   4.699
 2574TIP3   OH2 7727   2.226   3.752   4.741
 2574TIP3    H1 7728   2.251   3.666   4.775
 2574TIP3    H2 7729   2.308   3.802   4.743
 2575TIP3   OH2 7730   3.440   4.504   1.298
 2575TIP3    H1 7731   3.427   4.449   1.375
 2575TIP3    H2 7732   3.353   4.541   1.281
 2576TIP3   OH2 7733   2.369   0.293   0.274
 2576TIP3    H1 7734   2.330   0.212   0.242
 2576TIP3    H2 7735   2.455   0.267   0.308
 2577TIP3   OH2 7736   6.255   2.658   1.129
 2577TIP3    H1 7737   6.323   2.591   1.131
 2577TIP3    H2 7738   6.299   2.737   1.096
 2578TIP3   OH2 7739   0.642   4.650   3.684
 2578TIP3    H1 7740   0.571   4.712   3.697
 2578TIP3    H2 7741   0.705   4.696   3.629
 2579TIP3   OH2 7742   3.587   4.822   1.035
 2579TIP3    H1 7743   3.609   4.761   1.106
 2579TIP3    H2 7744   3.534   4.889   1.078
 2580TIP3   OH2 7745   3.246   2.432   0.521
 2580TIP3    H1 7746   3.208   2.513   0.557
 2580TIP3    H2 7747   3.340   2.449   0.518
 2581TIP3   OH2 7748   4.685   0.879   1.959
 2581TIP3    H1 7749   4.729   0.932   2.025
 2581TIP3    H2 7750   4.600   0.923   1.947
 2582TIP3   OH2 7751   0.440   1.654   2.839
 2582TIP3    H1 7752   0.419   1.675   2.748
 2582TIP3    H2 7753   0.438   1.559   2.844
 2583TIP3   OH2 7754   4.547   0.865   1.034
 2583TIP3    H1 7755   4.528   0.956   1.056
 2583TIP3    H2 7756   4.467   0.818   1.058
 2584TIP3   OH2 7757   4.636   3.191   1.902
 2584TIP3    H1 7758   4.591   3.275   1.892
 2584TIP3    H2 7759   4.633   3.172   1.996
 2585TIP3   OH2 7760   5.989   2.469   3.088
 2585TIP3    H1 7761   6.020   2.393   3.038
 2585TIP3    H2 7762   5.913   2.501   3.040
 2586TIP3   OH2 7763   3.572   2.461   2.657
 2586TIP3    H1 7764   3.592   2.394   2.591
 2586TIP3    H2 7765   3.637   2.530   2.641
 2587TIP3   OH2 7766   4.881   4.799   4.102
 2587TIP3    H1 7767   4.970   4.825   4.127
 2587TIP3    H2 7768   4.848   4.752   4.179
 2588TIP3   OH2 7769   1.289   1.971   4.458
 2588TIP3    H1 7770   1.357   1.912   4.491
 2588TIP3    H2 7771   1.217   1.963   4.520
 2589TIP3   OH2 7772   5.300   1.752   4.774
 2589TIP3    H1 7773   5.244   1.756   4.851
 2589TIP3    H2 7774   5.384   1.787   4.804
 2590TIP3   OH2 7775   0.818   4.899   1.545
 2590TIP3    H1 7776   0.878   4.866   1.611
 2590TIP3    H2 7777   0.736   4.915   1.592
 2591TIP3   OH2 7778   5.130   4.791   0.696
 2591TIP3    H1 7779   5.172   4.713   0.732
 2591TIP3    H2 7780   5.119   4.771   0.603
 2592TIP3   OH2 7781   5.882   0.219   3.846
 2592TIP3    H1 7782   5.918   0.159   3.911
 2592TIP3    H2 7783   5.912   0.306   3.874
 2593TIP3   OH2 7784   1.326   3.992   3.321
 2593TIP3    H1 7785   1.389   3.973   3.252
 2593TIP3    H2 7786   1.354   3.937   3.394
 2594TIP3   OH2 7787   2.963   0.957   4.517
 2594TIP3    H1 7788   2.934   0.923   4.602
 2594TIP3    H2 7789   2.971   1.051   4.531
 2595TIP3   OH2 7790   3.508   0.589   0.376
 2595TIP3    H1 7791   3.463   0.673   0.378
 2595TIP3    H2 7792   3.595   0.609   0.342
 2596TIP3   OH2 7793   2.529   4.641   2.521
 2596TIP3    H1 7794   2.483   4.600   2.447
 2596TIP3    H2 7795   2.619   4.652   2.490
 2597TIP3   OH2 7796   1.769   0.321   2.891
 2597TIP3    H1 7797   1.693   0.336   2.947
 2597TIP3    H2 7798   1.837   0.378   2.927
 2598TIP3   OH2 7799   4.755   1.585   4.227
 2598TIP3    H1 7800   4.736   1.677   4.208
 2598TIP3    H2 7801   4.711   1.536   4.157
 2599TIP3   OH2 7802   3.436   5.291   3.661
 2599TIP3    H1 7803   3.439   5.387   3.665
 2599TIP3    H2 7804   3.528   5.265   3.650
 2600TIP3   OH2 7805   4.303   1.911   4.163
 2600TIP3    H1 7806   4.376   1.875   4.214
 2600TIP3    H2 7807   4.344   1.971   4.101
 2601TIP3   OH2 7808   0.601   4.891   3.288
 2601TIP3    H1 7809   0.638   4.887   3.377
 2601TIP3    H2 7810   0.506   4.886   3.301
 2602TIP3   OH2 7811   0.381   2.625   4.664
 2602TIP3    H1 7812   0.436   2.564   4.614
 2602TIP3    H2 7813   0.299   2.578   4.678
 2603TIP3   OH2 7814   3.663   0.268   4.087
 2603TIP3    H1 7815   3.663   0.174   4.068
 2603TIP3    H2 7816   3.751   0.286   4.119
 2604TIP3   OH2 7817   3.931   0.989   1.966
 2604TIP3    H1 7818   3.900   0.923   1.904
 2604TIP3    H2 7819   3.938   1.069   1.914
 2605TIP3   OH2 7820   3.041   4.353   2.498
 2605TIP3    H1 7821   3.097   4.399   2.436
 2605TIP3    H2 7822   2.955   4.395   2.488
 2606TIP3   OH2 7823   0.813   5.350   4.674
 2606TIP3    H1 7824   0.882   5.394   4.625
 2606TIP3    H2 7825   0.785   5.415   4.739
 2607TIP3   OH2 7826   2.156   2.888   2.176
 2607TIP3    H1 7827   2.073   2.894   2.129
 2607TIP3    H2 7828   2.140   2.931   2.260
 2608TIP3   OH2 7829   3.468   5.648   1.660
 2608TIP3    H1 7830   3.553   5.670   1.622
 2608TIP3    H2 7831   3.405   5.661   1.589
 2609TIP3   OH2 7832   4.394   0.001   3.762
 2609TIP3    H1 7833   4.472   0.026   3.714
 2609TIP3    H2 7834   4.334   0.075   3.752
 2610TIP3   OH2 7835   3.872   5.629   0.821
 2610TIP3    H1 7836   3.778   5.620   0.801
 2610TIP3    H2 7837   3.883   5.586   0.906
 2611TIP3   OH2 7838   2.402   1.643   5.098
 2611TIP3    H1 7839   2.395   1.737   5.086
 2611TIP3    H2 7840   2.443   1.611   5.018
 2612TIP3   OH2 7841   4.489   4.033   2.449
 2612TIP3    H1 7842   4.520   3.943   2.440
 2612TIP3    H2 7843   4.454   4.055   2.362
 2613TIP3   OH2 7844   4.558   1.744   1.829
 2613TIP3    H1 7845   4.549   1.815   1.892
 2613TIP3    H2 7846   4.541   1.784   1.745
 2614TIP3   OH2 7847   0.491   4.520   3.263
 2614TIP3    H1 7848   0.461   4.509   3.172
 2614TIP3    H2 7849   0.566   4.462   3.271
 2615TIP3   OH2 7850   1.723   3.553   3.273
 2615TIP3    H1 7851   1.736   3.543   3.367
 2615TIP3    H2 7852   1.793   3.613   3.246
 2616TIP3   OH2 7853   6.163   2.688   4.291
 2616TIP3    H1 7854   6.110   2.768   4.291
 2616TIP3    H2 7855   6.191   2.678   4.200
 2617TIP3   OH2 7856   3.391   1.947   2.792
 2617TIP3    H1 7857   3.364   2.010   2.859
 2617TIP3    H2 7858   3.346   1.866   2.815
 2618TIP3   OH2 7859   1.920   5.670   1.397
 2618TIP3    H1 7860   1.864   5.712   1.462
 2618TIP3    H2 7861   1.887   5.581   1.390
 2619TIP3   OH2 7862   2.858   4.673   0.550
 2619TIP3    H1 7863   2.922   4.630   0.606
 2619TIP3    H2 7864   2.847   4.760   0.589
 2620TIP3   OH2 7865   4.180   1.985   1.402
 2620TIP3    H1 7866   4.119   2.040   1.451
 2620TIP3    H2 7867   4.250   2.044   1.375
 2621TIP3   OH2 7868   4.758   4.269   4.710
 2621TIP3    H1 7869   4.842   4.249   4.752
 2621TIP3    H2 7870   4.693   4.255   4.779
 2622TIP3   OH2 7871   2.418   3.735   1.455
 2622TIP3    H1 7872   2.500   3.690   1.434
 2622TIP3    H2 7873   2.364   3.667   1.497
 2623TIP3   OH2 7874   3.984   2.963   3.008
 2623TIP3    H1 7875   3.979   3.010   3.092
 2623TIP3    H2 7876   4.028   2.881   3.029
 2624TIP3   OH2 7877   5.757   4.083   4.095
 2624TIP3    H1 7878   5.698   4.138   4.146
 2624TIP3    H2 7879   5.748   4.115   4.005
 2625TIP3   OH2 7880   1.425   3.099   0.945
 2625TIP3    H1 7881   1.476   3.130   1.020
 2625TIP3    H2 7882   1.485   3.045   0.895
 2626TIP3   OH2 7883   0.090   4.040   0.083
 2626TIP3    H1 7884   0.134   3.973   0.136
 2626TIP3    H2 7885   0.049   3.992   0.012
 2627TIP3   OH2 7886   0.008   1.322   0.750
 2627TIP3    H1 7887   0.063   1.342   0.826
 2627TIP3    H2 7888   0.037   1.236   0.721
 2628TIP3   OH2 7889   2.327   1.475   1.320
 2628TIP3    H1 7890   2.411   1.446   1.355
 2628TIP3    H2 7891   2.263   1.413   1.356
 2629TIP3   OH2 7892   4.319   5.188   2.997
 2629TIP3    H1 7893   4.344   5.147   2.915
 2629TIP3    H2 7894   4.231   5.224   2.980
 2630TIP3   OH2 7895   4.949   5.712   1.194
 2630TIP3    H1 7896   4.893   5.639   1.218
 2630TIP3    H2 7897   5.022   5.709   1.256
 2631TIP3   OH2 7898   1.168   5.485   0.164
 2631TIP3    H1 7899   1.164   5.572   0.124
 2631TIP3    H2 7900   1.253   5.484   0.209
 2632TIP3   OH2 7901   2.120   5.204   3.486
 2632TIP3    H1 7902   2.173   5.277   3.453
 2632TIP3    H2 7903   2.033   5.241   3.496
 2633TIP3   OH2 7904   3.599   5.038   3.033
 2633TIP3    H1 7905   3.688   5.013   3.010
 2633TIP3    H2 7906   3.583   5.118   2.983
 2634TIP3   OH2 7907   5.297   0.785  -0.009
 2634TIP3    H1 7908   5.225   0.732  -0.044
 2634TIP3    H2 7909   5.267   0.875  -0.017
 2635TIP3   OH2 7910   5.297   0.735   3.685
 2635TIP3    H1 7911   5.266   0.649   3.711
 2635TIP3    H2 7912   5.222   0.793   3.699
 2636TIP3   OH2 7913   6.048   3.035   3.840
 2636TIP3    H1 7914   6.123   3.058   3.896
 2636TIP3    H2 7915   6.085   3.028   3.752
 2637TIP3   OH2 7916   0.695   1.205   4.593
 2637TIP3    H1 7917   0.630   1.243   4.652
 2637TIP3    H2 7918   0.659   1.218   4.505
 2638TIP3   OH2 7919   3.549   4.346   5.026
 2638TIP3    H1 7920   3.595   4.392   4.955
 2638TIP3    H2 7921   3.458   4.376   5.018
 2639TIP3   OH2 7922   0.656   0.857   0.067
 2639TIP3    H1 7923   0.658   0.777   0.015
 2639TIP3    H2 7924   0.577   0.903   0.037
 2640TIP3   OH2 7925   2.373   0.862   1.778
 2640TIP3    H1 7926   2.290   0.840   1.737
 2640TIP3    H2 7927   2.420   0.779   1.783
 2641TIP3   OH2 7928   2.539   5.001   2.049
 2641TIP3    H1 7929   2.448   5.006   2.079
 2641TIP3    H2 7930   2.587   5.060   2.108
 2642TIP3   OH2 7931   0.365   5.840   0.306
 2642TIP3    H1 7932   0.417   5.761   0.318
 2642TIP3    H2 7933   0.335   5.862   0.394
 2643TIP3   OH2 7934   3.496   5.679   2.753
 2643TIP3    H1 7935   3.503   5.595   2.799
 2643TIP3    H2 7936   3.422   5.722   2.794
 2644TIP3   OH2 7937   0.985   1.329   4.522
 2644TIP3    H1 7938   0.959   1.386   4.449
 2644TIP3    H2 7939   0.902   1.295   4.556
 2645TIP3   OH2 7940   1.618   5.256   1.650
 2645TIP3    H1 7941   1.684   5.215   1.594
 2645TIP3    H2 7942   1.651   5.345   1.664
 2646TIP3   OH2 7943   6.212   4.528   4.526
 2646TIP3    H1 7944   6.159   4.595   4.483
 2646TIP3    H2 7945   6.152   4.482   4.584
 2647TIP3   OH2 7946   3.089   2.558   4.613
 2647TIP3    H1 7947   3.011   2.502   4.625
 2647TIP3    H2 7948   3.097   2.567   4.518
 2648TIP3   OH2 7949   2.128   1.936   2.958
 2648TIP3    H1 7950   2.198   1.887   3.000
 2648TIP3    H2 7951   2.166   2.022   2.940
 2649TIP3   OH2 7952   3.705   3.035   0.255
 2649TIP3    H1 7953   3.691   3.125   0.283
 2649TIP3    H2 7954   3.643   3.021   0.184
 2650TIP3   OH2 7955   5.502   0.405   4.820
 2650TIP3    H1 7956   5.463   0.460   4.887
 2650TIP3    H2 7957   5.587   0.446   4.802
 2651TIP3   OH2 7958   4.832   2.894   1.599
 2651TIP3    H1 7959   4.812   2.907   1.691
 2651TIP3    H2 7960   4.924   2.869   1.597
 2652TIP3   OH2 7961   2.981   0.682   2.661
 2652TIP3    H1 7962   2.932   0.670   2.580
 2652TIP3    H2 7963   2.928   0.745   2.711
 2653TIP3   OH2 7964   5.222   1.272   0.818
 2653TIP3    H1 7965   5.281   1.345   0.798
 2653TIP3    H2 7966   5.179   1.298   0.899
 2654TIP3   OH2 7967   5.492   0.798   5.064
 2654TIP3    H1 7968   5.514   0.818   4.973
 2654TIP3    H2 7969   5.398   0.781   5.062
 2655TIP3   OH2 7970   4.849   4.679   0.199
 2655TIP3    H1 7971   4.871   4.702   0.109
 2655TIP3    H2 7972   4.820   4.761   0.239
 2656TIP3   OH2 7973   1.914   3.562   2.246
 2656TIP3    H1 7974   1.917   3.505   2.169
 2656TIP3    H2 7975   1.858   3.515   2.308
 2657TIP3   OH2 7976   6.077   4.657   2.657
 2657TIP3    H1 7977   6.057   4.598   2.731
 2657TIP3    H2 7978   6.172   4.660   2.654
 2658TIP3   OH2 7979   3.678   4.393   1.804
 2658TIP3    H1 7980   3.672   4.489   1.808
 2658TIP3    H2 7981   3.765   4.374   1.839
 2659TIP3   OH2 7982   1.685   1.175   3.012
 2659TIP3    H1 7983   1.625   1.173   3.087
 2659TIP3    H2 7984   1.639   1.228   2.946
 2660TIP3   OH2 7985   6.043   2.851   3.107
 2660TIP3    H1 7986   6.085   2.847   3.021
 2660TIP3    H2 7987   5.953   2.876   3.088
 2661TIP3   OH2 7988   5.061   1.692   1.290
 2661TIP3    H1 7989   5.069   1.749   1.213
 2661TIP3    H2 7990   4.966   1.685   1.304
 2662TIP3   OH2 7991   4.298   0.843   1.632
 2662TIP3    H1 7992   4.393   0.849   1.625
 2662TIP3    H2 7993   4.281   0.840   1.727
 2663TIP3   OH2 7994   5.720   5.895   3.412
 2663TIP3    H1 7995   5.699   5.986   3.433
 2663TIP3    H2 7996   5.793   5.901   3.350
 2664TIP3   OH2 7997   1.295   1.193   4.999
 2664TIP3    H1 7998   1.327   1.234   4.918
 2664TIP3    H2 7999   1.200   1.190   4.989
 2665TIP3   OH2 8000   2.992   2.043   1.907
 2665TIP3    H1 8001   3.022   2.025   1.818
 2665TIP3    H2 8002   2.968   2.136   1.905
 2666TIP3   OH2 8003   0.972   1.450   1.328
 2666TIP3    H1 8004   0.946   1.488   1.244
 2666TIP3    H2 8005   0.950   1.357   1.320
 2667TIP3   OH2 8006   1.714   0.528   1.678
 2667TIP3    H1 8007   1.635   0.581   1.663
 2667TIP3    H2 8008   1.691   0.441   1.645
 2668TIP3   OH2 8009   0.176   3.680   3.157
 2668TIP3    H1 8010   0.185   3.651   3.248
 2668TIP3    H2 8011   0.119   3.614   3.117
 2669TIP3   OH2 8012   1.320   5.412   2.234
 2669TIP3    H1 8013   1.239   5.365   2.213
 2669TIP3    H2 8014   1.302   5.503   2.211
 2670TIP3   OH2 8015  -0.093   1.579   0.035
 2670TIP3    H1 8016  -0.054   1.604   0.119
 2670TIP3    H2 8017  -0.066   1.489   0.022
 2671TIP3   OH2 8018   2.506   3.836   2.192
 2671TIP3    H1 8019   2.415   3.861   2.203
 2671TIP3    H2 8020   2.537   3.887   2.117
 2672TIP3   OH2 8021   0.206   0.241   2.909
 2672TIP3    H1 8022   0.222   0.162   2.857
 2672TIP3    H2 8023   0.232   0.313   2.851
 2673TIP3   OH2 8024   0.888   4.574   5.020
 2673TIP3    H1 8025   0.811   4.566   4.963
 2673TIP3    H2 8026   0.911   4.667   5.015
 2674TIP3   OH2 8027   0.798   5.658   4.067
 2674TIP3    H1 8028   0.728   5.691   4.124
 2674TIP3    H2 8029   0.798   5.563   4.082
 2675TIP3   OH2 8030   3.507   5.791   3.778
 2675TIP3    H1 8031   3.580   5.756   3.727
 2675TIP3    H2 8032   3.433   5.789   3.718
 2676TIP3   OH2 8033   5.710   0.513   0.212
 2676TIP3    H1 8034   5.723   0.532   0.119
 2676TIP3    H2 8035   5.615   0.516   0.224
 2677TIP3   OH2 8036   0.338   3.520   5.023
 2677TIP3    H1 8037   0.378   3.607   5.013
 2677TIP3    H2 8038   0.406   3.460   4.992
 2678TIP3   OH2 8039   5.263   1.262   1.810
 2678TIP3    H1 8040   5.189   1.317   1.783
 2678TIP3    H2 8041   5.299   1.229   1.728
 2679TIP3   OH2 8042   5.583   2.881   1.960
 2679TIP3    H1 8043   5.593   2.900   1.867
 2679TIP3    H2 8044   5.490   2.859   1.971
 2680TIP3   OH2 8045   1.088   0.496   2.352
 2680TIP3    H1 8046   1.156   0.536   2.298
 2680TIP3    H2 8047   1.040   0.438   2.293
 2681TIP3   OH2 8048   0.642   1.160   0.150
 2681TIP3    H1 8049   0.608   1.075   0.178
 2681TIP3    H2 8050   0.580   1.191   0.084
 2682TIP3   OH2 8051   5.173   0.210   4.105
 2682TIP3    H1 8052   5.100   0.200   4.043
 2682TIP3    H2 8053   5.130   0.220   4.190
 2683TIP3   OH2 8054   2.109   1.941   0.820
 2683TIP3    H1 8055   2.076   2.007   0.759
 2683TIP3    H2 8056   2.105   1.858   0.771
 2684TIP3   OH2 8057   2.017   4.379   1.393
 2684TIP3    H1 8058   1.927   4.348   1.405
 2684TIP3    H2 8059   2.070   4.300   1.395
 2685TIP3   OH2 8060   5.948   0.016   0.351
 2685TIP3    H1 8061   6.021   0.058   0.306
 2685TIP3    H2 8062   5.916   0.081   0.413
 2686TIP3   OH2 8063   4.814   1.840   1.507
 2686TIP3    H1 8064   4.841   1.903   1.440
 2686TIP3    H2 8065   4.890   1.834   1.565
 2687TIP3   OH2 8066   3.645   0.663   2.563
 2687TIP3    H1 8067   3.672   0.680   2.653
 2687TIP3    H2 8068   3.720   0.689   2.510
 2688TIP3   OH2 8069   1.294   2.471   1.785
 2688TIP3    H1 8070   1.336   2.464   1.871
 2688TIP3    H2 8071   1.254   2.558   1.786
 2689TIP3   OH2 8072   5.143   4.143   1.157
 2689TIP3    H1 8073   5.170   4.074   1.096
 2689TIP3    H2 8074   5.223   4.192   1.175
 2690TIP3   OH2 8075   0.619   4.267   3.028
 2690TIP3    H1 8076   0.546   4.328   3.026
 2690TIP3    H2 8077   0.580   4.183   3.053
 2691TIP3   OH2 8078   0.846   5.642   2.595
 2691TIP3    H1 8079   0.809   5.714   2.544
 2691TIP3    H2 8080   0.891   5.588   2.531
 2692TIP3   OH2 8081   5.351   5.829   1.896
 2692TIP3    H1 8082   5.372   5.859   1.808
 2692TIP3    H2 8083   5.408   5.880   1.953
 2693TIP3   OH2 8084   2.663   5.154   0.757
 2693TIP3    H1 8085   2.742   5.131   0.707
 2693TIP3    H2 8086   2.676   5.246   0.780
 2694TIP3   OH2 8087   3.996   1.903   3.691
 2694TIP3    H1 8088   4.068   1.883   3.631
 2694TIP3    H2 8089   3.950   1.819   3.703
 2695TIP3   OH2 8090   3.183   5.062   2.982
 2695TIP3    H1 8091   3.186   5.076   3.077
 2695TIP3    H2 8092   3.215   4.972   2.971
 2696TIP3   OH2 8093   2.617   1.987   2.577
 2696TIP3    H1 8094   2.697   1.944   2.546
 2696TIP3    H2 8095   2.561   1.992   2.500
 2697TIP3   OH2 8096   2.437   3.116   2.441
 2697TIP3    H1 8097   2.349   3.087   2.416
 2697TIP3    H2 8098   2.425   3.160   2.524
 2698TIP3   OH2 8099   2.594   5.069   2.591
 2698TIP3    H1 8100   2.525   5.135   2.595
 2698TIP3    H2 8101   2.580   5.015   2.668
 2699TIP3   OH2 8102   3.473   0.849   3.852
 2699TIP3    H1 8103   3.383   0.880   3.859
 2699TIP3    H2 8104   3.472   0.763   3.894
 2700TIP3   OH2 8105   1.330   5.034   2.162
 2700TIP3    H1 8106   1.363   5.038   2.072
 2700TIP3    H2 8107   1.259   5.098   2.164
 2701TIP3   OH2 8108   1.887   0.716   0.025
 2701TIP3    H1 8109   1.928   0.645   0.075
 2701TIP3    H2 8110   1.835   0.672  -0.042
 2702TIP3   OH2 8111   6.290   3.931   1.401
 2702TIP3    H1 8112   6.265   3.979   1.480
 2702TIP3    H2 8113   6.244   3.847   1.407
 2703TIP3   OH2 8114   3.017   2.133   3.505
 2703TIP3    H1 8115   2.969   2.167   3.581
 2703TIP3    H2 8116   2.951   2.088   3.453
 2704TIP3   OH2 8117   0.389   0.241   3.209
 2704TIP3    H1 8118   0.341   0.308   3.159
 2704TIP3    H2 8119   0.456   0.291   3.257
 2705TIP3   OH2 8120   0.003   0.858   2.421
 2705TIP3    H1 8121  -0.040   0.784   2.378
 2705TIP3    H2 8122   0.096   0.845   2.405
 2706TIP3   OH2 8123   4.266   1.557   4.861
 2706TIP3    H1 8124   4.233   1.502   4.791
 2706TIP3    H2 8125   4.205   1.544   4.933
 2707TIP3   OH2 8126   1.989   2.145   4.693
 2707TIP3    H1 8127   1.964   2.075   4.754
 2707TIP3    H2 8128   2.061   2.190   4.737
 2708TIP3   OH2 8129   3.759   4.658   2.884
 2708TIP3    H1 8130   3.768   4.709   2.804
 2708TIP3    H2 8131   3.848   4.639   2.912
 2709TIP3   OH2 8132   0.634   4.087   4.516
 2709TIP3    H1 8133   0.642   4.181   4.532
 2709TIP3    H2 8134   0.723   4.060   4.492
 2710TIP3   OH2 8135   2.390   3.296   4.843
 2710TIP3    H1 8136   2.419   3.261   4.758
 2710TIP3    H2 8137   2.302   3.261   4.854
 2711TIP3   OH2 8138   3.769   0.458   4.716
 2711TIP3    H1 8139   3.716   0.437   4.793
 2711TIP3    H2 8140   3.714   0.518   4.665
 2712TIP3   OH2 8141   2.045   3.410   0.586
 2712TIP3    H1 8142   2.021   3.488   0.637
 2712TIP3    H2 8143   2.116   3.440   0.529
 2713TIP3   OH2 8144   4.915   0.253   3.110
 2713TIP3    H1 8145   4.857   0.242   3.035
 2713TIP3    H2 8146   4.998   0.215   3.082
 2714TIP3   OH2 8147   0.443   5.989   1.686
 2714TIP3    H1 8148   0.408   5.900   1.684
 2714TIP3    H2 8149   0.427   6.023   1.598
 2715TIP3   OH2 8150   5.935   5.838   0.284
 2715TIP3    H1 8151   5.843   5.814   0.272
 2715TIP3    H2 8152   5.982   5.785   0.221
 2716TIP3   OH2 8153   2.830   5.340   1.319
 2716TIP3    H1 8154   2.921   5.311   1.330
 2716TIP3    H2 8155   2.823   5.417   1.374
 2717TIP3   OH2 8156   3.733   3.032   4.944
 2717TIP3    H1 8157   3.735   3.060   4.852
 2717TIP3    H2 8158   3.706   2.940   4.940
 2718TIP3   OH2 8159   3.524   0.003   0.821
 2718TIP3    H1 8160   3.461   0.075   0.820
 2718TIP3    H2 8161   3.572   0.014   0.903
 2719TIP3   OH2 8162   0.082   4.631   1.017
 2719TIP3    H1 8163   0.089   4.537   0.999
 2719TIP3    H2 8164   0.017   4.662   0.955
 2720TIP3   OH2 8165   5.383   4.381   0.450
 2720TIP3    H1 8166   5.380   4.392   0.355
 2720TIP3    H2 8167   5.298   4.344   0.472
 2721TIP3   OH2 8168   1.733   3.753   1.374
 2721TIP3    H1 8169   1.756   3.683   1.313
 2721TIP3    H2 8170   1.719   3.708   1.458
 2722TIP3   OH2 8171   3.933   2.066   2.613
 2722TIP3    H1 8172   3.949   2.120   2.536
 2722TIP3    H2 8173   3.913   2.128   2.683
 2723TIP3   OH2 8174   6.225   5.195   0.903
 2723TIP3    H1 8175   6.218   5.290   0.914
 2723TIP3    H2 8176   6.252   5.184   0.812
 2724TIP3   OH2 8177   2.116   4.709   4.571
 2724TIP3    H1 8178   2.028   4.673   4.569
 2724TIP3    H2 8179   2.135   4.731   4.480
 2725TIP3   OH2 8180   3.267   2.170   2.206
 2725TIP3    H1 8181   3.337   2.190   2.145
 2725TIP3    H2 8182   3.303   2.190   2.292
 2726TIP3   OH2 8183   0.556   0.940   1.670
 2726TIP3    H1 8184   0.647   0.969   1.680
 2726TIP3    H2 8185   0.563   0.849   1.639
 2727TIP3   OH2 8186   3.948   2.619   1.937
 2727TIP3    H1 8187   3.909   2.544   1.982
 2727TIP3    H2 8188   4.023   2.643   1.990
 2728TIP3   OH2 8189   4.066   3.291   1.995
 2728TIP3    H1 8190   3.978   3.329   2.000
 2728TIP3    H2 8191   4.087   3.294   1.901
 2729TIP3   OH2 8192   5.403   3.412   0.808
 2729TIP3    H1 8193   5.429   3.429   0.717
 2729TIP3    H2 8194   5.327   3.469   0.821
 2730TIP3   OH2 8195   5.919   2.941   4.569
 2730TIP3    H1 8196   5.994   3.000   4.560
 2730TIP3    H2 8197   5.941   2.887   4.645
 2731TIP3   OH2 8198   1.796   3.514   4.154
 2731TIP3    H1 8199   1.830   3.441   4.206
 2731TIP3    H2 8200   1.814   3.489   4.064
 2732TIP3   OH2 8201   4.363   4.113   3.905
 2732TIP3    H1 8202   4.391   4.158   3.984
 2732TIP3    H2 8203   4.306   4.043   3.936
 2733TIP3   OH2 8204   3.928   3.357   4.970
 2733TIP3    H1 8205   3.888   3.287   5.021
 2733TIP3    H2 8206   3.919   3.329   4.879
 2734TIP3   OH2 8207   0.034   3.037   1.609
 2734TIP3    H1 8208  -0.041   3.045   1.550
 2734TIP3    H2 8209   0.096   3.102   1.578
 2735TIP3   OH2 8210   2.563   5.228   0.372
 2735TIP3    H1 8211   2.476   5.187   0.367
 2735TIP3    H2 8212   2.548   5.311   0.417
 2736TIP3   OH2 8213   1.604   0.601   3.868
 2736TIP3    H1 8214   1.577   0.658   3.940
 2736TIP3    H2 8215   1.565   0.516   3.889
 2737TIP3   OH2 8216   2.445   4.036   2.795
 2737TIP3    H1 8217   2.436   4.122   2.755
 2737TIP3    H2 8218   2.540   4.021   2.800
 2738TIP3   OH2 8219   3.258   1.889   0.767
 2738TIP3    H1 8220   3.171   1.882   0.806
 2738TIP3    H2 8221   3.243   1.882   0.673
 2739TIP3   OH2 8222   3.983   2.341   0.436
 2739TIP3    H1 8223   3.924   2.281   0.481
 2739TIP3    H2 8224   3.926   2.411   0.405
 2740TIP3   OH2 8225   3.835   0.527   3.269
 2740TIP3    H1 8226   3.831   0.622   3.257
 2740TIP3    H2 8227   3.915   0.513   3.320
 2741TIP3   OH2 8228   4.349   3.083   0.278
 2741TIP3    H1 8229   4.320   3.166   0.315
 2741TIP3    H2 8230   4.302   3.017   0.328
 2742TIP3   OH2 8231   2.063   4.312   4.123
 2742TIP3    H1 8232   2.040   4.350   4.208
 2742TIP3    H2 8233   2.048   4.218   4.134
 2743TIP3   OH2 8234   3.130   3.972   1.548
 2743TIP3    H1 8235   3.087   4.052   1.516
 2743TIP3    H2 8236   3.189   4.003   1.617
 2744TIP3   OH2 8237   0.694   0.180   1.081
 2744TIP3    H1 8238   0.721   0.272   1.092
 2744TIP3    H2 8239   0.776   0.134   1.062
 2745TIP3   OH2 8240   2.709   2.125   2.132
 2745TIP3    H1 8241   2.680   2.057   2.192
 2745TIP3    H2 8242   2.794   2.153   2.166
 2746TIP3   OH2 8243   3.422   3.002   3.696
 2746TIP3    H1 8244   3.468   3.079   3.663
 2746TIP3    H2 8245   3.434   2.935   3.628
 2747TIP3   OH2 8246   5.315   5.562   1.861
 2747TIP3    H1 8247   5.229   5.560   1.902
 2747TIP3    H2 8248   5.351   5.648   1.885
 2748TIP3   OH2 8249   2.156   0.244   3.715
 2748TIP3    H1 8250   2.197   0.215   3.634
 2748TIP3    H2 8251   2.159   0.340   3.711
 2749TIP3   OH2 8252   2.976   4.724   0.284
 2749TIP3    H1 8253   2.914   4.709   0.356
 2749TIP3    H2 8254   2.994   4.818   0.287
 2750TIP3   OH2 8255   2.751   2.634   2.977
 2750TIP3    H1 8256   2.793   2.617   3.061
 2750TIP3    H2 8257   2.722   2.725   2.982
 2751TIP3   OH2 8258   1.484   5.695   1.234
 2751TIP3    H1 8259   1.393   5.691   1.205
 2751TIP3    H2 8260   1.497   5.613   1.283
 2752TIP3   OH2 8261   5.303   5.504   2.834
 2752TIP3    H1 8262   5.275   5.592   2.805
 2752TIP3    H2 8263   5.269   5.497   2.923
 2753TIP3   OH2 8264   0.485   2.330   0.248
 2753TIP3    H1 8265   0.509   2.238   0.260
 2753TIP3    H2 8266   0.502   2.347   0.155
 2754TIP3   OH2 8267   1.153   2.491   3.437
 2754TIP3    H1 8268   1.234   2.505   3.486
 2754TIP3    H2 8269   1.166   2.538   3.355
 2755TIP3   OH2 8270   5.150   0.579   2.660
 2755TIP3    H1 8271   5.170   0.515   2.728
 2755TIP3    H2 8272   5.103   0.529   2.593
 2756TIP3   OH2 8273   2.864   3.761   2.150
 2756TIP3    H1 8274   2.805   3.688   2.165
 2756TIP3    H2 8275   2.949   3.731   2.183
 2757TIP3   OH2 8276   6.335   1.410   1.281
 2757TIP3    H1 8277   6.427   1.394   1.262
 2757TIP3    H2 8278   6.334   1.457   1.364
 2758TIP3   OH2 8279   6.192   5.314   4.793
 2758TIP3    H1 8280   6.282   5.327   4.764
 2758TIP3    H2 8281   6.184   5.219   4.804
 2759TIP3   OH2 8282   2.111   2.892   0.465
 2759TIP3    H1 8283   2.167   2.847   0.401
 2759TIP3    H2 8284   2.135   2.984   0.458
 2760TIP3   OH2 8285   2.458   0.909   5.247
 2760TIP3    H1 8286   2.468   0.988   5.300
 2760TIP3    H2 8287   2.434   0.941   5.160
 2761TIP3   OH2 8288   3.960   1.386   0.917
 2761TIP3    H1 8289   4.049   1.377   0.882
 2761TIP3    H2 8290   3.911   1.427   0.846
 2762TIP3   OH2 8291   1.443   0.793   0.544
 2762TIP3    H1 8292   1.383   0.814   0.473
 2762TIP3    H2 8293   1.467   0.701   0.529
 2763TIP3   OH2 8294   0.036   1.610   5.004
 2763TIP3    H1 8295  -0.050   1.640   5.035
 2763TIP3    H2 8296   0.096   1.634   5.074
 2764TIP3   OH2 8297   3.865   1.551   0.696
 2764TIP3    H1 8298   3.934   1.617   0.707
 2764TIP3    H2 8299   3.784   1.597   0.718
 2765TIP3   OH2 8300   1.759   4.366   1.957
 2765TIP3    H1 8301   1.718   4.389   2.040
 2765TIP3    H2 8302   1.763   4.271   1.958
 2766TIP3   OH2 8303   3.070   1.772   2.246
 2766TIP3    H1 8304   3.139   1.795   2.185
 2766TIP3    H2 8305   2.990   1.775   2.194
 2767TIP3   OH2 8306   2.024   2.788   3.787
 2767TIP3    H1 8307   2.065   2.703   3.776
 2767TIP3    H2 8308   1.933   2.769   3.808
 2768TIP3   OH2 8309   4.390   4.451   1.116
 2768TIP3    H1 8310   4.353   4.528   1.074
 2768TIP3    H2 8311   4.428   4.483   1.198
 2769TIP3   OH2 8312   1.740   3.379   2.378
 2769TIP3    H1 8313   1.772   3.293   2.406
 2769TIP3    H2 8314   1.689   3.411   2.452
 2770TIP3   OH2 8315   2.640   5.807   0.550
 2770TIP3    H1 8316   2.694   5.828   0.626
 2770TIP3    H2 8317   2.616   5.892   0.513
 2771TIP3   OH2 8318   2.665   4.258   0.435
 2771TIP3    H1 8319   2.688   4.308   0.357
 2771TIP3    H2 8320   2.668   4.322   0.506
 2772TIP3   OH2 8321   4.420   0.980   0.241
 2772TIP3    H1 8322   4.411   0.913   0.173
 2772TIP3    H2 8323   4.358   0.955   0.309
 2773TIP3   OH2 8324   5.117   0.819   4.635
 2773TIP3    H1 8325   5.210   0.837   4.619
 2773TIP3    H2 8326   5.082   0.796   4.549
 2774TIP3   OH2 8327   0.621   4.196   1.594
 2774TIP3    H1 8328   0.552   4.242   1.642
 2774TIP3    H2 8329   0.606   4.104   1.614
 2775TIP3   OH2 8330   2.105   0.438   0.242
 2775TIP3    H1 8331   2.073   0.348   0.240
 2775TIP3    H2 8332   2.194   0.433   0.206
 2776TIP3   OH2 8333   1.829   2.908   0.293
 2776TIP3    H1 8334   1.845   3.002   0.293
 2776TIP3    H2 8335   1.874   2.876   0.371
 2777TIP3   OH2 8336   4.194   1.855   3.503
 2777TIP3    H1 8337   4.278   1.897   3.522
 2777TIP3    H2 8338   4.216   1.780   3.448
 2778TIP3   OH2 8339   3.946   5.462   1.597
 2778TIP3    H1 8340   3.937   5.493   1.687
 2778TIP3    H2 8341   3.991   5.532   1.551
 2779TIP3   OH2 8342   0.127   0.098   1.692
 2779TIP3    H1 8343   0.089   0.086   1.779
 2779TIP3    H2 8344   0.183   0.176   1.700
 2780TIP3   OH2 8345   4.272   4.077   4.615
 2780TIP3    H1 8346   4.261   4.168   4.641
 2780TIP3    H2 8347   4.306   4.033   4.693
 2781TIP3   OH2 8348   4.022   1.394   1.451
 2781TIP3    H1 8349   4.066   1.312   1.427
 2781TIP3    H2 8350   4.044   1.455   1.380
 2782TIP3   OH2 8351   0.020   5.860   2.636
 2782TIP3    H1 8352   0.056   5.934   2.685
 2782TIP3    H2 8353   0.084   5.790   2.647
 2783TIP3   OH2 8354   1.721   0.883   2.638
 2783TIP3    H1 8355   1.754   0.887   2.728
 2783TIP3    H2 8356   1.638   0.836   2.646
 2784TIP3   OH2 8357   5.380   5.900   1.655
 2784TIP3    H1 8358   5.364   5.993   1.673
 2784TIP3    H2 8359   5.376   5.894   1.560
 2785TIP3   OH2 8360   5.275   3.700   0.077
 2785TIP3    H1 8361   5.288   3.711   0.171
 2785TIP3    H2 8362   5.361   3.715   0.038
 2786TIP3   OH2 8363   5.234   0.512   4.253
 2786TIP3    H1 8364   5.253   0.508   4.347
 2786TIP3    H2 8365   5.242   0.421   4.224
 2787TIP3   OH2 8366   5.182   3.642   2.183
 2787TIP3    H1 8367   5.273   3.657   2.206
 2787TIP3    H2 8368   5.186   3.594   2.100
 2788TIP3   OH2 8369   2.437   3.107   3.631
 2788TIP3    H1 8370   2.417   3.138   3.542
 2788TIP3    H2 8371   2.361   3.055   3.656
 2789TIP3   OH2 8372   2.028   3.628   4.609
 2789TIP3    H1 8373   2.074   3.711   4.603
 2789TIP3    H2 8374   1.935   3.652   4.609
 2790TIP3   OH2 8375   2.172   3.060   2.650
 2790TIP3    H1 8376   2.243   3.027   2.704
 2790TIP3    H2 8377   2.155   3.148   2.684
 2791TIP3   OH2 8378   4.295   5.658   3.626
 2791TIP3    H1 8379   4.282   5.609   3.708
 2791TIP3    H2 8380   4.298   5.590   3.558
 2792TIP3   OH2 8381   6.279   1.159   1.170
 2792TIP3    H1 8382   6.289   1.254   1.179
 2792TIP3    H2 8383   6.274   1.127   1.260
 2793TIP3   OH2 8384   5.497   4.120   0.714
 2793TIP3    H1 8385   5.525   4.149   0.627
 2793TIP3    H2 8386   5.441   4.044   0.698
 2794TIP3   OH2 8387   5.088   1.604   0.729
 2794TIP3    H1 8388   5.093   1.605   0.633
 2794TIP3    H2 8389   5.165   1.652   0.758
 2795TIP3   OH2 8390   0.040   0.219   0.821
 2795TIP3    H1 8391  -0.008   0.170   0.755
 2795TIP3    H2 8392   0.090   0.284   0.772
 2796TIP3   OH2 8393   6.067   4.327   3.987
 2796TIP3    H1 8394   6.076   4.412   4.031
 2796TIP3    H2 8395   6.135   4.272   4.025
 2797TIP3   OH2 8396   4.418   4.722   3.210
 2797TIP3    H1 8397   4.357   4.662   3.168
 2797TIP3    H2 8398   4.501   4.675   3.212
 2798TIP3   OH2 8399   5.899   0.000   4.474
 2798TIP3    H1 8400   5.861  -0.033   4.392
 2798TIP3    H2 8401   5.837   0.066   4.505
 2799TIP3   OH2 8402   2.979   1.478   1.992
 2799TIP3    H1 8403   2.996   1.410   2.057
 2799TIP3    H2 8404   2.979   1.432   1.908
 2800TIP3   OH2 8405   5.399   2.276   2.362
 2800TIP3    H1 8406   5.351   2.313   2.437
 2800TIP3    H2 8407   5.331   2.235   2.308
 2801TIP3   OH2 8408   5.069   0.138   3.349
 2801TIP3    H1 8409   5.006   0.206   3.324
 2801TIP3    H2 8410   5.118   0.120   3.269
 2802TIP3   OH2 8411   5.875   0.705   2.916
 2802TIP3    H1 8412   5.880   0.738   2.827
 2802TIP3    H2 8413   5.805   0.639   2.913
 2803TIP3   OH2 8414   4.809   1.589   3.237
 2803TIP3    H1 8415   4.723   1.575   3.197
 2803TIP3    H2 8416   4.822   1.684   3.232
 2804TIP3   OH2 8417   4.399   5.409   1.426
 2804TIP3    H1 8418   4.493   5.393   1.434
 2804TIP3    H2 8419   4.370   5.426   1.515
 2805TIP3   OH2 8420   0.706   5.269   1.840
 2805TIP3    H1 8421   0.641   5.207   1.807
 2805TIP3    H2 8422   0.655   5.337   1.884
 2806TIP3   OH2 8423   5.140   2.171   2.304
 2806TIP3    H1 8424   5.126   2.106   2.373
 2806TIP3    H2 8425   5.179   2.122   2.232
 2807TIP3   OH2 8426   0.196   2.069   4.097
 2807TIP3    H1 8427   0.214   2.139   4.035
 2807TIP3    H2 8428   0.263   2.003   4.079
 2808TIP3   OH2 8429   1.468   1.714   4.640
 2808TIP3    H1 8430   1.422   1.641   4.599
 2808TIP3    H2 8431   1.551   1.676   4.670
 2809TIP3   OH2 8432   0.809   2.549   5.157
 2809TIP3    H1 8433   0.767   2.507   5.232
 2809TIP3    H2 8434   0.795   2.489   5.085
 2810TIP3   OH2 8435   3.895   2.950   4.512
 2810TIP3    H1 8436   3.825   2.913   4.567
 2810TIP3    H2 8437   3.926   3.026   4.562
 2811TIP3   OH2 8438   1.747   3.283   3.881
 2811TIP3    H1 8439   1.701   3.332   3.949
 2811TIP3    H2 8440   1.730   3.191   3.903
 2812TIP3   OH2 8441   0.479   2.039   4.811
 2812TIP3    H1 8442   0.456   2.132   4.815
 2812TIP3    H2 8443   0.413   1.996   4.864
 2813TIP3   OH2 8444   1.623   3.462   2.103
 2813TIP3    H1 8445   1.537   3.420   2.101
 2813TIP3    H2 8446   1.651   3.455   2.194
 2814TIP3   OH2 8447   2.745   5.919   1.329
 2814TIP3    H1 8448   2.721   5.868   1.407
 2814TIP3    H2 8449   2.835   5.946   1.344
 2815TIP3   OH2 8450   1.760   1.703   1.600
 2815TIP3    H1 8451   1.726   1.641   1.665
 2815TIP3    H2 8452   1.682   1.742   1.561
 2816TIP3   OH2 8453   0.271   0.799   0.210
 2816TIP3    H1 8454   0.177   0.814   0.205
 2816TIP3    H2 8455   0.284   0.709   0.181
 2817TIP3   OH2 8456   3.838   2.764   0.799
 2817TIP3    H1 8457   3.855   2.818   0.722
 2817TIP3    H2 8458   3.890   2.803   0.868
 2818TIP3   OH2 8459   1.481   0.931   0.077
 2818TIP3    H1 8460   1.507   1.019   0.051
 2818TIP3    H2 8461   1.557   0.897   0.124
 2819TIP3   OH2 8462   0.707   2.742   0.588
 2819TIP3    H1 8463   0.722   2.826   0.631
 2819TIP3    H2 8464   0.792   2.697   0.593
 2820TIP3   OH2 8465   5.768   1.156   0.441
 2820TIP3    H1 8466   5.752   1.213   0.517
 2820TIP3    H2 8467   5.860   1.169   0.420
 2821TIP3   OH2 8468   5.987   0.489   5.076
 2821TIP3    H1 8469   6.044   0.418   5.106
 2821TIP3    H2 8470   5.925   0.502   5.148
 2822TIP3   OH2 8471   4.245   5.705   0.301
 2822TIP3    H1 8472   4.163   5.728   0.258
 2822TIP3    H2 8473   4.219   5.644   0.371
 2823TIP3   OH2 8474   4.218   0.239   3.629
 2823TIP3    H1 8475   4.162   0.214   3.702
 2823TIP3    H2 8476   4.235   0.332   3.642
 2824TIP3   OH2 8477   2.269   5.904   2.170
 2824TIP3    H1 8478   2.305   5.898   2.258
 2824TIP3    H2 8479   2.345   5.918   2.114
 2825TIP3   OH2 8480   2.747   2.155   1.734
 2825TIP3    H1 8481   2.798   2.104   1.671
 2825TIP3    H2 8482   2.676   2.096   1.760
 2826TIP3   OH2 8483   1.101   1.726   1.626
 2826TIP3    H1 8484   1.033   1.667   1.592
 2826TIP3    H2 8485   1.076   1.741   1.717
 2827TIP3   OH2 8486   2.664   4.444   3.603
 2827TIP3    H1 8487   2.735   4.414   3.545
 2827TIP3    H2 8488   2.689   4.533   3.627
 2828TIP3   OH2 8489   1.727   0.749   4.585
 2828TIP3    H1 8490   1.717   0.738   4.680
 2828TIP3    H2 8491   1.779   0.674   4.558
 2829TIP3   OH2 8492   4.933   3.952   1.148
 2829TIP3    H1 8493   4.996   4.023   1.155
 2829TIP3    H2 8494   4.857   3.982   1.199
 2830TIP3   OH2 8495   6.365   1.999   3.488
 2830TIP3    H1 8496   6.336   1.966   3.402
 2830TIP3    H2 8497   6.380   1.920   3.540
 2831TIP3   OH2 8498   4.808   5.339   4.266
 2831TIP3    H1 8499   4.839   5.422   4.303
 2831TIP3    H2 8500   4.714   5.353   4.251
 2832TIP3   OH2 8501   1.577   0.406   3.333
 2832TIP3    H1 8502   1.661   0.387   3.291
 2832TIP3    H2 8503   1.570   0.502   3.329
 2833TIP3   OH2 8504   0.057   2.239   4.712
 2833TIP3    H1 8505   0.022   2.240   4.801
 2833TIP3    H2 8506  -0.020   2.229   4.656
 2834TIP3   OH2 8507   2.918   0.648   3.612
 2834TIP3    H1 8508   2.867   0.585   3.560
 2834TIP3    H2 8509   2.976   0.690   3.549
 2835TIP3   OH2 8510   4.778   5.618   2.619
 2835TIP3    H1 8511   4.793   5.569   2.700
 2835TIP3    H2 8512   4.857   5.672   2.608
 2836TIP3   OH2 8513   5.880   5.317   1.687
 2836TIP3    H1 8514   5.811   5.384   1.689
 2836TIP3    H2 8515   5.922   5.323   1.772
 2837TIP3   OH2 8516   5.004   1.396   4.277
 2837TIP3    H1 8517   4.954   1.450   4.216
 2837TIP3    H2 8518   4.947   1.322   4.297
 2838TIP3   OH2 8519   4.772   5.820   4.071
 2838TIP3    H1 8520   4.865   5.804   4.056
 2838TIP3    H2 8521   4.743   5.866   3.992
 2839TIP3   OH2 8522   3.639   5.499   2.953
 2839TIP3    H1 8523   3.702   5.569   2.934
 2839TIP3    H2 8524   3.671   5.459   3.034
 2840TIP3   OH2 8525   5.607   4.387   0.897
 2840TIP3    H1 8526   5.536   4.323   0.892
 2840TIP3    H2 8527   5.687   4.336   0.883
 2841TIP3   OH2 8528   1.883   1.813   1.961
 2841TIP3    H1 8529   1.880   1.728   1.917
 2841TIP3    H2 8530   1.954   1.805   2.025
 2842TIP3   OH2 8531   5.514   1.081   1.890
 2842TIP3    H1 8532   5.441   1.139   1.914
 2842TIP3    H2 8533   5.519   1.019   1.963
 2843TIP3   OH2 8534   5.746   1.392   4.808
 2843TIP3    H1 8535   5.666   1.424   4.767
 2843TIP3    H2 8536   5.739   1.419   4.900
 2844TIP3   OH2 8537   4.096   1.927   0.798
 2844TIP3    H1 8538   4.167   1.979   0.834
 2844TIP3    H2 8539   4.054   1.886   0.874
 2845TIP3   OH2 8540   2.647   3.184   0.751
 2845TIP3    H1 8541   2.671   3.234   0.673
 2845TIP3    H2 8542   2.700   3.105   0.746
 2846TIP3   OH2 8543   0.434   3.771   2.684
 2846TIP3    H1 8544   0.435   3.792   2.777
 2846TIP3    H2 8545   0.364   3.706   2.674
 2847TIP3   OH2 8546   3.937   3.430   2.869
 2847TIP3    H1 8547   3.932   3.426   2.774
 2847TIP3    H2 8548   3.847   3.445   2.898
 2848TIP3   OH2 8549   0.847   4.723   1.327
 2848TIP3    H1 8550   0.853   4.801   1.382
 2848TIP3    H2 8551   0.753   4.705   1.320
 2849TIP3   OH2 8552   2.231   0.166   3.468
 2849TIP3    H1 8553   2.284   0.233   3.425
 2849TIP3    H2 8554   2.183   0.123   3.398
 2850TIP3   OH2 8555   4.766   0.506   2.319
 2850TIP3    H1 8556   4.695   0.475   2.376
 2850TIP3    H2 8557   4.820   0.429   2.305
 2851TIP3   OH2 8558   3.968   0.896   5.066
 2851TIP3    H1 8559   4.062   0.885   5.080
 2851TIP3    H2 8560   3.928   0.832   5.125
 2852TIP3   OH2 8561   4.534   5.158   2.339
 2852TIP3    H1 8562   4.553   5.072   2.301
 2852TIP3    H2 8563   4.598   5.217   2.299
 2853TIP3   OH2 8564   4.469   1.623   1.044
 2853TIP3    H1 8565   4.534   1.631   0.974
 2853TIP3    H2 8566   4.461   1.712   1.078
 2854TIP3   OH2 8567   4.547   3.645   4.513
 2854TIP3    H1 8568   4.555   3.629   4.419
 2854TIP3    H2 8569   4.633   3.676   4.540
 2855TIP3   OH2 8570   5.441   2.551   3.794
 2855TIP3    H1 8571   5.389   2.608   3.851
 2855TIP3    H2 8572   5.526   2.594   3.788
 2856TIP3   OH2 8573   0.299   1.296   2.459
 2856TIP3    H1 8574   0.377   1.299   2.515
 2856TIP3    H2 8575   0.225   1.302   2.519
 2857TIP3   OH2 8576   0.205   3.328   4.196
 2857TIP3    H1 8577   0.225   3.382   4.119
 2857TIP3    H2 8578   0.269   3.257   4.193
 2858TIP3   OH2 8579   5.141   5.507   4.097
 2858TIP3    H1 8580   5.162   5.459   4.017
 2858TIP3    H2 8581   5.112   5.593   4.067
 2859TIP3   OH2 8582   2.500   1.062   2.839
 2859TIP3    H1 8583   2.467   1.075   2.927
 2859TIP3    H2 8584   2.422   1.065   2.783
 2860TIP3   OH2 8585   5.111   5.122   3.957
 2860TIP3    H1 8586   5.059   5.119   4.037
 2860TIP3    H2 8587   5.094   5.209   3.920
 2861TIP3   OH2 8588   2.717   3.116   2.792
 2861TIP3    H1 8589   2.721   3.193   2.848
 2861TIP3    H2 8590   2.800   3.116   2.744
 2862TIP3   OH2 8591   4.256   1.925   3.835
 2862TIP3    H1 8592   4.314   1.954   3.765
 2862TIP3    H2 8593   4.310   1.867   3.889
 2863TIP3   OH2 8594   4.536   3.263   3.974
 2863TIP3    H1 8595   4.575   3.340   3.934
 2863TIP3    H2 8596   4.455   3.248   3.924
 2864TIP3   OH2 8597   1.535   1.415   1.318
 2864TIP3    H1 8598   1.620   1.374   1.307
 2864TIP3    H2 8599   1.480   1.377   1.250
 2865TIP3   OH2 8600   6.145   0.802   5.207
 2865TIP3    H1 8601   6.078   0.865   5.180
 2865TIP3    H2 8602   6.171   0.759   5.126
 2866TIP3   OH2 8603   1.815   1.905   2.747
 2866TIP3    H1 8604   1.868   1.827   2.761
 2866TIP3    H2 8605   1.766   1.887   2.668
 2867TIP3   OH2 8606   2.504   2.771   4.587
 2867TIP3    H1 8607   2.456   2.726   4.656
 2867TIP3    H2 8608   2.521   2.704   4.521
 2868TIP3   OH2 8609   1.139   4.082   1.241
 2868TIP3    H1 8610   1.180   4.030   1.310
 2868TIP3    H2 8611   1.128   4.021   1.168
 2869TIP3   OH2 8612   0.678   3.478   0.665
 2869TIP3    H1 8613   0.648   3.401   0.714
 2869TIP3    H2 8614   0.614   3.546   0.685
 2870TIP3   OH2 8615   5.551   2.712   0.326
 2870TIP3    H1 8616   5.505   2.788   0.362
 2870TIP3    H2 8617   5.628   2.703   0.382
 2871TIP3   OH2 8618   0.423   3.073   0.890
 2871TIP3    H1 8619   0.331   3.100   0.888
 2871TIP3    H2 8620   0.422   2.984   0.855
 2872TIP3   OH2 8621   4.714   4.983   2.609
 2872TIP3    H1 8622   4.703   4.935   2.527
 2872TIP3    H2 8623   4.746   5.070   2.583
 2873TIP3   OH2 8624   4.493   2.472   1.397
 2873TIP3    H1 8625   4.483   2.567   1.391
 2873TIP3    H2 8626   4.533   2.447   1.314
 2874TIP3   OH2 8627   4.058   3.447   3.338
 2874TIP3    H1 8628   4.151   3.439   3.360
 2874TIP3    H2 8629   4.036   3.365   3.295
 2875TIP3   OH2 8630   4.193   4.687   2.963
 2875TIP3    H1 8631   4.166   4.774   2.994
 2875TIP3    H2 8632   4.251   4.705   2.890
 2876TIP3   OH2 8633   4.703   0.029   4.180
 2876TIP3    H1 8634   4.788  -0.014   4.193
 2876TIP3    H2 8635   4.672  -0.006   4.096
 2877TIP3   OH2 8636   4.471   4.903   1.948
 2877TIP3    H1 8637   4.474   4.892   2.043
 2877TIP3    H2 8638   4.398   4.963   1.933
 2878TIP3   OH2 8639   2.055   0.118   4.784
 2878TIP3    H1 8640   1.968   0.136   4.818
 2878TIP3    H2 8641   2.112   0.117   4.861
 2879TIP3   OH2 8642   3.056   5.735   0.322
 2879TIP3    H1 8643   3.089   5.731   0.233
 2879TIP3    H2 8644   3.048   5.643   0.349
 2880TIP3   OH2 8645   2.657   3.609   5.125
 2880TIP3    H1 8646   2.691   3.613   5.036
 2880TIP3    H2 8647   2.686   3.524   5.158
 2881TIP3   OH2 8648   2.070   1.952   0.187
 2881TIP3    H1 8649   2.058   1.904   0.269
 2881TIP3    H2 8650   2.081   1.883   0.121
 2882TIP3   OH2 8651   0.316   5.744   3.960
 2882TIP3    H1 8652   0.318   5.739   4.055
 2882TIP3    H2 8653   0.346   5.657   3.931
 2883TIP3   OH2 8654   0.293   0.318   1.694
 2883TIP3    H1 8655   0.295   0.346   1.603
 2883TIP3    H2 8656   0.278   0.398   1.744
 2884TIP3   OH2 8657   3.136   0.878   3.202
 2884TIP3    H1 8658   3.186   0.924   3.134
 2884TIP3    H2 8659   3.124   0.942   3.271
 2885TIP3   OH2 8660   3.257   2.984   2.365
 2885TIP3    H1 8661   3.198   2.945   2.301
 2885TIP3    H2 8662   3.306   3.050   2.316
 2886TIP3   OH2 8663   0.614   1.551   4.276
 2886TIP3    H1 8664   0.664   1.525   4.198
 2886TIP3    H2 8665   0.681   1.569   4.342
 2887TIP3   OH2 8666   5.660   0.803   3.060
 2887TIP3    H1 8667   5.646   0.716   3.096
 2887TIP3    H2 8668   5.745   0.798   3.017
 2888TIP3   OH2 8669   4.115   0.241   3.250
 2888TIP3    H1 8670   4.051   0.235   3.179
 2888TIP3    H2 8671   4.070   0.289   3.319
 2889TIP3   OH2 8672   5.294   4.992   4.638
 2889TIP3    H1 8673   5.320   4.993   4.546
 2889TIP3    H2 8674   5.251   5.076   4.652
 2890TIP3   OH2 8675   2.502   5.200   3.766
 2890TIP3    H1 8676   2.477   5.226   3.855
 2890TIP3    H2 8677   2.490   5.105   3.765
 2891TIP3   OH2 8678   0.069   3.289   2.698
 2891TIP3    H1 8679   0.103   3.316   2.784
 2891TIP3    H2 8680   0.059   3.371   2.650
 2892TIP3   OH2 8681   1.036   3.553   4.389
 2892TIP3    H1 8682   1.131   3.568   4.390
 2892TIP3    H2 8683   1.017   3.531   4.298
 2893TIP3   OH2 8684   2.647   1.585   0.658
 2893TIP3    H1 8685   2.603   1.593   0.574
 2893TIP3    H2 8686   2.576   1.572   0.722
 2894TIP3   OH2 8687   5.611   0.030   3.497
 2894TIP3    H1 8688   5.577   0.063   3.580
 2894TIP3    H2 8689   5.696   0.074   3.487
 2895TIP3   OH2 8690   0.233   4.248   3.311
 2895TIP3    H1 8691   0.139   4.237   3.302
 2895TIP3    H2 8692   0.245   4.343   3.317
 2896TIP3   OH2 8693   3.170   1.606   0.589
 2896TIP3    H1 8694   3.087   1.567   0.562
 2896TIP3    H2 8695   3.236   1.564   0.533
 2897TIP3   OH2 8696   4.263   5.750   0.789
 2897TIP3    H1 8697   4.331   5.787   0.846
 2897TIP3    H2 8698   4.186   5.744   0.845
 2898TIP3   OH2 8699   2.780   5.124   5.235
 2898TIP3    H1 8700   2.797   5.111   5.328
 2898TIP3    H2 8701   2.687   5.104   5.224
 2899TIP3   OH2 8702   2.346   4.084   4.105
 2899TIP3    H1 8703   2.411   4.095   4.173
 2899TIP3    H2 8704   2.308   3.998   4.121
 2900TIP3   OH2 8705   4.346   5.466   1.684
 2900TIP3    H1 8706   4.331   5.559   1.700
 2900TIP3    H2 8707   4.409   5.440   1.750
 2901TIP3   OH2 8708   5.148   3.491   0.486
 2901TIP3    H1 8709   5.078   3.525   0.430
 2901TIP3    H2 8710   5.156   3.557   0.556
 2902TIP3   OH2 8711   0.859   2.674   4.514
 2902TIP3    H1 8712   0.863   2.769   4.523
 2902TIP3    H2 8713   0.886   2.641   4.600
 2903TIP3   OH2 8714   0.477   3.993   4.721
 2903TIP3    H1 8715   0.494   3.903   4.695
 2903TIP3    H2 8716   0.531   4.046   4.661
 2904TIP3   OH2 8717   1.866   1.417   0.146
 2904TIP3    H1 8718   1.860   1.413   0.051
 2904TIP3    H2 8719   1.935   1.481   0.163
 2905TIP3   OH2 8720   5.234   1.726   4.515
 2905TIP3    H1 8721   5.148   1.755   4.484
 2905TIP3    H2 8722   5.230   1.734   4.610
 2906TIP3   OH2 8723   1.520   2.929   0.274
 2906TIP3    H1 8724   1.472   2.996   0.227
 2906TIP3    H2 8725   1.603   2.920   0.227
 2907TIP3   OH2 8726   5.870   4.811   1.485
 2907TIP3    H1 8727   5.889   4.892   1.532
 2907TIP3    H2 8728   5.788   4.828   1.439
 2908TIP3   OH2 8729   1.781   3.073   1.723
 2908TIP3    H1 8730   1.837   3.057   1.799
 2908TIP3    H2 8731   1.716   3.136   1.754
 2909TIP3   OH2 8732   2.798   2.407   2.579
 2909TIP3    H1 8733   2.855   2.399   2.657
 2909TIP3    H2 8734   2.818   2.329   2.527
 2910TIP3   OH2 8735   5.094   4.955   2.654
 2910TIP3    H1 8736   5.147   4.876   2.661
 2910TIP3    H2 8737   5.063   4.972   2.742
 2911TIP3   OH2 8738   6.133   0.830   4.662
 2911TIP3    H1 8739   6.207   0.772   4.674
 2911TIP3    H2 8740   6.086   0.828   4.745
 2912TIP3   OH2 8741   0.398   2.195   1.358
 2912TIP3    H1 8742   0.383   2.178   1.451
 2912TIP3    H2 8743   0.483   2.153   1.340
 2913TIP3   OH2 8744   0.538   4.725   0.587
 2913TIP3    H1 8745   0.457   4.759   0.623
 2913TIP3    H2 8746   0.607   4.772   0.635
 2914TIP3   OH2 8747   5.657   5.756   1.708
 2914TIP3    H1 8748   5.732   5.788   1.658
 2914TIP3    H2 8749   5.638   5.827   1.770
 2915TIP3   OH2 8750   6.369   0.796   0.151
 2915TIP3    H1 8751   6.300   0.832   0.207
 2915TIP3    H2 8752   6.326   0.781   0.067
 2916TIP3   OH2 8753   2.323   2.788   0.292
 2916TIP3    H1 8754   2.376   2.829   0.361
 2916TIP3    H2 8755   2.374   2.801   0.212
 2917TIP3   OH2 8756   5.475   5.953   3.909
 2917TIP3    H1 8757   5.474   5.894   3.985
 2917TIP3    H2 8758   5.516   5.901   3.839
 2918TIP3   OH2 8759   0.472   2.908   3.320
 2918TIP3    H1 8760   0.414   2.833   3.325
 2918TIP3    H2 8761   0.512   2.914   3.407
 2919TIP3   OH2 8762   3.968   5.825   2.184
 2919TIP3    H1 8763   4.056   5.854   2.163
 2919TIP3    H2 8764   3.922   5.904   2.212
 2920TIP3   OH2 8765   5.204   2.280   1.953
 2920TIP3    H1 8766   5.135   2.253   1.893
 2920TIP3    H2 8767   5.275   2.310   1.896
 2921TIP3   OH2 8768   2.830   4.234   4.007
 2921TIP3    H1 8769   2.865   4.313   4.048
 2921TIP3    H2 8770   2.904   4.196   3.960
 2922TIP3   OH2 8771   3.029   5.689   2.889
 2922TIP3    H1 8772   3.078   5.647   2.960
 2922TIP3    H2 8773   3.014   5.619   2.826
 2923TIP3   OH2 8774   0.963   1.630   2.763
 2923TIP3    H1 8775   0.901   1.687   2.808
 2923TIP3    H2 8776   1.035   1.688   2.737
 2924TIP3   OH2 8777   1.055   1.499   0.737
 2924TIP3    H1 8778   1.022   1.418   0.697
 2924TIP3    H2 8779   0.998   1.568   0.703
 2925TIP3   OH2 8780   2.043   0.728   3.319
 2925TIP3    H1 8781   1.981   0.667   3.359
 2925TIP3    H2 8782   2.027   0.721   3.225
 2926TIP3   OH2 8783   2.305   0.218   2.255
 2926TIP3    H1 8784   2.398   0.200   2.259
 2926TIP3    H2 8785   2.287   0.268   2.335
 2927TIP3   OH2 8786   3.457   1.537   2.240
 2927TIP3    H1 8787   3.548   1.515   2.221
 2927TIP3    H2 8788   3.442   1.621   2.196
 2928TIP3   OH2 8789   3.267   4.315   5.034
 2928TIP3    H1 8790   3.234   4.352   5.116
 2928TIP3    H2 8791   3.189   4.282   4.990
 2929TIP3   OH2 8792   4.628   3.990   3.592
 2929TIP3    H1 8793   4.604   3.920   3.653
 2929TIP3    H2 8794   4.651   3.944   3.511
 2930TIP3   OH2 8795   0.321   3.992   5.060
 2930TIP3    H1 8796   0.325   4.024   4.970
 2930TIP3    H2 8797   0.388   3.924   5.064
 2931TIP3   OH2 8798   5.038   3.567   0.020
 2931TIP3    H1 8799   5.051   3.473   0.006
 2931TIP3    H2 8800   5.127   3.603   0.018
 2932TIP3   OH2 8801   2.263   2.714   1.268
 2932TIP3    H1 8802   2.358   2.719   1.269
 2932TIP3    H2 8803   2.234   2.772   1.338
 2933TIP3   OH2 8804   2.886   2.162   2.726
 2933TIP3    H1 8805   2.912   2.185   2.636
 2933TIP3    H2 8806   2.895   2.243   2.775
 2934TIP3   OH2 8807   1.374   0.169   4.046
 2934TIP3    H1 8808   1.452   0.114   4.057
 2934TIP3    H2 8809   1.306   0.108   4.015
 2935TIP3   OH2 8810   2.629   4.729   0.974
 2935TIP3    H1 8811   2.720   4.757   0.984
 2935TIP3    H2 8812   2.589   4.748   1.059
 2936TIP3   OH2 8813   0.072   4.334   3.935
 2936TIP3    H1 8814   0.136   4.269   3.907
 2936TIP3    H2 8815  -0.004   4.283   3.963
 2937TIP3   OH2 8816   6.303   3.056   5.193
 2937TIP3    H1 8817   6.266   3.065   5.105
 2937TIP3    H2 8818   6.232   3.016   5.244
 2938TIP3   OH2 8819   2.077   1.872   1.366
 2938TIP3    H1 8820   2.108   1.915   1.286
 2938TIP3    H2 8821   2.153   1.821   1.396
 2939TIP3   OH2 8822   0.615   4.598   4.896
 2939TIP3    H1 8823   0.604   4.516   4.945
 2939TIP3    H2 8824   0.562   4.662   4.944
 2940TIP3   OH2 8825   1.951   0.427   1.761
 2940TIP3    H1 8826   1.873   0.462   1.719
 2940TIP3    H2 8827   2.010   0.502   1.768
 2941TIP3   OH2 8828   5.648   1.878   4.992
 2941TIP3    H1 8829   5.569   1.932   4.984
 2941TIP3    H2 8830   5.665   1.848   4.903
 2942TIP3   OH2 8831   4.914   4.698   3.611
 2942TIP3    H1 8832   4.892   4.747   3.690
 2942TIP3    H2 8833   4.936   4.610   3.642
 2943TIP3   OH2 8834   3.713   1.428   2.102
 2943TIP3    H1 8835   3.683   1.416   2.012
 2943TIP3    H2 8836   3.801   1.464   2.093
 2944TIP3   OH2 8837   4.891   3.534   2.838
 2944TIP3    H1 8838   4.928   3.449   2.812
 2944TIP3    H2 8839   4.917   3.543   2.930
 2945TIP3   OH2 8840   3.170   0.770   1.822
 2945TIP3    H1 8841   3.088   0.772   1.871
 2945TIP3    H2 8842   3.236   0.749   1.888
 2946TIP3   OH2 8843   2.915   4.269   0.772
 2946TIP3    H1 8844   2.939   4.288   0.862
 2946TIP3    H2 8845   2.819   4.273   0.771
 2947TIP3   OH2 8846   0.536   0.748   0.913
 2947TIP3    H1 8847   0.603   0.705   0.966
 2947TIP3    H2 8848   0.514   0.827   0.962
 2948TIP3   OH2 8849   3.755   4.248   2.454
 2948TIP3    H1 8850   3.810   4.310   2.406
 2948TIP3    H2 8851   3.716   4.299   2.524
 2949TIP3   OH2 8852   4.251   0.534   1.549
 2949TIP3    H1 8853   4.174   0.528   1.605
 2949TIP3    H2 8854   4.324   0.543   1.610
 2950TIP3   OH2 8855   4.612   2.039   0.855
 2950TIP3    H1 8856   4.585   2.082   0.936
 2950TIP3    H2 8857   4.530   2.011   0.814
 2951TIP3   OH2 8858   3.890   2.047   0.218
 2951TIP3    H1 8859   3.945   2.088   0.151
 2951TIP3    H2 8860   3.803   2.044   0.178
 2952TIP3   OH2 8861   1.645   0.135   2.712
 2952TIP3    H1 8862   1.698   0.105   2.638
 2952TIP3    H2 8863   1.691   0.213   2.743
 2953TIP3   OH2 8864   1.479   1.461   0.357
 2953TIP3    H1 8865   1.400   1.411   0.335
 2953TIP3    H2 8866   1.551   1.408   0.325
 2954TIP3   OH2 8867   1.717   3.702   4.496
 2954TIP3    H1 8868   1.651   3.764   4.465
 2954TIP3    H2 8869   1.691   3.685   4.587
 2955TIP3   OH2 8870   0.530   1.029   4.156
 2955TIP3    H1 8871   0.445   1.068   4.135
 2955TIP3    H2 8872   0.524   1.006   4.249
 2956TIP3   OH2 8873   5.821   2.922   3.738
 2956TIP3    H1 8874   5.866   2.977   3.802
 2956TIP3    H2 8875   5.889   2.865   3.703
 2957TIP3   OH2 8876   4.253   5.920   2.111
 2957TIP3    H1 8877   4.287   5.836   2.080
 2957TIP3    H2 8878   4.312   5.986   2.075
 2958TIP3   OH2 8879   0.521   0.291   1.959
 2958TIP3    H1 8880   0.445   0.338   1.992
 2958TIP3    H2 8881   0.549   0.340   1.882
 2959TIP3   OH2 8882   0.675   2.388   1.410
 2959TIP3    H1 8883   0.755   2.365   1.362
 2959TIP3    H2 8884   0.614   2.417   1.342
 2960TIP3   OH2 8885   0.280   4.773   3.125
 2960TIP3    H1 8886   0.369   4.761   3.092
 2960TIP3    H2 8887   0.290   4.833   3.199
 2961TIP3   OH2 8888   5.840   5.621   3.024
 2961TIP3    H1 8889   5.923   5.665   3.003
 2961TIP3    H2 8890   5.865   5.550   3.083
 2962TIP3   OH2 8891   6.220   4.447   1.467
 2962TIP3    H1 8892   6.199   4.525   1.517
 2962TIP3    H2 8893   6.315   4.437   1.476
 2963TIP3   OH2 8894   2.988   4.441   1.838
 2963TIP3    H1 8895   2.946   4.407   1.759
 2963TIP3    H2 8896   2.977   4.371   1.903
 2964TIP3   OH2 8897   2.170   3.359   0.827
 2964TIP3    H1 8898   2.116   3.357   0.749
 2964TIP3    H2 8899   2.211   3.445   0.827
 2965TIP3   OH2 8900   5.031   0.764   4.391
 2965TIP3    H1 8901   5.005   0.845   4.349
 2965TIP3    H2 8902   5.014   0.696   4.326
 2966TIP3   OH2 8903   5.169   5.671   0.061
 2966TIP3    H1 8904   5.118   5.591   0.046
 2966TIP3    H2 8905   5.190   5.670   0.154
 2967TIP3   OH2 8906   3.397   5.418   2.348
 2967TIP3    H1 8907   3.435   5.365   2.278
 2967TIP3    H2 8908   3.443   5.501   2.343
 2968TIP3   OH2 8909   3.458   1.637   4.144
 2968TIP3    H1 8910   3.520   1.666   4.211
 2968TIP3    H2 8911   3.490   1.552   4.116
 2969TIP3   OH2 8912   2.975   5.830   4.828
 2969TIP3    H1 8913   2.906   5.887   4.794
 2969TIP3    H2 8914   2.955   5.744   4.791
 2970TIP3   OH2 8915   2.316   3.135   0.059
 2970TIP3    H1 8916   2.383   3.077   0.097
 2970TIP3    H2 8917   2.298   3.097  -0.027
 2971TIP3   OH2 8918   1.100   0.117   2.777
 2971TIP3    H1 8919   1.106   0.022   2.778
 2971TIP3    H2 8920   1.184   0.147   2.811
 2972TIP3   OH2 8921   0.679   5.439   2.171
 2972TIP3    H1 8922   0.594   5.442   2.128
 2972TIP3    H2 8923   0.697   5.530   2.196
 2973TIP3   OH2 8924   3.620   5.211   1.861
 2973TIP3    H1 8925   3.649   5.218   1.952
 2973TIP3    H2 8926   3.700   5.200   1.811
 2974TIP3   OH2 8927   0.993   2.138   4.171
 2974TIP3    H1 8928   0.909   2.093   4.175
 2974TIP3    H2 8929   1.058   2.068   4.169
 2975TIP3   OH2 8930   2.056   2.145   0.655
 2975TIP3    H1 8931   2.119   2.211   0.685
 2975TIP3    H2 8932   2.038   2.169   0.564
 2976TIP3   OH2 8933   2.737   3.137   4.301
 2976TIP3    H1 8934   2.691   3.211   4.341
 2976TIP3    H2 8935   2.705   3.060   4.350
 2977TIP3   OH2 8936   1.410   3.308   0.750
 2977TIP3    H1 8937   1.333   3.359   0.775
 2977TIP3    H2 8938   1.409   3.233   0.810
 2978TIP3   OH2 8939   2.677   5.714   1.877
 2978TIP3    H1 8940   2.714   5.698   1.964
 2978TIP3    H2 8941   2.685   5.630   1.831
 2979TIP3   OH2 8942   4.138   0.000   2.379
 2979TIP3    H1 8943   4.075  -0.047   2.433
 2979TIP3    H2 8944   4.095   0.009   2.294
 2980TIP3   OH2 8945   1.321   3.320   4.410
 2980TIP3    H1 8946   1.416   3.322   4.423
 2980TIP3    H2 8947   1.310   3.310   4.315
 2981TIP3   OH2 8948   3.645   1.533   3.451
 2981TIP3    H1 8949   3.680   1.563   3.534
 2981TIP3    H2 8950   3.675   1.598   3.387
 2982TIP3   OH2 8951   3.016   5.585   1.879
 2982TIP3    H1 8952   3.100   5.629   1.883
 2982TIP3    H2 8953   2.954   5.653   1.853
 2983TIP3   OH2 8954   5.377   4.528   0.705
 2983TIP3    H1 8955   5.385   4.492   0.617
 2983TIP3    H2 8956   5.432   4.473   0.759
 2984TIP3   OH2 8957   1.128   2.615   4.087
 2984TIP3    H1 8958   1.188   2.557   4.134
 2984TIP3    H2 8959   1.049   2.564   4.075
 2985TIP3   OH2 8960   5.644   3.467   4.578
 2985TIP3    H1 8961   5.586   3.391   4.580
 2985TIP3    H2 8962   5.649   3.496   4.669
 2986TIP3   OH2 8963   2.525   2.454   0.257
 2986TIP3    H1 8964   2.452   2.491   0.307
 2986TIP3    H2 8965   2.490   2.438   0.170
 2987TIP3   OH2 8966   5.574   5.135   3.384
 2987TIP3    H1 8967   5.619   5.219   3.390
 2987TIP3    H2 8968   5.622   5.078   3.444
 2988TIP3   OH2 8969   0.420   3.089   3.122
 2988TIP3    H1 8970   0.421   3.020   3.189
 2988TIP3    H2 8971   0.507   3.085   3.083
 2989TIP3   OH2 8972   6.274   1.162   4.748
 2989TIP3    H1 8973   6.239   1.127   4.830
 2989TIP3    H2 8974   6.363   1.191   4.770
 2990TIP3   OH2 8975   4.060   4.277   0.679
 2990TIP3    H1 8976   4.020   4.217   0.617
 2990TIP3    H2 8977   4.154   4.269   0.664
 2991TIP3   OH2 8978   0.938   1.259   0.708
 2991TIP3    H1 8979   0.972   1.173   0.682
 2991TIP3    H2 8980   0.930   1.254   0.803
 2992TIP3   OH2 8981   1.769   5.045   4.045
 2992TIP3    H1 8982   1.703   4.982   4.071
 2992TIP3    H2 8983   1.745   5.125   4.092
 2993TIP3   OH2 8984   0.202   2.457   0.050
 2993TIP3    H1 8985   0.149   2.453  -0.030
 2993TIP3    H2 8986   0.291   2.441   0.020
 2994TIP3   OH2 8987   4.229   3.787   1.395
 2994TIP3    H1 8988   4.163   3.784   1.464
 2994TIP3    H2 8989   4.185   3.833   1.323
 2995TIP3   OH2 8990   1.580   3.327   4.500
 2995TIP3    H1 8991   1.672   3.344   4.519
 2995TIP3    H2 8992   1.565   3.238   4.532
 2996TIP3   OH2 8993   3.804   4.293   4.641
 2996TIP3    H1 8994   3.714   4.260   4.631
 2996TIP3    H2 8995   3.850   4.226   4.690
 2997TIP3   OH2 8996   5.031   4.342   0.176
 2997TIP3    H1 8997   5.111   4.394   0.168
 2997TIP3    H2 8998   5.024   4.322   0.270
 2998TIP3   OH2 8999   1.205   5.880   1.815
 2998TIP3    H1 9000   1.151   5.819   1.765
 2998TIP3    H2 9001   1.148   5.955   1.832
 2999TIP3   OH2 9002   2.705   5.523   1.182
 2999TIP3    H1 9003   2.783   5.481   1.146
 2999TIP3    H2 9004   2.727   5.542   1.273
 3000TIP3   OH2 9005   5.205   5.720   3.592
 3000TIP3    H1 9006   5.115   5.696   3.572
 3000TIP3    H2 9007   5.258   5.669   3.530
 3001TIP3   OH2 9008   3.954   3.509   1.792
 3001TIP3    H1 9009   4.039   3.547   1.813
 3001TIP3    H2 9010   3.901   3.524   1.870
 3002TIP3   OH2 9011   5.244   2.217   1.620
 3002TIP3    H1 9012   5.291   2.242   1.700
 3002TIP3    H2 9013   5.313   2.190   1.559
 3003TIP3   OH2 9014   3.543   4.821   3.692
 3003TIP3    H1 9015   3.459   4.857   3.664
 3003TIP3    H2 9016   3.524   4.776   3.774
 3004TIP3   OH2 9017   0.349   3.779   4.365
 3004TIP3    H1 9018   0.417   3.800   4.428
 3004TIP3    H2 9019   0.347   3.683   4.362
 3005TIP3   OH2 9020   6.209   3.581   4.911
 3005TIP3    H1 9021   6.282   3.520   4.900
 3005TIP3    H2 9022   6.179   3.599   4.822
 3006TIP3   OH2 9023   4.266   1.662   0.569
 3006TIP3    H1 9024   4.318   1.648   0.648
 3006TIP3    H2 9025   4.330   1.676   0.500
 3007TIP3   OH2 9026   5.107   1.571   0.449
 3007TIP3    H1 9027   5.194   1.535   0.465
 3007TIP3    H2 9028   5.076   1.525   0.371
 3008TIP3   OH2 9029   5.944   0.250   3.330
 3008TIP3    H1 9030   5.965   0.343   3.320
 3008TIP3    H2 9031   5.892   0.245   3.410
 3009TIP3   OH2 9032   5.620   0.981   4.849
 3009TIP3    H1 9033   5.585   1.062   4.884
 3009TIP3    H2 9034   5.710   1.003   4.823
 3010TIP3   OH2 9035   3.907   3.881   1.804
 3010TIP3    H1 9036   3.816   3.872   1.833
 3010TIP3    H2 9037   3.958   3.871   1.884
 3011TIP3   OH2 9038   0.611   4.027   5.022
 3011TIP3    H1 9039   0.685   4.036   5.082
 3011TIP3    H2 9040   0.649   4.043   4.935
 3012TIP3   OH2 9041   0.375   2.400   2.866
 3012TIP3    H1 9042   0.413   2.346   2.936
 3012TIP3    H2 9043   0.352   2.337   2.797
 3013TIP3   OH2 9044   0.482   1.700   4.681
 3013TIP3    H1 9045   0.464   1.753   4.759
 3013TIP3    H2 9046   0.472   1.761   4.608
 3014TIP3   OH2 9047   5.195   0.349   0.518
 3014TIP3    H1 9048   5.152   0.433   0.532
 3014TIP3    H2 9049   5.226   0.323   0.605
 3015TIP3   OH2 9050   5.958   5.595   2.542
 3015TIP3    H1 9051   6.031   5.616   2.601
 3015TIP3    H2 9052   5.979   5.508   2.509
 3016TIP3   OH2 9053   3.983   0.034   1.862
 3016TIP3    H1 9054   3.947   0.059   1.777
 3016TIP3    H2 9055   4.067   0.080   1.866
 3017TIP3   OH2 9056   3.410   2.222   1.225
 3017TIP3    H1 9057   3.405   2.197   1.133
 3017TIP3    H2 9058   3.423   2.140   1.272
 3018TIP3   OH2 9059   5.032   1.193   4.040
 3018TIP3    H1 9060   4.957   1.252   4.041
 3018TIP3    H2 9061   5.062   1.195   3.949
 3019TIP3   OH2 9062   5.055   5.576   1.959
 3019TIP3    H1 9063   4.982   5.523   1.990
 3019TIP3    H2 9064   5.014   5.649   1.913
 3020TIP3   OH2 9065   3.792   3.140   0.629
 3020TIP3    H1 9066   3.850   3.166   0.701
 3020TIP3    H2 9067   3.841   3.071   0.583
 3021TIP3   OH2 9068   4.775   2.540   3.438
 3021TIP3    H1 9069   4.808   2.475   3.375
 3021TIP3    H2 9070   4.853   2.591   3.462
 3022TIP3   OH2 9071   5.153   2.197   0.290
 3022TIP3    H1 9072   5.123   2.244   0.212
 3022TIP3    H2 9073   5.186   2.113   0.256
 3023TIP3   OH2 9074   0.860   4.864   4.609
 3023TIP3    H1 9075   0.889   4.783   4.565
 3023TIP3    H2 9076   0.828   4.919   4.537
 3024TIP3   OH2 9077   2.851   1.133   2.086
 3024TIP3    H1 9078   2.853   1.219   2.127
 3024TIP3    H2 9079   2.943   1.110   2.073
 3025TIP3   OH2 9080   5.447   3.540   4.793
 3025TIP3    H1 9081   5.404   3.581   4.867
 3025TIP3    H2 9082   5.493   3.465   4.830
 3026TIP3   OH2 9083   0.584   5.198   4.789
 3026TIP3    H1 9084   0.614   5.227   4.703
 3026TIP3    H2 9085   0.629   5.114   4.803
 3027TIP3   OH2 9086   1.652   2.517   1.800
 3027TIP3    H1 9087   1.624   2.429   1.774
 3027TIP3    H2 9088   1.671   2.561   1.717
 3028TIP3   OH2 9089   4.642   0.974   1.389
 3028TIP3    H1 9090   4.564   1.018   1.354
 3028TIP3    H2 9091   4.610   0.927   1.466
 3029TIP3   OH2 9092   0.404   5.138   3.905
 3029TIP3    H1 9093   0.410   5.233   3.897
 3029TIP3    H2 9094   0.347   5.113   3.832
 3030TIP3   OH2 9095   5.415   1.293   2.577
 3030TIP3    H1 9096   5.502   1.255   2.583
 3030TIP3    H2 9097   5.359   1.220   2.549
 3031TIP3   OH2 9098   4.164   4.582   4.565
 3031TIP3    H1 9099   4.203   4.604   4.481
 3031TIP3    H2 9100   4.073   4.612   4.559
 3032TIP3   OH2 9101   5.904   0.007   1.605
 3032TIP3    H1 9102   5.889   0.007   1.700
 3032TIP3    H2 9103   5.966   0.079   1.591
 3033TIP3   OH2 9104   5.833   1.834   1.172
 3033TIP3    H1 9105   5.885   1.907   1.206
 3033TIP3    H2 9106   5.751   1.839   1.220
 3034TIP3   OH2 9107   3.007   4.206   5.082
 3034TIP3    H1 9108   3.030   4.223   5.174
 3034TIP3    H2 9109   3.015   4.111   5.072
 3035TIP3   OH2 9110   0.365   3.336   1.064
 3035TIP3    H1 9111   0.406   3.412   1.106
 3035TIP3    H2 9112   0.348   3.275   1.136
 3036TIP3   OH2 9113   1.713   3.788   0.881
 3036TIP3    H1 9114   1.658   3.861   0.854
 3036TIP3    H2 9115   1.657   3.711   0.873
 3037TIP3   OH2 9116   0.187   4.982   1.828
 3037TIP3    H1 9117   0.215   5.005   1.739
 3037TIP3    H2 9118   0.258   5.012   1.884
 3038TIP3   OH2 9119   1.687   1.808   3.116
 3038TIP3    H1 9120   1.721   1.880   3.063
 3038TIP3    H2 9121   1.765   1.760   3.145
 3039TIP3   OH2 9122   3.918   2.089   0.999
 3039TIP3    H1 9123   3.926   2.138   1.081
 3039TIP3    H2 9124   3.972   2.011   1.013
 3040TIP3   OH2 9125   3.384   1.958   4.969
 3040TIP3    H1 9126   3.416   1.883   5.019
 3040TIP3    H2 9127   3.313   1.993   5.022
 3041TIP3   OH2 9128   3.453   3.115   2.594
 3041TIP3    H1 9129   3.394   3.077   2.530
 3041TIP3    H2 9130   3.408   3.194   2.624
 3042TIP3   OH2 9131   3.525   0.185   0.546
 3042TIP3    H1 9132   3.511   0.166   0.453
 3042TIP3    H2 9133   3.444   0.158   0.589
 3043TIP3   OH2 9134   2.865   5.724   5.136
 3043TIP3    H1 9135   2.817   5.665   5.078
 3043TIP3    H2 9136   2.957   5.706   5.119
 3044TIP3   OH2 9137   4.906   2.525   2.063
 3044TIP3    H1 9138   4.874   2.440   2.095
 3044TIP3    H2 9139   5.001   2.517   2.067
 3045TIP3   OH2 9140   0.450   1.318   2.225
 3045TIP3    H1 9141   0.395   1.340   2.299
 3045TIP3    H2 9142   0.512   1.253   2.259
 3046TIP3   OH2 9143   2.924   1.749   2.851
 3046TIP3    H1 9144   3.015   1.757   2.822
 3046TIP3    H2 9145   2.878   1.715   2.774
 3047TIP3   OH2 9146   2.979   1.762   3.147
 3047TIP3    H1 9147   3.044   1.698   3.119
 3047TIP3    H2 9148   2.895   1.718   3.133
 3048TIP3   OH2 9149   2.836   5.945   0.336
 3048TIP3    H1 9150   2.903   5.877   0.349
 3048TIP3    H2 9151   2.863   6.017   0.392
 3049TIP3   OH2 9152   5.895   3.262   4.734
 3049TIP3    H1 9153   5.963   3.210   4.776
 3049TIP3    H2 9154   5.820   3.255   4.792
 3050TIP3   OH2 9155   1.116   0.386   1.963
 3050TIP3    H1 9156   1.167   0.461   1.993
 3050TIP3    H2 9157   1.026   0.408   1.984
 3051TIP3   OH2 9158   1.491   3.100   2.162
 3051TIP3    H1 9159   1.491   3.077   2.069
 3051TIP3    H2 9160   1.544   3.032   2.204
 3052TIP3   OH2 9161   1.117   3.393   3.844
 3052TIP3    H1 9162   1.178   3.351   3.904
 3052TIP3    H2 9163   1.173   3.431   3.776
 3053TIP3   OH2 9164   2.830   2.771   4.201
 3053TIP3    H1 9165   2.783   2.810   4.275
 3053TIP3    H2 9166   2.786   2.806   4.124
 3054TIP3   OH2 9167   4.512   5.274   1.110
 3054TIP3    H1 9168   4.564   5.333   1.164
 3054TIP3    H2 9169   4.536   5.186   1.141
 3055TIP3   OH2 9170   3.298   5.153   2.742
 3055TIP3    H1 9171   3.228   5.119   2.798
 3055TIP3    H2 9172   3.378   5.138   2.792
 3056TIP3   OH2 9173   3.321   5.802   0.388
 3056TIP3    H1 9174   3.351   5.887   0.356
 3056TIP3    H2 9175   3.225   5.809   0.388
 3057TIP3   OH2 9176   6.351   2.089   1.374
 3057TIP3    H1 9177   6.298   2.145   1.431
 3057TIP3    H2 9178   6.324   2.113   1.285
 3058TIP3   OH2 9179   2.485   0.781   3.596
 3058TIP3    H1 9180   2.494   0.687   3.611
 3058TIP3    H2 9181   2.398   0.791   3.557
 3059TIP3   OH2 9182   4.491   5.658   0.195
 3059TIP3    H1 9183   4.401   5.687   0.205
 3059TIP3    H2 9184   4.505   5.597   0.267
 3060TIP3   OH2 9185   4.725   4.132   2.096
 3060TIP3    H1 9186   4.634   4.102   2.095
 3060TIP3    H2 9187   4.775   4.059   2.131
 3061TIP3   OH2 9188   0.169   4.910   4.052
 3061TIP3    H1 9189   0.152   4.817   4.037
 3061TIP3    H2 9190   0.209   4.940   3.970
 3062TIP3   OH2 9191   0.204   2.951   4.438
 3062TIP3    H1 9192   0.293   2.917   4.429
 3062TIP3    H2 9193   0.213   3.026   4.497
 3063TIP3   OH2 9194   4.489   5.845   1.916
 3063TIP3    H1 9195   4.581   5.826   1.933
 3063TIP3    H2 9196   4.479   5.832   1.821
 3064TIP3   OH2 9197   2.251   5.610   1.439
 3064TIP3    H1 9198   2.204   5.634   1.359
 3064TIP3    H2 9199   2.183   5.588   1.502
 3065TIP3   OH2 9200   0.538   1.299   2.567
 3065TIP3    H1 9201   0.591   1.220   2.575
 3065TIP3    H2 9202   0.523   1.327   2.657
 3066TIP3   OH2 9203   1.921   4.235   3.888
 3066TIP3    H1 9204   1.975   4.275   3.956
 3066TIP3    H2 9205   1.875   4.164   3.932
 3067TIP3   OH2 9206   1.110   4.884   4.424
 3067TIP3    H1 9207   1.091   4.914   4.335
 3067TIP3    H2 9208   1.100   4.789   4.419
 3068TIP3   OH2 9209   5.727   3.777   1.225
 3068TIP3    H1 9210   5.774   3.848   1.182
 3068TIP3    H2 9211   5.795   3.716   1.254
 3069TIP3   OH2 9212   2.293   2.576   2.608
 3069TIP3    H1 9213   2.199   2.583   2.589
 3069TIP3    H2 9214   2.304   2.488   2.644
 3070TIP3   OH2 9215   0.401   1.948   4.573
 3070TIP3    H1 9216   0.366   2.029   4.534
 3070TIP3    H2 9217   0.455   1.979   4.646
 3071TIP3   OH2 9218   0.349   0.606   3.378
 3071TIP3    H1 9219   0.355   0.596   3.473
 3071TIP3    H2 9220   0.439   0.616   3.349
 3072TIP3   OH2 9221   4.632   2.828   0.685
 3072TIP3    H1 9222   4.589   2.769   0.747
 3072TIP3    H2 9223   4.718   2.790   0.672
 3073TIP3   OH2 9224   3.351   5.105   0.801
 3073TIP3    H1 9225   3.306   5.041   0.745
 3073TIP3    H2 9226   3.433   5.124   0.756
 3074TIP3   OH2 9227   1.197   1.428   2.398
 3074TIP3    H1 9228   1.205   1.422   2.493
 3074TIP3    H2 9229   1.124   1.489   2.385
 3075TIP3   OH2 9230   3.600   4.391   2.631
 3075TIP3    H1 9231   3.510   4.360   2.637
 3075TIP3    H2 9232   3.596   4.463   2.567
 3076TIP3   OH2 9233   5.804   5.123   0.799
 3076TIP3    H1 9234   5.825   5.098   0.889
 3076TIP3    H2 9235   5.801   5.040   0.751
 3077TIP3   OH2 9236   3.189   4.504   2.301
 3077TIP3    H1 9237   3.191   4.599   2.295
 3077TIP3    H2 9238   3.203   4.474   2.211
 3078TIP3   OH2 9239   4.880   4.461   4.212
 3078TIP3    H1 9240   4.813   4.440   4.148
 3078TIP3    H2 9241   4.942   4.518   4.165
 3079TIP3   OH2 9242   0.466   2.041   3.336
 3079TIP3    H1 9243   0.510   1.971   3.287
 3079TIP3    H2 9244   0.503   2.122   3.299
 3080TIP3   OH2 9245   1.425   3.183   3.458
 3080TIP3    H1 9246   1.505   3.199   3.508
 3080TIP3    H2 9247   1.454   3.187   3.366
 3081TIP3   OH2 9248   4.714   1.845   4.170
 3081TIP3    H1 9249   4.676   1.882   4.250
 3081TIP3    H2 9250   4.768   1.916   4.134
 3082TIP3   OH2 9251   0.800   3.904   3.891
 3082TIP3    H1 9252   0.749   3.944   3.821
 3082TIP3    H2 9253   0.859   3.843   3.846
 3083TIP3   OH2 9254   0.384   5.682   4.760
 3083TIP3    H1 9255   0.419   5.628   4.830
 3083TIP3    H2 9256   0.307   5.725   4.799
 3084TIP3   OH2 9257   1.978   5.738   0.023
 3084TIP3    H1 9258   2.060   5.763   0.065
 3084TIP3    H2 9259   1.996   5.744  -0.070
 3085TIP3   OH2 9260   5.356   2.428   3.553
 3085TIP3    H1 9261   5.361   2.472   3.637
 3085TIP3    H2 9262   5.447   2.413   3.528
 3086TIP3   OH2 9263   2.865   3.553   3.925
 3086TIP3    H1 9264   2.959   3.534   3.936
 3086TIP3    H2 9265   2.829   3.546   4.013
 3087TIP3   OH2 9266   3.329   3.252   4.302
 3087TIP3    H1 9267   3.409   3.297   4.275
 3087TIP3    H2 9268   3.350   3.159   4.294
 3088TIP3   OH2 9269   4.059   0.449   0.410
 3088TIP3    H1 9270   4.006   0.411   0.480
 3088TIP3    H2 9271   4.096   0.374   0.365
 3089TIP3   OH2 9272   1.228   4.832   1.236
 3089TIP3    H1 9273   1.244   4.925   1.218
 3089TIP3    H2 9274   1.137   4.818   1.208
 3090TIP3   OH2 9275   2.458   5.377   0.036
 3090TIP3    H1 9276   2.408   5.373  -0.045
 3090TIP3    H2 9277   2.511   5.297   0.035
 3091TIP3   OH2 9278   0.559   3.560   3.608
 3091TIP3    H1 9279   0.480   3.535   3.657
 3091TIP3    H2 9280   0.528   3.568   3.518
 3092TIP3   OH2 9281   4.090   3.793   2.038
 3092TIP3    H1 9282   4.066   3.735   2.111
 3092TIP3    H2 9283   4.144   3.861   2.079
 3093TIP3   OH2 9284   0.179   3.386   2.132
 3093TIP3    H1 9285   0.106   3.435   2.170
 3093TIP3    H2 9286   0.170   3.297   2.168
 3094TIP3   OH2 9287   2.277   5.348   1.837
 3094TIP3    H1 9288   2.361   5.301   1.837
 3094TIP3    H2 9289   2.214   5.283   1.869
 3095TIP3   OH2 9290   3.914   1.140   4.612
 3095TIP3    H1 9291   3.893   1.047   4.611
 3095TIP3    H2 9292   3.829   1.184   4.623
 3096TIP3   OH2 9293   0.859   4.603   0.830
 3096TIP3    H1 9294   0.883   4.588   0.738
 3096TIP3    H2 9295   0.902   4.533   0.878
 3097TIP3   OH2 9296   5.563   2.930   4.373
 3097TIP3    H1 9297   5.619   2.982   4.430
 3097TIP3    H2 9298   5.516   2.871   4.432
 3098TIP3   OH2 9299   5.611   3.567   5.157
 3098TIP3    H1 9300   5.646   3.572   5.246
 3098TIP3    H2 9301   5.521   3.537   5.168
 3099TIP3   OH2 9302   6.051   3.584   2.970
 3099TIP3    H1 9303   6.063   3.491   2.951
 3099TIP3    H2 9304   5.989   3.587   3.043
 3100TIP3   OH2 9305   4.071   2.884   3.344
 3100TIP3    H1 9306   4.066   2.980   3.342
 3100TIP3    H2 9307   3.997   2.855   3.291
 3101TIP3   OH2 9308   3.845   5.002   2.961
 3101TIP3    H1 9309   3.914   4.941   2.936
 3101TIP3    H2 9310   3.878   5.088   2.934
 3102TIP3   OH2 9311  -0.011   3.366   0.140
 3102TIP3    H1 9312   0.015   3.458   0.129
 3102TIP3    H2 9313  -0.029   3.336   0.051
 3103TIP3   OH2 9314   1.935   0.094   2.896
 3103TIP3    H1 9315   1.873   0.155   2.856
 3103TIP3    H2 9316   1.884   0.050   2.964
 3104TIP3   OH2 9317   5.694   2.577   3.960
 3104TIP3    H1 9318   5.636   2.517   4.006
 3104TIP3    H2 9319   5.680   2.662   4.004
 3105TIP3   OH2 9320   2.379   3.710   1.151
 3105TIP3    H1 9321   2.328   3.788   1.129
 3105TIP3    H2 9322   2.348   3.685   1.238
 3106TIP3   OH2 9323   3.703   1.055   4.368
 3106TIP3    H1 9324   3.659   0.984   4.322
 3106TIP3    H2 9325   3.725   1.018   4.454
 3107TIP3   OH2 9326   3.405   3.387   1.516
 3107TIP3    H1 9327   3.390   3.366   1.424
 3107TIP3    H2 9328   3.490   3.432   1.517
 3108TIP3   OH2 9329   4.848   3.123   0.290
 3108TIP3    H1 9330   4.843   3.067   0.212
 3108TIP3    H2 9331   4.848   3.212   0.255
 3109TIP3   OH2 9332   6.304   5.761   1.826
 3109TIP3    H1 9333   6.264   5.751   1.740
 3109TIP3    H2 9334   6.230   5.772   1.886
 3110TIP3   OH2 9335   1.356   3.824   3.910
 3110TIP3    H1 9336   1.391   3.740   3.880
 3110TIP3    H2 9337   1.433   3.877   3.928
 3111TIP3   OH2 9338   4.463   1.050   4.279
 3111TIP3    H1 9339   4.388   1.107   4.261
 3111TIP3    H2 9340   4.493   1.022   4.193
 3112TIP3   OH2 9341   1.060   5.311   2.998
 3112TIP3    H1 9342   1.145   5.318   3.041
 3112TIP3    H2 9343   1.005   5.265   3.061
 3113TIP3   OH2 9344   5.697   2.434   4.472
 3113TIP3    H1 9345   5.686   2.339   4.467
 3113TIP3    H2 9346   5.612   2.470   4.445
 3114TIP3   OH2 9347   3.064   2.671   3.914
 3114TIP3    H1 9348   3.015   2.746   3.948
 3114TIP3    H2 9349   3.155   2.700   3.914
 3115TIP3   OH2 9350   5.431   0.571   2.259
 3115TIP3    H1 9351   5.459   0.554   2.169
 3115TIP3    H2 9352   5.366   0.641   2.251
 3116TIP3   OH2 9353   0.025   0.718   4.456
 3116TIP3    H1 9354   0.023   0.808   4.488
 3116TIP3    H2 9355  -0.011   0.666   4.529
 3117TIP3   OH2 9356   5.195   5.945   0.018
 3117TIP3    H1 9357   5.169   5.855  -0.003
 3117TIP3    H2 9358   5.260   5.935   0.088
 3118TIP3   OH2 9359   3.673   1.431   4.173
 3118TIP3    H1 9360   3.726   1.359   4.206
 3118TIP3    H2 9361   3.714   1.455   4.090
 3119TIP3   OH2 9362   5.966   4.217   3.187
 3119TIP3    H1 9363   5.955   4.171   3.104
 3119TIP3    H2 9364   5.938   4.154   3.254
 3120TIP3   OH2 9365   3.091   3.962   2.681
 3120TIP3    H1 9366   3.063   4.045   2.642
 3120TIP3    H2 9367   3.108   3.905   2.606
 3121TIP3   OH2 9368   1.881   4.737   1.726
 3121TIP3    H1 9369   1.846   4.764   1.641
 3121TIP3    H2 9370   1.952   4.677   1.705
 3122TIP3   OH2 9371   5.444   5.169   5.032
 3122TIP3    H1 9372   5.516   5.106   5.026
 3122TIP3    H2 9373   5.368   5.116   5.055
 3123TIP3   OH2 9374   3.799   2.328   3.631
 3123TIP3    H1 9375   3.833   2.311   3.719
 3123TIP3    H2 9376   3.709   2.294   3.633
 3124TIP3   OH2 9377   3.261   0.670   3.103
 3124TIP3    H1 9378   3.197   0.665   3.032
 3124TIP3    H2 9379   3.252   0.759   3.137
 3125TIP3   OH2 9380   2.900   2.762   0.777
 3125TIP3    H1 9381   2.965   2.794   0.840
 3125TIP3    H2 9382   2.914   2.667   0.774
 3126TIP3   OH2 9383   1.146   2.608   3.212
 3126TIP3    H1 9384   1.189   2.622   3.128
 3126TIP3    H2 9385   1.052   2.615   3.192
 3127TIP3   OH2 9386   2.852   0.661   1.781
 3127TIP3    H1 9387   2.890   0.679   1.694
 3127TIP3    H2 9388   2.778   0.603   1.763
 3128TIP3   OH2 9389   1.785   0.058   3.496
 3128TIP3    H1 9390   1.837   0.124   3.542
 3128TIP3    H2 9391   1.820  -0.026   3.526
 3129TIP3   OH2 9392   0.042   3.895   3.008
 3129TIP3    H1 9393  -0.048   3.899   3.038
 3129TIP3    H2 9394   0.090   3.853   3.079
 3130TIP3   OH2 9395   2.529   5.328   3.507
 3130TIP3    H1 9396   2.523   5.328   3.603
 3130TIP3    H2 9397   2.515   5.236   3.483
 3131TIP3   OH2 9398   2.503   0.399   3.884
 3131TIP3    H1 9399   2.590   0.363   3.896
 3131TIP3    H2 9400   2.505   0.443   3.799
 3132TIP3   OH2 9401   2.473   5.721   5.025
 3132TIP3    H1 9402   2.484   5.807   5.066
 3132TIP3    H2 9403   2.378   5.706   5.025
 3133TIP3   OH2 9404   2.360   4.737   4.256
 3133TIP3    H1 9405   2.265   4.738   4.272
 3133TIP3    H2 9406   2.398   4.780   4.332
 3134TIP3   OH2 9407   4.900   4.410   3.303
 3134TIP3    H1 9408   4.835   4.340   3.297
 3134TIP3    H2 9409   4.964   4.377   3.366
 3135TIP3   OH2 9410   6.015   1.485   1.881
 3135TIP3    H1 9411   6.020   1.395   1.848
 3135TIP3    H2 9412   6.075   1.486   1.956
 3136TIP3   OH2 9413   2.221   2.263   1.038
 3136TIP3    H1 9414   2.162   2.338   1.049
 3136TIP3    H2 9415   2.290   2.296   0.980
 3137TIP3   OH2 9416   2.766   5.615   1.427
 3137TIP3    H1 9417   2.715   5.676   1.481
 3137TIP3    H2 9418   2.848   5.604   1.474
 3138TIP3   OH2 9419   0.380   4.236   1.134
 3138TIP3    H1 9420   0.435   4.211   1.208
 3138TIP3    H2 9421   0.370   4.156   1.082
 3139TIP3   OH2 9422   0.360   5.994   2.931
 3139TIP3    H1 9423   0.265   5.996   2.930
 3139TIP3    H2 9424   0.385   5.988   2.838
 3140TIP3   OH2 9425   4.217   4.089   4.227
 3140TIP3    H1 9426   4.293   4.032   4.239
 3140TIP3    H2 9427   4.251   4.166   4.183
 3141TIP3   OH2 9428   2.973   5.500   4.932
 3141TIP3    H1 9429   2.974   5.475   4.839
 3141TIP3    H2 9430   2.880   5.509   4.953
 3142TIP3   OH2 9431   4.648   4.291   4.952
 3142TIP3    H1 9432   4.731   4.294   5.000
 3142TIP3    H2 9433   4.600   4.218   4.991
 3143TIP3   OH2 9434   2.943   4.409   4.419
 3143TIP3    H1 9435   2.913   4.437   4.333
 3143TIP3    H2 9436   3.000   4.480   4.449
 3144TIP3   OH2 9437   6.226   3.758   0.465
 3144TIP3    H1 9438   6.221   3.833   0.405
 3144TIP3    H2 9439   6.217   3.681   0.408
 3145TIP3   OH2 9440   2.655   4.410   1.996
 3145TIP3    H1 9441   2.598   4.333   1.995
 3145TIP3    H2 9442   2.596   4.484   1.987
 3146TIP3   OH2 9443   4.183   5.597   5.096
 3146TIP3    H1 9444   4.226   5.671   5.140
 3146TIP3    H2 9445   4.092   5.604   5.122
 3147TIP3   OH2 9446   2.929   5.428   3.115
 3147TIP3    H1 9447   2.973   5.511   3.134
 3147TIP3    H2 9448   2.836   5.451   3.109
 3148TIP3   OH2 9449   3.954   0.235   4.874
 3148TIP3    H1 9450   3.890   0.269   4.936
 3148TIP3    H2 9451   3.957   0.300   4.803
 3149TIP3   OH2 9452   2.794   3.872   0.569
 3149TIP3    H1 9453   2.742   3.946   0.600
 3149TIP3    H2 9454   2.746   3.840   0.492
 3150TIP3   OH2 9455   0.114   5.639   1.439
 3150TIP3    H1 9456   0.071   5.701   1.497
 3150TIP3    H2 9457   0.201   5.676   1.424
 3151TIP3   OH2 9458   0.498   6.033   2.662
 3151TIP3    H1 9459   0.514   5.940   2.674
 3151TIP3    H2 9460   0.486   6.044   2.568
 3152TIP3   OH2 9461   0.714   2.144   1.548
 3152TIP3    H1 9462   0.797   2.115   1.509
 3152TIP3    H2 9463   0.691   2.223   1.500
 3153TIP3   OH2 9464   4.965   3.807   0.231
 3153TIP3    H1 9465   5.002   3.798   0.319
 3153TIP3    H2 9466   4.947   3.901   0.221
 3154TIP3   OH2 9467   4.001   1.001   3.088
 3154TIP3    H1 9468   4.049   1.056   3.150
 3154TIP3    H2 9469   4.014   1.044   3.004
 3155TIP3   OH2 9470   0.092   1.270   1.940
 3155TIP3    H1 9471   0.026   1.207   1.968
 3155TIP3    H2 9472   0.101   1.330   2.014
 3156TIP3   OH2 9473   6.235   2.465   4.879
 3156TIP3    H1 9474   6.154   2.515   4.881
 3156TIP3    H2 9475   6.232   2.409   4.957
 3157TIP3   OH2 9476   4.848   4.374   1.425
 3157TIP3    H1 9477   4.867   4.412   1.511
 3157TIP3    H2 9478   4.753   4.371   1.421
 3158TIP3   OH2 9479   3.164   0.115   1.881
 3158TIP3    H1 9480   3.123   0.057   1.945
 3158TIP3    H2 9481   3.099   0.183   1.864
 3159TIP3   OH2 9482   5.176   5.338   1.368
 3159TIP3    H1 9483   5.110   5.360   1.435
 3159TIP3    H2 9484   5.252   5.308   1.418
 3160TIP3   OH2 9485   2.919   3.287   2.267
 3160TIP3    H1 9486   2.894   3.210   2.216
 3160TIP3    H2 9487   2.839   3.340   2.271
 3161TIP3   OH2 9488   3.359   0.188   1.695
 3161TIP3    H1 9489   3.294   0.163   1.761
 3161TIP3    H2 9490   3.346   0.126   1.623
 3162TIP3   OH2 9491   5.656   3.179   1.329
 3162TIP3    H1 9492   5.707   3.230   1.266
 3162TIP3    H2 9493   5.569   3.219   1.326
 3163TIP3   OH2 9494   0.288   5.701   0.744
 3163TIP3    H1 9495   0.311   5.624   0.796
 3163TIP3    H2 9496   0.264   5.665   0.658
 3164TIP3   OH2 9497   4.357   0.070   0.626
 3164TIP3    H1 9498   4.387  -0.019   0.612
 3164TIP3    H2 9499   4.264   0.062   0.643
 3165TIP3   OH2 9500   5.223   4.289   4.233
 3165TIP3    H1 9501   5.179   4.258   4.154
 3165TIP3    H2 9502   5.268   4.211   4.268
 3166TIP3   OH2 9503   6.116   2.956   3.352
 3166TIP3    H1 9504   6.092   2.914   3.270
 3166TIP3    H2 9505   6.039   2.946   3.408
 3167TIP3   OH2 9506   0.389  -0.001   0.125
 3167TIP3    H1 9507   0.465  -0.018   0.069
 3167TIP3    H2 9508   0.318  -0.050   0.084
 3168TIP3   OH2 9509   2.793   5.100   4.056
 3168TIP3    H1 9510   2.784   5.146   3.973
 3168TIP3    H2 9511   2.885   5.071   4.057
 3169TIP3   OH2 9512   2.166   5.191   3.917
 3169TIP3    H1 9513   2.219   5.241   3.856
 3169TIP3    H2 9514   2.085   5.242   3.926
 3170TIP3   OH2 9515   0.201   4.591   2.324
 3170TIP3    H1 9516   0.123   4.574   2.271
 3170TIP3    H2 9517   0.251   4.510   2.320
 3171TIP3   OH2 9518   5.353   2.785   3.550
 3171TIP3    H1 9519   5.403   2.796   3.632
 3171TIP3    H2 9520   5.411   2.735   3.493
 3172TIP3   OH2 9521   4.352   5.450   3.434
 3172TIP3    H1 9522   4.339   5.367   3.387
 3172TIP3    H2 9523   4.440   5.478   3.407
 3173TIP3   OH2 9524   4.124   0.132   1.540
 3173TIP3    H1 9525   4.148   0.088   1.622
 3173TIP3    H2 9526   4.044   0.179   1.561
 3174TIP3   OH2 9527   3.714   1.850   3.274
 3174TIP3    H1 9528   3.699   1.883   3.362
 3174TIP3    H2 9529   3.739   1.928   3.223
 3175TIP3   OH2 9530   1.296   5.728   2.995
 3175TIP3    H1 9531   1.338   5.811   3.018
 3175TIP3    H2 9532   1.240   5.708   3.070
 3176TIP3   OH2 9533   5.369   3.020   4.217
 3176TIP3    H1 9534   5.291   3.034   4.271
 3176TIP3    H2 9535   5.431   2.975   4.274
 3177TIP3   OH2 9536   3.969   1.372   4.429
 3177TIP3    H1 9537   3.938   1.361   4.519
 3177TIP3    H2 9538   4.040   1.436   4.436
 3178TIP3   OH2 9539   5.023   3.703   3.944
 3178TIP3    H1 9540   5.073   3.632   3.905
 3178TIP3    H2 9541   4.943   3.709   3.892
 3179TIP3   OH2 9542   4.535   5.876   1.417
 3179TIP3    H1 9543   4.461   5.935   1.404
 3179TIP3    H2 9544   4.612   5.928   1.395
 3180TIP3   OH2 9545   0.029   5.953   4.583
 3180TIP3    H1 9546  -0.019   6.015   4.638
 3180TIP3    H2 9547   0.101   6.005   4.547
 3181TIP3   OH2 9548   4.397   5.520   0.986
 3181TIP3    H1 9549   4.430   5.448   1.040
 3181TIP3    H2 9550   4.414   5.599   1.039
 3182TIP3   OH2 9551   3.413   3.215   4.847
 3182TIP3    H1 9552   3.389   3.163   4.924
 3182TIP3    H2 9553   3.436   3.301   4.882
 3183TIP3   OH2 9554   0.386   2.237   3.095
 3183TIP3    H1 9555   0.379   2.316   3.150
 3183TIP3    H2 9556   0.312   2.183   3.122
 3184TIP3   OH2 9557   5.112   1.539   0.100
 3184TIP3    H1 9558   5.110   1.541   0.004
 3184TIP3    H2 9559   5.171   1.467   0.121
 3185TIP3   OH2 9560   1.034   3.128   0.712
 3185TIP3    H1 9561   1.095   3.196   0.683
 3185TIP3    H2 9562   1.084   3.077   0.776
 3186TIP3   OH2 9563   4.664   1.931   0.088
 3186TIP3    H1 9564   4.635   1.859   0.144
 3186TIP3    H2 9565   4.583   1.975   0.062
 3187TIP3   OH2 9566   2.064   3.976   4.762
 3187TIP3    H1 9567   2.131   3.908   4.757
 3187TIP3    H2 9568   2.024   3.978   4.675
 3188TIP3   OH2 9569   4.665   4.172   2.993
 3188TIP3    H1 9570   4.621   4.099   2.949
 3188TIP3    H2 9571   4.744   4.187   2.941
 3189TIP3   OH2 9572   0.119   5.056   2.233
 3189TIP3    H1 9573   0.167   5.025   2.310
 3189TIP3    H2 9574   0.027   5.040   2.255
 3190TIP3   OH2 9575   1.972   1.838   2.401
 3190TIP3    H1 9576   1.943   1.762   2.451
 3190TIP3    H2 9577   1.893   1.889   2.386
 3191TIP3   OH2 9578   4.923   2.451   4.058
 3191TIP3    H1 9579   4.946   2.430   4.149
 3191TIP3    H2 9580   4.977   2.526   4.037
 3192TIP3   OH2 9581   2.812   0.021   1.809
 3192TIP3    H1 9582   2.737   0.030   1.750
 3192TIP3    H2 9583   2.781  -0.037   1.879
 3193TIP3   OH2 9584   6.315   5.029   4.483
 3193TIP3    H1 9585   6.268   4.946   4.470
 3193TIP3    H2 9586   6.321   5.066   4.395
 3194TIP3   OH2 9587   6.136   0.753   3.472
 3194TIP3    H1 9588   6.174   0.737   3.559
 3194TIP3    H2 9589   6.100   0.668   3.446
 3195TIP3   OH2 9590   2.102   1.837   2.163
 3195TIP3    H1 9591   2.159   1.914   2.162
 3195TIP3    H2 9592   2.057   1.842   2.248
 3196TIP3   OH2 9593   0.474   5.292   0.510
 3196TIP3    H1 9594   0.442   5.211   0.550
 3196TIP3    H2 9595   0.419   5.304   0.432
 3197TIP3   OH2 9596   2.140   3.417   5.095
 3197TIP3    H1 9597   2.049   3.403   5.071
 3197TIP3    H2 9598   2.153   3.364   5.174
 3198TIP3   OH2 9599   5.411   1.576   0.545
 3198TIP3    H1 9600   5.445   1.651   0.496
 3198TIP3    H2 9601   5.380   1.613   0.628
 3199TIP3   OH2 9602   5.915   4.241   0.059
 3199TIP3    H1 9603   5.823   4.262   0.074
 3199TIP3    H2 9604   5.963   4.295   0.122
 3200TIP3   OH2 9605   4.694   2.613   3.683
 3200TIP3    H1 9606   4.711   2.600   3.590
 3200TIP3    H2 9607   4.610   2.569   3.699
 3201TIP3   OH2 9608   4.282   4.927   3.320
 3201TIP3    H1 9609   4.318   4.853   3.270
 3201TIP3    H2 9610   4.260   4.890   3.405
 3202TIP3   OH2 9611   1.877   3.565   2.906
 3202TIP3    H1 9612   1.811   3.577   2.838
 3202TIP3    H2 9613   1.864   3.475   2.936
 3203TIP3   OH2 9614   4.562   5.807   2.992
 3203TIP3    H1 9615   4.569   5.719   3.028
 3203TIP3    H2 9616   4.649   5.845   3.006
 3204TIP3   OH2 9617   1.108   5.993   1.026
 3204TIP3    H1 9618   1.196   5.968   0.998
 3204TIP3    H2 9619   1.100   6.085   1.001
 3205TIP3   OH2 9620   0.162   2.029   2.229
 3205TIP3    H1 9621   0.141   1.953   2.175
 3205TIP3    H2 9622   0.079   2.055   2.268
 3206TIP3   OH2 9623   5.510   3.225   3.743
 3206TIP3    H1 9624   5.520   3.255   3.833
 3206TIP3    H2 9625   5.459   3.294   3.700
 3207TIP3   OH2 9626   5.016   3.797   0.480
 3207TIP3    H1 9627   5.104   3.833   0.491
 3207TIP3    H2 9628   4.971   3.821   0.561
 3208TIP3   OH2 9629   5.834   5.905   1.101
 3208TIP3    H1 9630   5.927   5.924   1.113
 3208TIP3    H2 9631   5.827   5.874   1.011
 3209TIP3   OH2 9632   5.921   3.768   0.130
 3209TIP3    H1 9633   5.898   3.700   0.066
 3209TIP3    H2 9634   5.898   3.731   0.215
 3210TIP3   OH2 9635   3.621   5.517   1.858
 3210TIP3    H1 9636   3.582   5.566   1.786
 3210TIP3    H2 9637   3.575   5.433   1.858
 3211TIP3   OH2 9638   0.049   2.729   4.074
 3211TIP3    H1 9639   0.103   2.730   3.995
 3211TIP3    H2 9640   0.090   2.664   4.131
 3212TIP3   OH2 9641   3.358   4.987   3.528
 3212TIP3    H1 9642   3.330   4.948   3.445
 3212TIP3    H2 9643   3.431   5.044   3.505
 3213TIP3   OH2 9644   5.074   5.679   2.742
 3213TIP3    H1 9645   5.110   5.762   2.771
 3213TIP3    H2 9646   5.091   5.676   2.648
 3214TIP3   OH2 9647   3.715   1.637   2.520
 3214TIP3    H1 9648   3.757   1.709   2.568
 3214TIP3    H2 9649   3.788   1.588   2.482
 3215TIP3   OH2 9650   0.759   1.778   4.075
 3215TIP3    H1 9651   0.843   1.736   4.092
 3215TIP3    H2 9652   0.727   1.737   3.995
 3216TIP3   OH2 9653   1.586   5.772   2.387
 3216TIP3    H1 9654   1.526   5.815   2.326
 3216TIP3    H2 9655   1.565   5.679   2.380
 3217TIP3   OH2 9656   2.995   1.865   1.166
 3217TIP3    H1 9657   3.033   1.778   1.177
 3217TIP3    H2 9658   2.996   1.880   1.071
 3218TIP3   OH2 9659   4.015   3.008   0.794
 3218TIP3    H1 9660   4.083   2.952   0.830
 3218TIP3    H2 9661   4.011   2.984   0.701
 3219TIP3   OH2 9662   3.920   0.676   1.186
 3219TIP3    H1 9663   3.929   0.684   1.281
 3219TIP3    H2 9664   4.005   0.644   1.156
 3220TIP3   OH2 9665   2.495   2.874   3.352
 3220TIP3    H1 9666   2.474   2.890   3.261
 3220TIP3    H2 9667   2.426   2.918   3.401
 3221TIP3   OH2 9668   6.094   2.789   4.753
 3221TIP3    H1 9669   6.152   2.852   4.711
 3221TIP3    H2 9670   6.090   2.716   4.691
 3222TIP3   OH2 9671   4.982   5.757   3.229
 3222TIP3    H1 9672   4.966   5.721   3.317
 3222TIP3    H2 9673   4.913   5.822   3.218
 3223TIP3   OH2 9674   0.807   3.139   0.102
 3223TIP3    H1 9675   0.810   3.049   0.133
 3223TIP3    H2 9676   0.887   3.149   0.049
 3224TIP3   OH2 9677   1.861   4.502   4.816
 3224TIP3    H1 9678   1.865   4.439   4.888
 3224TIP3    H2 9679   1.867   4.588   4.858
 3225TIP3   OH2 9680   3.792   2.916   2.558
 3225TIP3    H1 9681   3.819   3.007   2.554
 3225TIP3    H2 9682   3.705   2.915   2.520
 3226TIP3   OH2 9683   1.397   3.446   0.454
 3226TIP3    H1 9684   1.435   3.412   0.373
 3226TIP3    H2 9685   1.446   3.404   0.524
 3227TIP3   OH2 9686   0.413   1.855   3.022
 3227TIP3    H1 9687   0.418   1.771   2.975
 3227TIP3    H2 9688   0.479   1.848   3.091
 3228TIP3   OH2 9689   6.131   5.710   0.701
 3228TIP3    H1 9690   6.106   5.799   0.676
 3228TIP3    H2 9691   6.186   5.721   0.778
 3229TIP3   OH2 9692   1.072   2.674   2.159
 3229TIP3    H1 9693   1.134   2.745   2.178
 3229TIP3    H2 9694   1.014   2.711   2.091
 3230TIP3   OH2 9695   0.971   0.440   1.198
 3230TIP3    H1 9696   1.042   0.422   1.259
 3230TIP3    H2 9697   0.939   0.527   1.223
 3231TIP3   OH2 9698   2.479   0.590   2.223
 3231TIP3    H1 9699   2.555   0.574   2.279
 3231TIP3    H2 9700   2.480   0.519   2.159
 3232TIP3   OH2 9701   4.149   3.407   2.396
 3232TIP3    H1 9702   4.230   3.373   2.434
 3232TIP3    H2 9703   4.103   3.447   2.469
 3233TIP3   OH2 9704   1.645   3.070   4.831
 3233TIP3    H1 9705   1.573   3.133   4.823
 3233TIP3    H2 9706   1.682   3.087   4.918
 3234TIP3   OH2 9707   4.932   5.786   1.768
 3234TIP3    H1 9708   4.968   5.858   1.819
 3234TIP3    H2 9709   4.961   5.802   1.678
 3235TIP3   OH2 9710   4.793   0.698   4.205
 3235TIP3    H1 9711   4.809   0.761   4.276
 3235TIP3    H2 9712   4.810   0.613   4.246
 3236TIP3   OH2 9713   5.996   5.303   1.937
 3236TIP3    H1 9714   5.928   5.339   1.994
 3236TIP3    H2 9715   6.072   5.361   1.951
 3237TIP3   OH2 9716   3.431   3.457   4.988
 3237TIP3    H1 9717   3.434   3.524   4.920
 3237TIP3    H2 9718   3.471   3.499   5.064
 3238TIP3   OH2 9719   5.164   0.299   2.130
 3238TIP3    H1 9720   5.241   0.255   2.167
 3238TIP3    H2 9721   5.119   0.230   2.081
 3239TIP3   OH2 9722   4.364   3.335   5.155
 3239TIP3    H1 9723   4.407   3.286   5.085
 3239TIP3    H2 9724   4.345   3.269   5.222
 3240TIP3   OH2 9725   5.509   3.344   0.294
 3240TIP3    H1 9726   5.541   3.254   0.285
 3240TIP3    H2 9727   5.446   3.355   0.223
 3241TIP3   OH2 9728   3.753   4.200   4.235
 3241TIP3    H1 9729   3.844   4.222   4.219
 3241TIP3    H2 9730   3.754   4.144   4.312
 3242TIP3   OH2 9731   4.863  -0.030   5.077
 3242TIP3    H1 9732   4.913   0.034   5.129
 3242TIP3    H2 9733   4.909  -0.113   5.090
 3243TIP3   OH2 9734   5.707   1.499   4.397
 3243TIP3    H1 9735   5.635   1.499   4.335
 3243TIP3    H2 9736   5.745   1.586   4.390
 3244TIP3   OH2 9737   4.139   5.851   2.766
 3244TIP3    H1 9738   4.161   5.917   2.832
 3244TIP3    H2 9739   4.141   5.768   2.813
 3245TIP3   OH2 9740   2.698   2.181   4.304
 3245TIP3    H1 9741   2.623   2.211   4.252
 3245TIP3    H2 9742   2.750   2.129   4.243
 3246TIP3   OH2 9743   2.793   3.537   2.756
 3246TIP3    H1 9744   2.821   3.572   2.841
 3246TIP3    H2 9745   2.701   3.517   2.767
 3247TIP3   OH2 9746   2.912   2.931   1.322
 3247TIP3    H1 9747   2.890   2.845   1.358
 3247TIP3    H2 9748   3.006   2.926   1.305
 3248TIP3   OH2 9749   4.869   4.087   1.747
 3248TIP3    H1 9750   4.861   4.169   1.797
 3248TIP3    H2 9751   4.917   4.111   1.668
 3249TIP3   OH2 9752   3.076   2.263   4.143
 3249TIP3    H1 9753   3.118   2.186   4.182
 3249TIP3    H2 9754   3.018   2.296   4.212
 3250TIP3   OH2 9755   4.240   4.449   1.640
 3250TIP3    H1 9756   4.304   4.378   1.636
 3250TIP3    H2 9757   4.155   4.405   1.634
 3251TIP3   OH2 9758   4.562   3.794   3.774
 3251TIP3    H1 9759   4.608   3.841   3.844
 3251TIP3    H2 9760   4.515   3.724   3.819
 3252TIP3   OH2 9761   4.447   4.089   2.151
 3252TIP3    H1 9762   4.412   4.003   2.171
 3252TIP3    H2 9763   4.385   4.127   2.088
 3253TIP3   OH2 9764   1.990   0.655   1.347
 3253TIP3    H1 9765   1.993   0.733   1.291
 3253TIP3    H2 9766   1.936   0.593   1.298
 3254TIP3   OH2 9767   4.660   2.004   0.561
 3254TIP3    H1 9768   4.603   2.017   0.486
 3254TIP3    H2 9769   4.602   1.975   0.631
 3255TIP3   OH2 9770   4.284   1.198   2.010
 3255TIP3    H1 9771   4.297   1.247   1.929
 3255TIP3    H2 9772   4.189   1.201   2.025
 3256TIP3   OH2 9773   2.114   2.254   3.687
 3256TIP3    H1 9774   2.083   2.220   3.603
 3256TIP3    H2 9775   2.035   2.268   3.739
 3257TIP3   OH2 9776   0.893   0.439   3.761
 3257TIP3    H1 9777   0.889   0.479   3.674
 3257TIP3    H2 9778   0.940   0.502   3.815
 3258TIP3   OH2 9779   4.611   4.213   1.545
 3258TIP3    H1 9780   4.554   4.136   1.546
 3258TIP3    H2 9781   4.652   4.214   1.632
 3259TIP3   OH2 9782   4.733   0.271   1.483
 3259TIP3    H1 9783   4.680   0.266   1.563
 3259TIP3    H2 9784   4.720   0.186   1.440
 3260TIP3   OH2 9785   4.540   3.239   2.181
 3260TIP3    H1 9786   4.481   3.312   2.200
 3260TIP3    H2 9787   4.506   3.166   2.233
 3261TIP3   OH2 9788   5.238   1.492   3.464
 3261TIP3    H1 9789   5.170   1.512   3.529
 3261TIP3    H2 9790   5.318   1.529   3.501
 3262TIP3   OH2 9791   4.180   1.890   2.536
 3262TIP3    H1 9792   4.213   1.831   2.603
 3262TIP3    H2 9793   4.143   1.964   2.585
 3263TIP3   OH2 9794   4.088   0.044   0.639
 3263TIP3    H1 9795   4.104  -0.011   0.562
 3263TIP3    H2 9796   4.015   0.001   0.684
 3264TIP3   OH2 9797   0.303   3.647   4.746
 3264TIP3    H1 9798   0.275   3.556   4.745
 3264TIP3    H2 9799   0.397   3.643   4.728
 3265TIP3   OH2 9800   0.081   2.033   1.821
 3265TIP3    H1 9801   0.070   2.022   1.726
 3265TIP3    H2 9802   0.000   2.000   1.858
 3266TIP3   OH2 9803   6.082   5.062   0.209
 3266TIP3    H1 9804   6.053   5.141   0.164
 3266TIP3    H2 9805   6.039   5.065   0.294
 3267TIP3   OH2 9806   3.097   1.977   3.025
 3267TIP3    H1 9807   3.049   1.934   3.096
 3267TIP3    H2 9808   3.120   1.906   2.965
 3268TIP3   OH2 9809   2.158   0.965   2.895
 3268TIP3    H1 9810   2.100   1.027   2.851
 3268TIP3    H2 9811   2.128   0.879   2.867
 3269TIP3   OH2 9812   2.815   1.169   3.709
 3269TIP3    H1 9813   2.807   1.099   3.645
 3269TIP3    H2 9814   2.787   1.248   3.662
 3270TIP3   OH2 9815   5.284   4.371   1.221
 3270TIP3    H1 9816   5.207   4.378   1.278
 3270TIP3    H2 9817   5.267   4.434   1.151
 3271TIP3   OH2 9818   4.968   0.893   5.072
 3271TIP3    H1 9819   5.058   0.868   5.094
 3271TIP3    H2 9820   4.919   0.881   5.154
 3272TIP3   OH2 9821   2.413   3.527   0.364
 3272TIP3    H1 9822   2.389   3.593   0.429
 3272TIP3    H2 9823   2.507   3.541   0.349
 3273TIP3   OH2 9824   4.692   0.431   0.453
 3273TIP3    H1 9825   4.747   0.406   0.378
 3273TIP3    H2 9826   4.638   0.503   0.420
 3274TIP3   OH2 9827   4.296   2.813   0.079
 3274TIP3    H1 9828   4.215   2.861   0.066
 3274TIP3    H2 9829   4.363   2.867   0.037
 3275TIP3   OH2 9830   5.226   0.725   3.042
 3275TIP3    H1 9831   5.214   0.663   2.970
 3275TIP3    H2 9832   5.272   0.799   3.003
 3276TIP3   OH2 9833   1.522   0.124   4.789
 3276TIP3    H1 9834   1.537   0.176   4.868
 3276TIP3    H2 9835   1.536   0.033   4.818
 3277TIP3   OH2 9836   3.733   1.228   2.285
 3277TIP3    H1 9837   3.745   1.156   2.223
 3277TIP3    H2 9838   3.724   1.306   2.231
 3278TIP3   OH2 9839   1.511   4.107   1.285
 3278TIP3    H1 9840   1.499   4.021   1.326
 3278TIP3    H2 9841   1.466   4.098   1.200
 3279TIP3   OH2 9842   3.491   0.734   3.004
 3279TIP3    H1 9843   3.404   0.695   3.012
 3279TIP3    H2 9844   3.518   0.751   3.094
 3280TIP3   OH2 9845   4.405   0.695   4.907
 3280TIP3    H1 9846   4.494   0.708   4.874
 3280TIP3    H2 9847   4.408   0.609   4.949
 3281TIP3   OH2 9848   3.394   5.126   4.806
 3281TIP3    H1 9849   3.451   5.094   4.876
 3281TIP3    H2 9850   3.305   5.115   4.842
 3282TIP3   OH2 9851   0.928   1.408   3.038
 3282TIP3    H1 9852   0.851   1.461   3.058
 3282TIP3    H2 9853   0.903   1.319   3.064
 3283TIP3   OH2 9854   1.768   4.986   0.814
 3283TIP3    H1 9855   1.814   4.930   0.751
 3283TIP3    H2 9856   1.716   5.045   0.759
 3284TIP3   OH2 9857   2.289   5.448   2.135
 3284TIP3    H1 9858   2.204   5.463   2.094
 3284TIP3    H2 9859   2.287   5.355   2.159
 3285TIP3   OH2 9860   3.306   2.422   1.390
 3285TIP3    H1 9861   3.326   2.342   1.341
 3285TIP3    H2 9862   3.230   2.459   1.346
 3286TIP3   OH2 9863   4.412   1.931   0.689
 3286TIP3    H1 9864   4.351   1.875   0.737
 3286TIP3    H2 9865   4.371   1.942   0.603
 3287TIP3   OH2 9866   0.077   5.911   3.621
 3287TIP3    H1 9867   0.099   5.994   3.580
 3287TIP3    H2 9868  -0.007   5.927   3.664
 3288TIP3   OH2 9869   2.433   3.309   2.653
 3288TIP3    H1 9870   2.495   3.353   2.711
 3288TIP3    H2 9871   2.364   3.374   2.639
 3289TIP3   OH2 9872   2.528   2.605   2.476
 3289TIP3    H1 9873   2.446   2.617   2.524
 3289TIP3    H2 9874   2.535   2.683   2.420
 3290TIP3   OH2 9875   4.115   3.745   4.582
 3290TIP3    H1 9876   4.127   3.781   4.670
 3290TIP3    H2 9877   4.086   3.819   4.529
 3291TIP3   OH2 9878   5.728   4.614   2.514
 3291TIP3    H1 9879   5.647   4.563   2.523
 3291TIP3    H2 9880   5.706   4.699   2.552
 3292TIP3   OH2 9881   2.920   0.567   4.069
 3292TIP3    H1 9882   2.859   0.503   4.105
 3292TIP3    H2 9883   2.876   0.651   4.081
 3293TIP3   OH2 9884   3.311   2.862   1.711
 3293TIP3    H1 9885   3.352   2.813   1.782
 3293TIP3    H2 9886   3.360   2.945   1.708
 3294TIP3   OH2 9887   3.399   5.888   1.294
 3294TIP3    H1 9888   3.459   5.913   1.364
 3294TIP3    H2 9889   3.439   5.926   1.215
 3295TIP3   OH2 9890   1.018   2.256   1.900
 3295TIP3    H1 9891   1.063   2.288   1.978
 3295TIP3    H2 9892   0.967   2.181   1.931
 3296TIP3   OH2 9893   0.362   3.680   0.938
 3296TIP3    H1 9894   0.305   3.670   1.014
 3296TIP3    H2 9895   0.303   3.676   0.863
 3297TIP3   OH2 9896   0.678   1.776   2.842
 3297TIP3    H1 9897   0.587   1.753   2.824
 3297TIP3    H2 9898   0.675   1.821   2.927
 3298TIP3   OH2 9899   1.503   1.186   4.278
 3298TIP3    H1 9900   1.509   1.266   4.225
 3298TIP3    H2 9901   1.564   1.125   4.235
 3299TIP3   OH2 9902   4.310   0.500   0.253
 3299TIP3    H1 9903   4.254   0.506   0.330
 3299TIP3    H2 9904   4.254   0.528   0.180
 3300TIP3   OH2 9905   6.113   5.739   2.091
 3300TIP3    H1 9906   6.076   5.740   2.003
 3300TIP3    H2 9907   6.043   5.772   2.147
 3301TIP3   OH2 9908   2.641   0.297   2.763
 3301TIP3    H1 9909   2.678   0.212   2.741
 3301TIP3    H2 9910   2.629   0.341   2.679
 3302TIP3   OH2 9911   0.199   5.543   4.933
 3302TIP3    H1 9912   0.159   5.508   5.013
 3302TIP3    H2 9913   0.273   5.485   4.916
 3303TIP3   OH2 9914   1.655   4.853   4.801
 3303TIP3    H1 9915   1.580   4.845   4.743
 3303TIP3    H2 9916   1.629   4.920   4.864
 3304TIP3   OH2 9917   5.182   3.941   2.521
 3304TIP3    H1 9918   5.193   3.918   2.429
 3304TIP3    H2 9919   5.117   3.878   2.553
 3305TIP3   OH2 9920   5.434   5.163   4.249
 3305TIP3    H1 9921   5.458   5.148   4.157
 3305TIP3    H2 9922   5.460   5.083   4.294
 3306TIP3   OH2 9923   1.952   1.980   1.582
 3306TIP3    H1 9924   1.863   1.983   1.546
 3306TIP3    H2 9925   2.004   1.939   1.514
 3307TIP3   OH2 9926   4.484   3.557   1.873
 3307TIP3    H1 9927   4.560   3.610   1.896
 3307TIP3    H2 9928   4.516   3.500   1.803
 3308TIP3   OH2 9929   1.654   4.858   2.800
 3308TIP3    H1 9930   1.586   4.924   2.813
 3308TIP3    H2 9931   1.661   4.848   2.705
 3309TIP3   OH2 9932   5.407   0.179   3.970
 3309TIP3    H1 9933   5.475   0.211   4.029
 3309TIP3    H2 9934   5.325   0.195   4.016
 3310TIP3   OH2 9935   2.797   1.707   1.514
 3310TIP3    H1 9936   2.727   1.713   1.579
 3310TIP3    H2 9937   2.752   1.686   1.432
 3311TIP3   OH2 9938   3.723   1.019   2.127
 3311TIP3    H1 9939   3.806   1.007   2.081
 3311TIP3    H2 9940   3.688   0.930   2.135
 3312TIP3   OH2 9941   4.127   4.603   0.637
 3312TIP3    H1 9942   4.153   4.594   0.729
 3312TIP3    H2 9943   4.141   4.695   0.617
 3313TIP3   OH2 9944   5.692   5.928   1.915
 3313TIP3    H1 9945   5.721   5.967   1.997
 3313TIP3    H2 9946   5.747   5.851   1.904
 3314TIP3   OH2 9947   3.178   4.780   2.267
 3314TIP3    H1 9948   3.190   4.838   2.191
 3314TIP3    H2 9949   3.195   4.835   2.343
 3315TIP3   OH2 9950   1.414   5.137   1.502
 3315TIP3    H1 9951   1.342   5.095   1.549
 3315TIP3    H2 9952   1.480   5.154   1.570
 3316TIP3   OH2 9953   3.659   3.206   1.757
 3316TIP3    H1 9954   3.746   3.194   1.718
 3316TIP3    H2 9955   3.638   3.121   1.795
 3317TIP3   OH2 9956   0.161   4.333   0.517
 3317TIP3    H1 9957   0.255   4.327   0.532
 3317TIP3    H2 9958   0.144   4.274   0.444
 3318TIP3   OH2 9959   4.842   3.599   4.521
 3318TIP3    H1 9960   4.813   3.557   4.440
 3318TIP3    H2 9961   4.937   3.605   4.512
 3319TIP3   OH2 9962   2.892   2.329   5.013
 3319TIP3    H1 9963   2.981   2.305   5.039
 3319TIP3    H2 9964   2.846   2.246   5.004
 3320TIP3   OH2 9965   0.831   5.966   4.229
 3320TIP3    H1 9966   0.749   5.917   4.214
 3320TIP3    H2 9967   0.856   5.942   4.318
 3321TIP3   OH2 9968   3.752   2.280   5.102
 3321TIP3    H1 9969   3.735   2.201   5.050
 3321TIP3    H2 9970   3.696   2.347   5.063
 3322TIP3   OH2 9971   2.194   2.292   1.982
 3322TIP3    H1 9972   2.141   2.372   1.981
 3322TIP3    H2 9973   2.154   2.236   1.916
 3323TIP3   OH2 9974   6.193   1.043   4.994
 3323TIP3    H1 9975   6.101   1.021   5.011
 3323TIP3    H2 9976   6.224   1.078   5.078
 3324TIP3   OH2 9977   2.951   0.273   5.174
 3324TIP3    H1 9978   2.933   0.245   5.084
 3324TIP3    H2 9979   3.020   0.213   5.204
 3325TIP3   OH2 9980   3.177   0.890   3.946
 3325TIP3    H1 9981   3.158   0.979   3.975
 3325TIP3    H2 9982   3.105   0.868   3.888
 3326TIP3   OH2 9983   4.584   3.747   2.405
 3326TIP3    H1 9984   4.551   3.682   2.342
 3326TIP3    H2 9985   4.607   3.695   2.482
 3327TIP3   OH2 9986   3.338   0.343   2.340
 3327TIP3    H1 9987   3.417   0.350   2.392
 3327TIP3    H2 9988   3.364   0.370   2.252
 3328TIP3   OH2 9989   2.218   0.861   1.248
 3328TIP3    H1 9990   2.313   0.854   1.236
 3328TIP3    H2 9991   2.182   0.849   1.160
 3329TIP3   OH2 9992   1.859   5.285   1.080
 3329TIP3    H1 9993   1.779   5.231   1.081
 3329TIP3    H2 9994   1.930   5.222   1.073
 3330TIP3   OH2 9995   0.640   3.251   1.714
 3330TIP3    H1 9996   0.682   3.223   1.632
 3330TIP3    H2 9997   0.616   3.342   1.699
 3331TIP3   OH2 9998   6.144   4.449   0.679
 3331TIP3    H1 9999   6.146   4.476   0.587
 3331TIP3    H210000   6.181   4.523   0.727
 3332TIP3   OH210001   4.556   3.692   3.079
 3332TIP3    H110002   4.603   3.762   3.125
 3332TIP3    H210003   4.488   3.664   3.141
 3333TIP3   OH210004   0.833   0.456   4.849
 3333TIP3    H110005   0.813   0.514   4.923
 3333TIP3    H210006   0.901   0.502   4.801
 3334TIP3   OH210007   1.456   0.890   2.957
 3334TIP3    H110008   1.524   0.918   3.018
 3334TIP3    H210009   1.416   0.971   2.926
 3335TIP3   OH210010   2.204   0.733   4.667
 3335TIP3    H110011   2.255   0.753   4.746
 3335TIP3    H210012   2.244   0.654   4.632
 3336TIP3   OH210013   3.982   4.591   3.723
 3336TIP3    H110014   3.900   4.611   3.767
 3336TIP3    H210015   3.966   4.507   3.679
 3337TIP3   OH210016   5.674   5.944   3.110
 3337TIP3    H110017   5.604   5.883   3.134
 3337TIP3    H210018   5.646   6.028   3.145
 3338TIP3   OH210019   1.927   3.110   1.196
 3338TIP3    H110020   1.937   3.018   1.173
 3338TIP3    H210021   1.953   3.158   1.118
 3339TIP3   OH210022   2.688   2.651   1.734
 3339TIP3    H110023   2.656   2.563   1.714
 3339TIP3    H210024   2.776   2.638   1.768
 3340TIP3   OH210025   3.686   4.305   1.269
 3340TIP3    H110026   3.742   4.371   1.227
 3340TIP3    H210027   3.655   4.346   1.349
 3341TIP3   OH210028   2.276   5.415   3.418
 3341TIP3    H110029   2.287   5.400   3.324
 3341TIP3    H210030   2.365   5.415   3.453
 3342TIP3   OH210031   4.311   5.784   1.670
 3342TIP3    H110032   4.400   5.759   1.646
 3342TIP3    H210033   4.303   5.876   1.643
 3343TIP3   OH210034   2.550   4.237   0.163
 3343TIP3    H110035   2.638   4.212   0.134
 3343TIP3    H210036   2.522   4.165   0.219
 3344TIP3   OH210037   1.548   0.074   2.189
 3344TIP3    H110038   1.579   0.106   2.273
 3344TIP3    H210039   1.502   0.148   2.150
 3345TIP3   OH210040   4.593   3.071   0.520
 3345TIP3    H110041   4.625   3.045   0.606
 3345TIP3    H210042   4.502   3.042   0.518
 3346TIP3   OH210043   1.572   3.682   4.733
 3346TIP3    H110044   1.568   3.763   4.784
 3346TIP3    H210045   1.488   3.680   4.686
 3347TIP3   OH210046   2.486   2.336   4.829
 3347TIP3    H110047   2.548   2.327   4.901
 3347TIP3    H210048   2.539   2.361   4.754
 3348TIP3   OH210049   0.522   1.432   0.608
 3348TIP3    H110050   0.518   1.515   0.561
 3348TIP3    H210051   0.614   1.425   0.636
 3349TIP3   OH210052   5.849   4.090   2.911
 3349TIP3    H110053   5.777   4.070   2.850
 3349TIP3    H210054   5.912   4.139   2.858
 3350TIP3   OH210055   6.126   0.829   2.700
 3350TIP3    H110056   6.047   0.883   2.711
 3350TIP3    H210057   6.167   0.828   2.786
 3351TIP3   OH210058   4.319   2.787   3.703
 3351TIP3    H110059   4.296   2.707   3.655
 3351TIP3    H210060   4.323   2.760   3.794
 3352TIP3   OH210061   5.084   2.451   4.309
 3352TIP3    H110062   5.170   2.408   4.313
 3352TIP3    H210063   5.104   2.544   4.311
 3353TIP3   OH210064   4.981   4.198   4.827
 3353TIP3    H110065   5.035   4.123   4.852
 3353TIP3    H210066   5.044   4.267   4.804
 3354TIP3   OH210067   3.634   4.096   2.244
 3354TIP3    H110068   3.666   4.128   2.328
 3354TIP3    H210069   3.552   4.143   2.231
 3355TIP3   OH210070   2.205   1.898   3.597
 3355TIP3    H110071   2.263   1.822   3.601
 3355TIP3    H210072   2.176   1.902   3.506
 3356TIP3   OH210073   4.270   5.089   1.391
 3356TIP3    H110074   4.178   5.088   1.416
 3356TIP3    H210075   4.296   5.181   1.401
 3357TIP3   OH210076   0.605   3.591   1.714
 3357TIP3    H110077   0.570   3.679   1.700
 3357TIP3    H210078   0.595   3.576   1.808
 3358TIP3   OH210079   3.755   5.215   2.158
 3358TIP3    H110080   3.830   5.222   2.098
 3358TIP3    H210081   3.762   5.292   2.214
 3359TIP3   OH210082   3.800   2.403   1.487
 3359TIP3    H110083   3.805   2.458   1.566
 3359TIP3    H210084   3.728   2.441   1.436
 3360TIP3   OH210085   0.264   5.462   3.178
 3360TIP3    H110086   0.189   5.498   3.225
 3360TIP3    H210087   0.286   5.528   3.113
 3361TIP3   OH210088   0.621   0.289   4.209
 3361TIP3    H110089   0.615   0.361   4.146
 3361TIP3    H210090   0.575   0.322   4.287
 3362TIP3   OH210091   2.783   5.969   4.674
 3362TIP3    H110092   2.764   6.034   4.742
 3362TIP3    H210093   2.707   5.911   4.674
 3363TIP3   OH210094   3.440   0.707   5.246
 3363TIP3    H110095   3.496   0.662   5.309
 3363TIP3    H210096   3.460   0.666   5.162
 3364TIP3   OH210097   1.663   5.711   3.672
 3364TIP3    H110098   1.644   5.794   3.629
 3364TIP3    H210099   1.615   5.714   3.754
 3365TIP3   OH210100   0.260   3.502   3.975
 3365TIP3    H110101   0.319   3.446   3.925
 3365TIP3    H210102   0.281   3.591   3.947
 3366TIP3   OH210103   3.553   3.843   2.731
 3366TIP3    H110104   3.488   3.913   2.722
 3366TIP3    H210105   3.530   3.799   2.812
 3367TIP3   OH210106   6.229   3.158   4.866
 3367TIP3    H110107   6.248   3.098   4.793
 3367TIP3    H210108   6.306   3.215   4.870
 3368TIP3   OH210109   1.122   5.397   1.018
 3368TIP3    H110110   1.099   5.485   1.047
 3368TIP3    H210111   1.215   5.389   1.039
 3369TIP3   OH210112   4.036   3.699   4.204
 3369TIP3    H110113   4.040   3.720   4.110
 3369TIP3    H210114   4.124   3.718   4.236
 3370TIP3   OH210115   3.533   2.010   0.444
 3370TIP3    H110116   3.459   2.045   0.493
 3370TIP3    H210117   3.610   2.029   0.498
 3371TIP3   OH210118   4.461   2.749   4.364
 3371TIP3    H110119   4.398   2.693   4.410
 3371TIP3    H210120   4.407   2.817   4.323
 3372TIP3   OH210121   5.042   4.833   2.396
 3372TIP3    H110122   5.099   4.818   2.472
 3372TIP3    H210123   5.051   4.926   2.378
 3373TIP3   OH210124   4.359   2.722   5.001
 3373TIP3    H110125   4.422   2.696   4.934
 3373TIP3    H210126   4.397   2.688   5.083
 3374TIP3   OH210127   1.050   5.323   4.013
 3374TIP3    H110128   1.080   5.398   3.962
 3374TIP3    H210129   0.960   5.345   4.038
 3375TIP3   OH210130  -0.030   3.236   4.281
 3375TIP3    H110131   0.049   3.278   4.247
 3375TIP3    H210132  -0.008   3.143   4.287
 3376TIP3   OH210133   1.647   4.232   2.685
 3376TIP3    H110134   1.707   4.298   2.720
 3376TIP3    H210135   1.702   4.155   2.670
 3377TIP3   OH210136   0.710   0.692   1.484
 3377TIP3    H110137   0.761   0.747   1.542
 3377TIP3    H210138   0.760   0.691   1.402
 3378TIP3   OH210139   4.561   1.167   0.470
 3378TIP3    H110140   4.625   1.102   0.497
 3378TIP3    H210141   4.518   1.128   0.394
 3379TIP3   OH210142   2.489   3.935   0.123
 3379TIP3    H110143   2.483   3.961   0.031
 3379TIP3    H210144   2.404   3.896   0.143
 3380TIP3   OH210145   4.369   0.947   2.556
 3380TIP3    H110146   4.308   1.020   2.570
 3380TIP3    H210147   4.455   0.984   2.575
 3381TIP3   OH210148   4.494   1.171   4.526
 3381TIP3    H110149   4.589   1.179   4.541
 3381TIP3    H210150   4.487   1.129   4.440
 3382TIP3   OH210151   3.001   5.053   1.139
 3382TIP3    H110152   3.048   5.099   1.209
 3382TIP3    H210153   2.951   4.986   1.185
 3383TIP3   OH210154   5.029   2.960   0.459
 3383TIP3    H110155   5.045   2.882   0.405
 3383TIP3    H210156   4.988   3.022   0.399
 3384TIP3   OH210157   1.247   5.728   2.433
 3384TIP3    H110158   1.265   5.642   2.472
 3384TIP3    H210159   1.166   5.716   2.384
 3385TIP3   OH210160   2.988   3.694   3.535
 3385TIP3    H110161   3.032   3.734   3.610
 3385TIP3    H210162   2.930   3.763   3.502
 3386TIP3   OH210163   2.099   5.253   1.271
 3386TIP3    H110164   2.164   5.323   1.269
 3386TIP3    H210165   2.066   5.253   1.361
 3387TIP3   OH210166   3.429   1.963   1.358
 3387TIP3    H110167   3.344   1.972   1.401
 3387TIP3    H210168   3.455   1.873   1.374
 3388TIP3   OH210169   1.006   5.078   0.495
 3388TIP3    H110170   1.013   5.135   0.418
 3388TIP3    H210171   1.057   5.122   0.563
 3389TIP3   OH210172   3.093   2.493   1.145
 3389TIP3    H110173   3.128   2.534   1.066
 3389TIP3    H210174   3.045   2.563   1.190
 3390TIP3   OH210175   0.622   6.003   0.366
 3390TIP3    H110176   0.535   5.967   0.346
 3390TIP3    H210177   0.683   5.933   0.342
 3391TIP3   OH210178   3.546   5.503   3.450
 3391TIP3    H110179   3.619   5.451   3.484
 3391TIP3    H210180   3.557   5.589   3.489
 3392TIP3   OH210181   3.755   0.332   0.294
 3392TIP3    H110182   3.839   0.325   0.248
 3392TIP3    H210183   3.741   0.427   0.302
 3393TIP3   OH210184   4.389   5.228   3.763
 3393TIP3    H110185   4.470   5.241   3.813
 3393TIP3    H210186   4.383   5.134   3.750
 3394TIP3   OH210187   4.851   4.080   1.404
 3394TIP3    H110188   4.919   4.140   1.434
 3394TIP3    H210189   4.775   4.137   1.388
 3395TIP3   OH210190   1.708   2.792   4.858
 3395TIP3    H110191   1.774   2.784   4.928
 3395TIP3    H210192   1.693   2.886   4.851
 3396TIP3   OH210193   3.493   5.640   2.490
 3396TIP3    H110194   3.576   5.661   2.448
 3396TIP3    H210195   3.508   5.658   2.583
 3397TIP3   OH210196   3.001   1.844   0.887
 3397TIP3    H110197   2.918   1.822   0.844
 3397TIP3    H210198   3.054   1.765   0.879
 3398TIP3   OH210199   5.290   4.748   3.233
 3398TIP3    H110200   5.262   4.838   3.249
 3398TIP3    H210201   5.386   4.752   3.234
 3399TIP3   OH210202   5.135   5.353   0.324
 3399TIP3    H110203   5.072   5.361   0.253
 3399TIP3    H210204   5.083   5.320   0.398
 3400TIP3   OH210205   4.802   2.256   4.677
 3400TIP3    H110206   4.803   2.308   4.757
 3400TIP3    H210207   4.788   2.319   4.607
 3401TIP3   OH210208   6.009   4.951   3.661
 3401TIP3    H110209   5.951   4.927   3.589
 3401TIP3    H210210   5.966   4.915   3.739
 3402TIP3   OH210211   2.714   3.555   1.948
 3402TIP3    H110212   2.750   3.522   2.030
 3402TIP3    H210213   2.726   3.484   1.885
 3403TIP3   OH210214   1.909   1.185   3.921
 3403TIP3    H110215   1.855   1.135   3.859
 3403TIP3    H210216   1.999   1.160   3.899
 3404TIP3   OH210217   1.457   2.285   2.416
 3404TIP3    H110218   1.493   2.227   2.483
 3404TIP3    H210219   1.419   2.225   2.351
 3405TIP3   OH210220   0.856   1.551   4.627
 3405TIP3    H110221   0.926   1.490   4.653
 3405TIP3    H210222   0.872   1.565   4.533
 3406TIP3   OH210223   1.268   0.289   4.262
 3406TIP3    H110224   1.229   0.374   4.242
 3406TIP3    H210225   1.317   0.267   4.182
 3407TIP3   OH210226   3.027   5.215   2.121
 3407TIP3    H110227   3.104   5.270   2.107
 3407TIP3    H210228   2.953   5.270   2.096
 3408TIP3   OH210229   6.014   2.055   0.378
 3408TIP3    H110230   5.960   2.009   0.313
 3408TIP3    H210231   5.965   2.045   0.460
 3409TIP3   OH210232   4.157   0.983   4.093
 3409TIP3    H110233   4.155   1.073   4.125
 3409TIP3    H210234   4.215   0.986   4.017
 3410TIP3   OH210235   3.505   1.296   4.968
 3410TIP3    H110236   3.423   1.334   4.936
 3410TIP3    H210237   3.499   1.303   5.063
 3411TIP3   OH210238   4.961   3.790   2.137
 3411TIP3    H110239   4.996   3.806   2.050
 3411TIP3    H210240   5.036   3.759   2.188
 3412TIP3   OH210241   0.800   0.980   3.808
 3412TIP3    H110242   0.755   0.928   3.875
 3412TIP3    H210243   0.802   0.922   3.731
 3413TIP3   OH210244   1.823   5.628   3.481
 3413TIP3    H110245   1.907   5.619   3.527
 3413TIP3    H210246   1.758   5.632   3.551
 3414TIP3   OH210247   2.310   0.495   4.575
 3414TIP3    H110248   2.385   0.453   4.616
 3414TIP3    H210249   2.238   0.434   4.589
 3415TIP3   OH210250   5.065   5.903   2.231
 3415TIP3    H110251   5.004   5.971   2.261
 3415TIP3    H210252   5.047   5.895   2.138
 3416TIP3   OH210253   4.986   3.740   1.597
 3416TIP3    H110254   4.912   3.781   1.553
 3416TIP3    H210255   5.058   3.745   1.534
 3417TIP3   OH210256   1.304   3.868   4.831
 3417TIP3    H110257   1.313   3.938   4.767
 3417TIP3    H210258   1.379   3.879   4.890
 3418TIP3   OH210259   0.121   2.918   0.276
 3418TIP3    H110260   0.037   2.900   0.234
 3418TIP3    H210261   0.167   2.834   0.276
 3419TIP3   OH210262   2.576   1.830   0.471
 3419TIP3    H110263   2.518   1.877   0.412
 3419TIP3    H210264   2.531   1.831   0.556
 3420TIP3   OH210265   5.621   3.105   4.091
 3420TIP3    H110266   5.552   3.068   4.147
 3420TIP3    H210267   5.689   3.038   4.091
 3421TIP3   OH210268   6.006   5.718   1.836
 3421TIP3    H110269   5.999   5.708   1.741
 3421TIP3    H210270   5.930   5.673   1.871
 3422TIP3   OH210271   4.762   0.663   2.881
 3422TIP3    H110272   4.819   0.740   2.881
 3422TIP3    H210273   4.816   0.594   2.918
 3423TIP3   OH210274   0.603   2.669   3.478
 3423TIP3    H110275   0.552   2.663   3.397
 3423TIP3    H210276   0.694   2.663   3.450
 3424TIP3   OH210277   4.945   0.666   2.192
 3424TIP3    H110278   4.942   0.752   2.236
 3424TIP3    H210279   4.871   0.618   2.229
 3425TIP3   OH210280   2.756   0.780   4.054
 3425TIP3    H110281   2.674   0.777   4.103
 3425TIP3    H210282   2.783   0.872   4.057
 3426TIP3   OH210283   3.216   1.384   2.292
 3426TIP3    H110284   3.306   1.415   2.285
 3426TIP3    H210285   3.199   1.339   2.209
 3427TIP3   OH210286   1.912   0.494   2.640
 3427TIP3    H110287   1.930   0.402   2.657
 3427TIP3    H210288   1.978   0.541   2.691
 3428TIP3   OH210289   5.814   2.892   3.410
 3428TIP3    H110290   5.761   2.813   3.410
 3428TIP3    H210291   5.769   2.952   3.469
 3429TIP3   OH210292   2.307   2.936   4.780
 3429TIP3    H110293   2.399   2.957   4.762
 3429TIP3    H210294   2.280   3.000   4.846
 3430TIP3   OH210295   2.540   0.015   4.076
 3430TIP3    H110296   2.444   0.009   4.082
 3430TIP3    H210297   2.563  -0.040   4.001
 3431TIP3   OH210298   5.579   4.653   3.189
 3431TIP3    H110299   5.519   4.606   3.131
 3431TIP3    H210300   5.661   4.604   3.184
 3432TIP3   OH210301   3.607   0.982   1.079
 3432TIP3    H110302   3.539   0.934   1.127
 3432TIP3    H210303   3.681   0.921   1.076
 3433TIP3   OH210304   6.135   2.219   1.844
 3433TIP3    H110305   6.114   2.157   1.774
 3433TIP3    H210306   6.194   2.282   1.803
 3434TIP3   OH210307   4.609   2.633   2.867
 3434TIP3    H110308   4.564   2.709   2.831
 3434TIP3    H210309   4.585   2.561   2.809
 3435TIP3   OH210310   3.046   1.224   4.573
 3435TIP3    H110311   3.023   1.287   4.505
 3435TIP3    H210312   3.136   1.247   4.597
 3436TIP3   OH210313   5.566   3.068   0.321
 3436TIP3    H110314   5.472   3.048   0.315
 3436TIP3    H210315   5.593   3.032   0.406
 3437TIP3   OH210316   0.213   4.671   3.699
 3437TIP3    H110317   0.261   4.663   3.617
 3437TIP3    H210318   0.256   4.610   3.758
 3438TIP3   OH210319   1.431   5.511   0.773
 3438TIP3    H110320   1.526   5.513   0.785
 3438TIP3    H210321   1.412   5.421   0.747
 3439TIP3   OH210322   4.270   2.943   5.141
 3439TIP3    H110323   4.306   2.858   5.118
 3439TIP3    H210324   4.200   2.958   5.078
 3440TIP3   OH210325   0.856   3.899   0.629
 3440TIP3    H110326   0.939   3.872   0.669
 3440TIP3    H210327   0.805   3.935   0.702
 3441TIP3   OH210328   4.520   1.104   5.080
 3441TIP3    H110329   4.443   1.074   5.128
 3441TIP3    H210330   4.486   1.133   4.995
 3442TIP3   OH210331   3.029   4.359   3.802
 3442TIP3    H110332   3.000   4.268   3.797
 3442TIP3    H210333   3.025   4.380   3.896
 3443TIP3   OH210334   5.943   4.468   2.471
 3443TIP3    H110335   5.993   4.520   2.533
 3443TIP3    H210336   5.853   4.500   2.478
 3444TIP3   OH210337   5.699   3.064   0.587
 3444TIP3    H110338   5.759   3.062   0.661
 3444TIP3    H210339   5.618   3.101   0.621
 3445TIP3   OH210340   0.897   1.563   4.354
 3445TIP3    H110341   0.888   1.510   4.274
 3445TIP3    H210342   0.917   1.651   4.322
 3446TIP3   OH210343   0.509   5.526   3.894
 3446TIP3    H110344   0.491   5.515   3.988
 3446TIP3    H210345   0.570   5.455   3.873
 3447TIP3   OH210346   5.862   2.895   1.598
 3447TIP3    H110347   5.790   2.853   1.645
 3447TIP3    H210348   5.837   2.888   1.506
 3448TIP3   OH210349   5.459   1.224   4.575
 3448TIP3    H110350   5.549   1.255   4.567
 3448TIP3    H210351   5.407   1.286   4.524
 3449TIP3   OH210352   4.863   2.166   3.047
 3449TIP3    H110353   4.927   2.100   3.075
 3449TIP3    H210354   4.835   2.208   3.128
 3450TIP3   OH210355   0.575   2.046   0.751
 3450TIP3    H110356   0.542   1.995   0.677
 3450TIP3    H210357   0.612   2.125   0.712
 3451TIP3   OH210358   2.266   4.737   0.277
 3451TIP3    H110359   2.196   4.685   0.239
 3451TIP3    H210360   2.222   4.799   0.334
 3452TIP3   OH210361   5.457   0.497   1.295
 3452TIP3    H110362   5.548   0.501   1.323
 3452TIP3    H210363   5.418   0.429   1.350
 3453TIP3   OH210364   3.753   5.334   3.483
 3453TIP3    H110365   3.786   5.253   3.443
 3453TIP3    H210366   3.831   5.387   3.498
 3454TIP3   OH210367   0.183   3.831   1.107
 3454TIP3    H110368   0.093   3.860   1.095
 3454TIP3    H210369   0.196   3.833   1.202
 3455TIP3   OH210370   5.486   4.539   4.536
 3455TIP3    H110371   5.391   4.523   4.536
 3455TIP3    H210372   5.523   4.459   4.572
 3456TIP3   OH210373   5.825   5.349   2.360
 3456TIP3    H110374   5.840   5.261   2.325
 3456TIP3    H210375   5.912   5.386   2.372
 3457TIP3   OH210376   3.372   3.307   3.126
 3457TIP3    H110377   3.291   3.354   3.148
 3457TIP3    H210378   3.417   3.296   3.209
 3458TIP3   OH210379   0.692   4.045   4.197
 3458TIP3    H110380   0.677   3.970   4.255
 3458TIP3    H210381   0.787   4.057   4.198
 3459TIP3   OH210382   3.716   1.974   3.531
 3459TIP3    H110383   3.678   2.062   3.537
 3459TIP3    H210384   3.809   1.987   3.551
 3460TIP3   OH210385   1.822   2.959   2.328
 3460TIP3    H110386   1.737   2.922   2.352
 3460TIP3    H210387   1.870   2.885   2.290
 3461TIP3   OH210388   3.000   2.689   3.622
 3461TIP3    H110389   2.993   2.664   3.714
 3461TIP3    H210390   2.917   2.733   3.603
 3462TIP3   OH210391   1.703   1.288   4.512
 3462TIP3    H110392   1.795   1.279   4.487
 3462TIP3    H210393   1.656   1.236   4.446
 3463TIP3   OH210394   2.521   3.491   2.842
 3463TIP3    H110395   2.453   3.536   2.791
 3463TIP3    H210396   2.542   3.552   2.913
 3464TIP3   OH210397   0.361   1.651   4.190
 3464TIP3    H110398   0.319   1.697   4.262
 3464TIP3    H210399   0.447   1.626   4.224
 3465TIP3   OH210400   0.523   5.840   0.633
 3465TIP3    H110401   0.441   5.804   0.667
 3465TIP3    H210402   0.521   5.932   0.659
 3466TIP3   OH210403   0.320   2.199   4.569
 3466TIP3    H110404   0.227   2.218   4.581
 3466TIP3    H210405   0.364   2.250   4.638
 3467TIP3   OH210406   0.851   4.205   0.999
 3467TIP3    H110407   0.802   4.276   1.040
 3467TIP3    H210408   0.913   4.177   1.066
 3468TIP3   OH210409   0.621   0.851   3.571
 3468TIP3    H110410   0.557   0.859   3.501
 3468TIP3    H210411   0.706   0.862   3.528
 3469TIP3   OH210412   3.794   0.658   5.065
 3469TIP3    H110413   3.770   0.568   5.047
 3469TIP3    H210414   3.794   0.700   4.979
 3470TIP3   OH210415   3.996   2.069   3.396
 3470TIP3    H110416   4.068   2.104   3.448
 3470TIP3    H210417   4.024   1.980   3.373
 3471TIP3   OH210418   0.335   1.026   0.593
 3471TIP3    H110419   0.414   1.055   0.639
 3471TIP3    H210420   0.347   1.057   0.504
 3472TIP3   OH210421   1.831   2.125   0.849
 3472TIP3    H110422   1.834   2.075   0.931
 3472TIP3    H210423   1.906   2.093   0.798
 3473TIP3   OH210424   4.005   5.481   4.460
 3473TIP3    H110425   4.013   5.447   4.550
 3473TIP3    H210426   3.921   5.528   4.460
 3474TIP3   OH210427   0.648   4.673   0.972
 3474TIP3    H110428   0.689   4.651   1.055
 3474TIP3    H210429   0.715   4.659   0.906
 3475TIP3   OH210430   4.603   1.319   1.391
 3475TIP3    H110431   4.640   1.407   1.399
 3475TIP3    H210432   4.615   1.297   1.299
 3476TIP3   OH210433   2.447   1.865   3.047
 3476TIP3    H110434   2.438   1.876   2.952
 3476TIP3    H210435   2.416   1.948   3.084
 3477TIP3   OH210436   4.438   4.225   4.154
 3477TIP3    H110437   4.487   4.155   4.196
 3477TIP3    H210438   4.503   4.292   4.135
 3478TIP3   OH210439   2.873   3.260   0.946
 3478TIP3    H110440   2.809   3.329   0.928
 3478TIP3    H210441   2.826   3.200   1.005
 3479TIP3   OH210442   1.872   4.354   1.684
 3479TIP3    H110443   1.949   4.312   1.722
 3479TIP3    H210444   1.827   4.392   1.760
 3480TIP3   OH210445   1.679   4.636   1.909
 3480TIP3    H110446   1.751   4.663   1.852
 3480TIP3    H210447   1.712   4.557   1.953
 3481TIP3   OH210448   1.896   0.716   0.400
 3481TIP3    H110449   1.990   0.696   0.401
 3481TIP3    H210450   1.893   0.812   0.390
 3482TIP3   OH210451   2.414   5.265   4.027
 3482TIP3    H110452   2.463   5.341   4.059
 3482TIP3    H210453   2.327   5.276   4.063
 3483TIP3   OH210454   4.447   0.142   1.139
 3483TIP3    H110455   4.528   0.131   1.190
 3483TIP3    H210456   4.468   0.107   1.052
 3484TIP3   OH210457   4.368   3.393   2.854
 3484TIP3    H110458   4.301   3.344   2.902
 3484TIP3    H210459   4.334   3.483   2.852
 3485TIP3   OH210460   2.563   5.859   3.020
 3485TIP3    H110461   2.507   5.865   3.097
 3485TIP3    H210462   2.650   5.842   3.055
 3486TIP3   OH210463   3.084   3.284   4.471
 3486TIP3    H110464   3.103   3.271   4.564
 3486TIP3    H210465   3.167   3.268   4.427
 3487TIP3   OH210466   5.591   4.869   0.341
 3487TIP3    H110467   5.517   4.866   0.402
 3487TIP3    H210468   5.571   4.803   0.276
 3488TIP3   OH210469   1.757   1.302   2.411
 3488TIP3    H110470   1.801   1.378   2.372
 3488TIP3    H210471   1.818   1.229   2.396
 3489TIP3   OH210472   2.225   4.765   2.188
 3489TIP3    H110473   2.253   4.675   2.203
 3489TIP3    H210474   2.178   4.762   2.104
 3490TIP3   OH210475   2.888   4.921   4.661
 3490TIP3    H110476   2.830   4.871   4.719
 3490TIP3    H210477   2.888   5.009   4.697
 3491TIP3   OH210478   1.608   1.967   4.627
 3491TIP3    H110479   1.684   1.933   4.580
 3491TIP3    H210480   1.538   1.903   4.610
 3492TIP3   OH210481   1.760   3.244   0.199
 3492TIP3    H110482   1.771   3.240   0.104
 3492TIP3    H210483   1.825   3.309   0.227
 3493TIP3   OH210484   1.836   2.080   4.472
 3493TIP3    H110485   1.770   2.149   4.463
 3493TIP3    H210486   1.890   2.108   4.546
 3494TIP3   OH210487   0.912   3.307   2.887
 3494TIP3    H110488   0.875   3.235   2.837
 3494TIP3    H210489   0.999   3.276   2.914
 3495TIP3   OH210490   4.597   0.826   0.767
 3495TIP3    H110491   4.516   0.814   0.717
 3495TIP3    H210492   4.568   0.857   0.853
 3496TIP3   OH210493   6.014   3.664   1.896
 3496TIP3    H110494   5.932   3.693   1.856
 3496TIP3    H210495   6.080   3.728   1.867
 3497TIP3   OH210496   2.960   1.676   4.564
 3497TIP3    H110497   2.895   1.620   4.607
 3497TIP3    H210498   2.991   1.734   4.633
 3498TIP3   OH210499   1.254   3.163   5.035
 3498TIP3    H110500   1.291   3.210   4.960
 3498TIP3    H210501   1.189   3.223   5.071
 3499TIP3   OH210502   3.128   0.573   3.887
 3499TIP3    H110503   3.079   0.547   3.809
 3499TIP3    H210504   3.061   0.597   3.951
 3500TIP3   OH210505   4.637   3.633   2.647
 3500TIP3    H110506   4.609   3.697   2.712
 3500TIP3    H210507   4.725   3.608   2.673
 3501TIP3   OH210508   3.788   5.015   2.569
 3501TIP3    H110509   3.806   5.034   2.477
 3501TIP3    H210510   3.721   5.079   2.594
 3502TIP3   OH210511   5.712   4.308   3.065
 3502TIP3    H110512   5.729   4.234   3.006
 3502TIP3    H210513   5.732   4.386   3.013
 3503TIP3   OH210514   2.286   3.980   1.837
 3503TIP3    H110515   2.228   4.012   1.905
 3503TIP3    H210516   2.273   4.040   1.763
 3504TIP3   OH210517   1.822   0.627   0.654
 3504TIP3    H110518   1.836   0.663   0.566
 3504TIP3    H210519   1.730   0.601   0.655
 3505TIP3   OH210520   3.850   2.304   3.372
 3505TIP3    H110521   3.909   2.229   3.383
 3505TIP3    H210522   3.823   2.327   3.461
 3506TIP3   OH210523   3.555   5.834   5.158
 3506TIP3    H110524   3.646   5.857   5.174
 3506TIP3    H210525   3.518   5.911   5.116
 3507TIP3   OH210526   3.647   4.140   3.973
 3507TIP3    H110527   3.671   4.187   4.053
 3507TIP3    H210528   3.552   4.147   3.967
 3508TIP3   OH210529   2.527   5.215   1.752
 3508TIP3    H110530   2.585   5.225   1.826
 3508TIP3    H210531   2.585   5.198   1.677
 3509TIP3   OH210532   3.157   2.045   1.670
 3509TIP3    H110533   3.159   2.092   1.587
 3509TIP3    H210534   3.177   1.955   1.647
 3510TIP3   OH210535   1.077   3.229   1.624
 3510TIP3    H110536   1.086   3.251   1.716
 3510TIP3    H210537   1.164   3.199   1.598
 3511TIP3   OH210538   3.168   2.197   2.676
 3511TIP3    H110539   3.206   2.146   2.604
 3511TIP3    H210540   3.089   2.149   2.700
 3512TIP3   OH210541   5.032   5.167   0.494
 3512TIP3    H110542   5.051   5.076   0.469
 3512TIP3    H210543   4.941   5.164   0.526
 3513TIP3   OH210544   1.320   2.266   3.350
 3513TIP3    H110545   1.272   2.348   3.339
 3513TIP3    H210546   1.412   2.294   3.358
 3514TIP3   OH210547   1.716   0.772   1.085
 3514TIP3    H110548   1.757   0.849   1.046
 3514TIP3    H210549   1.636   0.759   1.034
 3515TIP3   OH210550   4.480   0.488   1.741
 3515TIP3    H110551   4.538   0.563   1.752
 3515TIP3    H210552   4.539   0.415   1.723
 3516TIP3   OH210553   3.370   2.830   3.207
 3516TIP3    H110554   3.447   2.835   3.265
 3516TIP3    H210555   3.405   2.849   3.120
 3517TIP3   OH210556   5.965   0.488   3.674
 3517TIP3    H110557   5.881   0.452   3.644
 3517TIP3    H210558   5.942   0.553   3.740
 3518TIP3   OH210559   5.119   3.030   4.354
 3518TIP3    H110560   5.090   3.088   4.425
 3518TIP3    H210561   5.045   3.027   4.294
 3519TIP3   OH210562   3.859   1.579   4.943
 3519TIP3    H110563   3.880   1.487   4.958
 3519TIP3    H210564   3.808   1.605   5.019
 3520TIP3   OH210565   2.912   5.988   2.028
 3520TIP3    H110566   2.929   5.933   2.105
 3520TIP3    H210567   2.988   5.976   1.973
 3521TIP3   OH210568   3.360   4.861   3.016
 3521TIP3    H110569   3.433   4.923   3.012
 3521TIP3    H210570   3.401   4.775   3.010
 3522TIP3   OH210571   1.151   0.403   3.971
 3522TIP3    H110572   1.085   0.466   4.001
 3522TIP3    H210573   1.127   0.321   4.014
 3523TIP3   OH210574   2.578   2.164   1.216
 3523TIP3    H110575   2.636   2.188   1.143
 3523TIP3    H210576   2.528   2.244   1.234
 3524TIP3   OH210577   5.721   5.238   2.818
 3524TIP3    H110578   5.749   5.329   2.812
 3524TIP3    H210579   5.783   5.198   2.879
 3525TIP3   OH210580   4.516   5.360   4.884
 3525TIP3    H110581   4.587   5.406   4.839
 3525TIP3    H210582   4.438   5.379   4.833
 3526TIP3   OH210583   2.186   1.357   4.196
 3526TIP3    H110584   2.192   1.341   4.102
 3526TIP3    H210585   2.207   1.273   4.236
 3527TIP3   OH210586   5.491   2.238   1.160
 3527TIP3    H110587   5.521   2.173   1.096
 3527TIP3    H210588   5.445   2.303   1.107
 3528TIP3   OH210589   5.034   2.838   2.107
 3528TIP3    H110590   5.055   2.788   2.186
 3528TIP3    H210591   5.071   2.785   2.035
 3529TIP3   OH210592   2.945   0.194   2.197
 3529TIP3    H110593   3.006   0.175   2.268
 3529TIP3    H210594   2.966   0.129   2.130
 3530TIP3   OH210595   0.356   3.018   2.383
 3530TIP3    H110596   0.345   2.929   2.351
 3530TIP3    H210597   0.276   3.035   2.433
 3531TIP3   OH210598   3.681   2.229   4.013
 3531TIP3    H110599   3.718   2.317   4.019
 3531TIP3    H210600   3.747   2.179   3.965
 3532TIP3   OH210601   0.952   1.765   4.879
 3532TIP3    H110602   0.939   1.671   4.870
 3532TIP3    H210603   0.864   1.802   4.879
 3533TIP3   OH210604   4.665   5.008   1.807
 3533TIP3    H110605   4.587   4.999   1.861
 3533TIP3    H210606   4.727   5.056   1.862
 3534TIP3   OH210607   5.501   5.757   3.726
 3534TIP3    H110608   5.493   5.662   3.734
 3534TIP3    H210609   5.468   5.777   3.639
 3535TIP3   OH210610   2.210   3.242   2.131
 3535TIP3    H110611   2.149   3.315   2.140
 3535TIP3    H210612   2.283   3.264   2.190
 3536TIP3   OH210613   2.816   4.484   0.946
 3536TIP3    H110614   2.806   4.576   0.922
 3536TIP3    H210615   2.871   4.485   1.024
 3537TIP3   OH210616   5.661   5.486   1.782
 3537TIP3    H110617   5.656   5.580   1.765
 3537TIP3    H210618   5.651   5.478   1.877
 3538TIP3   OH210619   0.464   1.782   4.998
 3538TIP3    H110620   0.545   1.730   5.005
 3538TIP3    H210621   0.415   1.760   5.077
 3539TIP3   OH210622   0.840   5.634   4.433
 3539TIP3    H110623   0.863   5.727   4.436
 3539TIP3    H210624   0.745   5.632   4.447
 3540TIP3   OH210625   4.539   4.182   0.157
 3540TIP3    H110626   4.557   4.270   0.122
 3540TIP3    H210627   4.573   4.185   0.246
 3541TIP3   OH210628   2.695   0.419   1.183
 3541TIP3    H110629   2.688   0.390   1.091
 3541TIP3    H210630   2.774   0.375   1.215
 3542TIP3   OH210631   0.491   0.920   0.308
 3542TIP3    H110632   0.412   0.877   0.275
 3542TIP3    H210633   0.503   0.882   0.395
 3543TIP3   OH210634   1.629   0.548   2.795
 3543TIP3    H110635   1.715   0.562   2.755
 3543TIP3    H210636   1.640   0.469   2.848
 3544TIP3   OH210637   4.256   2.730   0.629
 3544TIP3    H110638   4.201   2.652   0.637
 3544TIP3    H210639   4.249   2.773   0.715
 3545TIP3   OH210640   2.639   4.328   0.807
 3545TIP3    H110641   2.619   4.386   0.733
 3545TIP3    H210642   2.680   4.386   0.871
 3546TIP3   OH210643   1.698   5.855   4.081
 3546TIP3    H110644   1.624   5.909   4.051
 3546TIP3    H210645   1.754   5.847   4.003
 3547TIP3   OH210646   5.043   2.639   3.480
 3547TIP3    H110647   5.068   2.730   3.500
 3547TIP3    H210648   5.045   2.595   3.565
 3548TIP3   OH210649   5.692   2.328   3.130
 3548TIP3    H110650   5.615   2.378   3.156
 3548TIP3    H210651   5.765   2.375   3.171
 3549TIP3   OH210652   1.400   0.333   1.500
 3549TIP3    H110653   1.425   0.323   1.592
 3549TIP3    H210654   1.304   0.338   1.501
 3550TIP3   OH210655   4.786   1.235   4.430
 3550TIP3    H110656   4.816   1.311   4.480
 3550TIP3    H210657   4.787   1.163   4.494
 3551TIP3   OH210658   4.510   3.101   1.221
 3551TIP3    H110659   4.452   3.114   1.297
 3551TIP3    H210660   4.457   3.126   1.146
 3552TIP3   OH210661   3.807   5.796   3.374
 3552TIP3    H110662   3.884   5.852   3.377
 3552TIP3    H210663   3.770   5.811   3.287
 3553TIP3   OH210664   6.001   2.778   1.073
 3553TIP3    H110665   5.946   2.780   1.151
 3553TIP3    H210666   6.080   2.732   1.100
 3554TIP3   OH210667   4.345   5.025   1.113
 3554TIP3    H110668   4.326   5.061   1.200
 3554TIP3    H210669   4.350   4.931   1.126
 3555TIP3   OH210670   1.801   5.856   0.752
 3555TIP3    H110671   1.757   5.868   0.836
 3555TIP3    H210672   1.883   5.812   0.774
 3556TIP3   OH210673   1.815   0.982   0.968
 3556TIP3    H110674   1.786   0.997   0.877
 3556TIP3    H210675   1.824   1.069   1.005
 3557TIP3   OH210676   2.065   4.593   1.585
 3557TIP3    H110677   2.056   4.542   1.505
 3557TIP3    H210678   2.012   4.546   1.650
 3558TIP3   OH210679   3.397   4.493   4.780
 3558TIP3    H110680   3.492   4.487   4.783
 3558TIP3    H210681   3.368   4.402   4.774
 3559TIP3   OH210682   6.325   5.779   3.061
 3559TIP3    H110683   6.336   5.757   3.154
 3559TIP3    H210684   6.233   5.761   3.042
 3560TIP3   OH210685   2.462   0.645   1.612
 3560TIP3    H110686   2.510   0.651   1.530
 3560TIP3    H210687   2.374   0.616   1.587
 3561TIP3   OH210688   4.199   4.189   3.121
 3561TIP3    H110689   4.218   4.192   3.028
 3561TIP3    H210690   4.283   4.210   3.164
 3562TIP3   OH210691   0.790   2.614   0.339
 3562TIP3    H110692   0.719   2.617   0.403
 3562TIP3    H210693   0.867   2.591   0.391
 3563TIP3   OH210694   6.265   1.064   0.904
 3563TIP3    H110695   6.242   1.116   0.980
 3563TIP3    H210696   6.360   1.069   0.899
 3564TIP3   OH210697   1.796   5.828   3.305
 3564TIP3    H110698   1.887   5.854   3.319
 3564TIP3    H210699   1.786   5.748   3.357
 3565TIP3   OH210700   1.290   5.718   0.855
 3565TIP3    H110701   1.348   5.649   0.823
 3565TIP3    H210702   1.305   5.792   0.795
 3566TIP3   OH210703   2.217   2.106   2.204
 3566TIP3    H110704   2.140   2.140   2.250
 3566TIP3    H210705   2.214   2.148   2.118
 3567TIP3   OH210706   4.453   1.544   3.712
 3567TIP3    H110707   4.496   1.462   3.737
 3567TIP3    H210708   4.368   1.516   3.679
 3568TIP3   OH210709   3.457   3.748   0.276
 3568TIP3    H110710   3.502   3.679   0.325
 3568TIP3    H210711   3.428   3.706   0.196
 3569TIP3   OH210712   5.860   4.065   3.403
 3569TIP3    H110713   5.851   3.980   3.360
 3569TIP3    H210714   5.904   4.047   3.486
 3570TIP3   OH210715   4.325   0.330   2.228
 3570TIP3    H110716   4.388   0.305   2.296
 3570TIP3    H210717   4.371   0.395   2.175
 3571TIP3   OH210718   4.798   4.143   3.352
 3571TIP3    H110719   4.837   4.108   3.432
 3571TIP3    H210720   4.864   4.126   3.284
 3572TIP3   OH210721   3.408   4.862   2.471
 3572TIP3    H110722   3.325   4.850   2.516
 3572TIP3    H210723   3.474   4.830   2.533
 3573TIP3   OH210724   4.662   5.130   3.866
 3573TIP3    H110725   4.633   5.071   3.796
 3573TIP3    H210726   4.699   5.072   3.932
 3574TIP3   OH210727   1.495   0.912   4.842
 3574TIP3    H110728   1.574   0.861   4.822
 3574TIP3    H210729   1.498   0.923   4.937
 3575TIP3   OH210730   1.091   2.044   1.693
 3575TIP3    H110731   1.077   1.952   1.718
 3575TIP3    H210732   1.053   2.095   1.764
 3576TIP3   OH210733   5.099   5.942   2.840
 3576TIP3    H110734   5.139   5.909   2.920
 3576TIP3    H210735   5.160   6.009   2.809
 3577TIP3   OH210736   4.604   3.977   1.720
 3577TIP3    H110737   4.565   3.932   1.795
 3577TIP3    H210738   4.688   4.009   1.752
 3578TIP3   OH210739   0.759   1.838   0.117
 3578TIP3    H110740   0.714   1.757   0.093
 3578TIP3    H210741   0.691   1.893   0.154
 3579TIP3   OH210742   3.926   1.063   0.931
 3579TIP3    H110743   3.955   1.089   0.844
 3579TIP3    H210744   3.898   0.972   0.921
 3580TIP3   OH210745   3.235   4.124   0.192
 3580TIP3    H110746   3.327   4.119   0.217
 3580TIP3    H210747   3.226   4.062   0.120
 3581TIP3   OH210748   4.404   1.157   4.017
 3581TIP3    H110749   4.463   1.231   4.008
 3581TIP3    H210750   4.401   1.118   3.929
 3582TIP3   OH210751   3.306   4.132   3.591
 3582TIP3    H110752   3.275   4.192   3.523
 3582TIP3    H210753   3.322   4.188   3.667
 3583TIP3   OH210754   4.540   3.761   0.599
 3583TIP3    H110755   4.608   3.715   0.649
 3583TIP3    H210756   4.469   3.774   0.662
 3584TIP3   OH210757   1.942   3.070   1.487
 3584TIP3    H110758   1.853   3.047   1.515
 3584TIP3    H210759   1.933   3.091   1.394
 3585TIP3   OH210760   2.956   0.099   3.983
 3585TIP3    H110761   2.937   0.060   4.068
 3585TIP3    H210762   2.881   0.156   3.966
 3586TIP3   OH210763   3.374   1.860   0.055
 3586TIP3    H110764   3.332   1.909   0.126
 3586TIP3    H210765   3.325   1.777   0.053
 3587TIP3   OH210766   4.523   1.649   4.870
 3587TIP3    H110767   4.573   1.594   4.809
 3587TIP3    H210768   4.439   1.604   4.880
 3588TIP3   OH210769   0.501   0.101   4.656
 3588TIP3    H110770   0.597   0.107   4.662
 3588TIP3    H210771   0.472   0.192   4.655
 3589TIP3   OH210772   2.588   2.901   1.666
 3589TIP3    H110773   2.627   2.815   1.681
 3589TIP3    H210774   2.621   2.928   1.580
 3590TIP3   OH210775   2.253   2.289   4.509
 3590TIP3    H110776   2.204   2.271   4.589
 3590TIP3    H210777   2.240   2.211   4.455
 3591TIP3   OH210778   5.546   1.693   2.026
 3591TIP3    H110779   5.545   1.620   2.088
 3591TIP3    H210780   5.627   1.681   1.976
 3592TIP3   OH210781   2.066   3.693   2.758
 3592TIP3    H110782   1.998   3.666   2.820
 3592TIP3    H210783   2.099   3.776   2.793
 3593TIP3   OH210784   0.794   3.148   1.480
 3593TIP3    H110785   0.840   3.101   1.549
 3593TIP3    H210786   0.747   3.079   1.432
 3594TIP3   OH210787   3.710   1.772   4.641
 3594TIP3    H110788   3.727   1.742   4.730
 3594TIP3    H210789   3.649   1.708   4.605
 3595TIP3   OH210790   3.181   1.388   1.368
 3595TIP3    H110791   3.145   1.424   1.449
 3595TIP3    H210792   3.127   1.426   1.299
 3596TIP3   OH210793   4.008   4.112   3.296
 3596TIP3    H110794   3.926   4.162   3.293
 3596TIP3    H210795   4.058   4.144   3.221
 3597TIP3   OH210796   5.453   4.483   3.023
 3597TIP3    H110797   5.510   4.467   2.947
 3597TIP3    H210798   5.369   4.508   2.984
 3598TIP3   OH210799   0.341   0.731   2.648
 3598TIP3    H110800   0.325   0.748   2.555
 3598TIP3    H210801   0.435   0.749   2.660
 3599TIP3   OH210802   3.230   1.545   4.552
 3599TIP3    H110803   3.148   1.590   4.532
 3599TIP3    H210804   3.297   1.600   4.512
 3600TIP3   OH210805   5.028   5.603   0.607
 3600TIP3    H110806   4.972   5.554   0.547
 3600TIP3    H210807   5.012   5.695   0.586
 3601TIP3   OH210808   0.934   3.535   0.587
 3601TIP3    H110809   0.842   3.541   0.613
 3601TIP3    H210810   0.972   3.619   0.612
 3602TIP3   OH210811   1.882   5.697   1.821
 3602TIP3    H110812   1.903   5.724   1.911
 3602TIP3    H210813   1.954   5.732   1.768
 3603TIP3   OH210814   5.082   3.227   2.513
 3603TIP3    H110815   5.096   3.315   2.479
 3603TIP3    H210816   5.039   3.180   2.441
 3604TIP3   OH210817   2.918   4.719   2.821
 3604TIP3    H110818   2.909   4.657   2.749
 3604TIP3    H210819   3.003   4.699   2.860
 3605TIP3   OH210820   3.744   0.590   0.649
 3605TIP3    H110821   3.788   0.639   0.718
 3605TIP3    H210822   3.677   0.651   0.616
 3606TIP3   OH210823   2.070   5.754   2.774
 3606TIP3    H110824   2.140   5.757   2.839
 3606TIP3    H210825   2.112   5.779   2.692
 3607TIP3   OH210826   5.635   1.459   5.076
 3607TIP3    H110827   5.585   1.384   5.043
 3607TIP3    H210828   5.570   1.514   5.120
 3608TIP3   OH210829   0.055   2.550   3.300
 3608TIP3    H110830   0.029   2.492   3.372
 3608TIP3    H210831  -0.023   2.557   3.245
 3609TIP3   OH210832   5.958   4.254   2.287
 3609TIP3    H110833   5.933   4.313   2.358
 3609TIP3    H210834   5.895   4.273   2.217
 3610TIP3   OH210835   4.041   5.224   2.991
 3610TIP3    H110836   3.999   5.258   2.912
 3610TIP3    H210837   4.029   5.292   3.056
 3611TIP3   OH210838   3.553   1.906   1.807
 3611TIP3    H110839   3.618   1.865   1.864
 3611TIP3    H210840   3.487   1.839   1.794
 3612TIP3   OH210841   5.441   1.665   5.145
 3612TIP3    H110842   5.366   1.629   5.099
 3612TIP3    H210843   5.403   1.706   5.223
 3613TIP3   OH210844   3.630   3.242   1.274
 3613TIP3    H110845   3.538   3.247   1.249
 3613TIP3    H210846   3.650   3.148   1.275
 3614TIP3   OH210847   4.341   2.035   1.650
 3614TIP3    H110848   4.253   2.035   1.687
 3614TIP3    H210849   4.363   2.128   1.641
 3615TIP3   OH210850   2.390   2.902   4.297
 3615TIP3    H110851   2.411   2.902   4.390
 3615TIP3    H210852   2.453   2.842   4.258
 3616TIP3   OH210853   3.563   4.747   4.945
 3616TIP3    H110854   3.653   4.728   4.917
 3616TIP3    H210855   3.514   4.756   4.863
 3617TIP3   OH210856   4.285   5.141   4.507
 3617TIP3    H110857   4.283   5.225   4.554
 3617TIP3    H210858   4.200   5.137   4.462
 3618TIP3   OH210859   0.065   5.421   4.694
 3618TIP3    H110860   0.143   5.406   4.641
 3618TIP3    H210861   0.087   5.496   4.749
 3619TIP3   OH210862   3.576   4.155   0.499
 3619TIP3    H110863   3.576   4.066   0.532
 3619TIP3    H210864   3.573   4.210   0.577
 3620TIP3   OH210865   5.035   3.410   4.946
 3620TIP3    H110866   4.954   3.414   4.895
 3620TIP3    H210867   5.079   3.493   4.929
 3621TIP3   OH210868   4.186   4.720   1.685
 3621TIP3    H110869   4.214   4.629   1.677
 3621TIP3    H210870   4.123   4.719   1.757
 3622TIP3   OH210871   2.720   2.900   2.989
 3622TIP3    H110872   2.725   2.958   3.065
 3622TIP3    H210873   2.700   2.959   2.916
 3623TIP3   OH210874   5.957   0.245   4.252
 3623TIP3    H110875   6.045   0.277   4.230
 3623TIP3    H210876   5.953   0.251   4.347
 3624TIP3   OH210877   5.406   4.271   4.894
 3624TIP3    H110878   5.489   4.226   4.881
 3624TIP3    H210879   5.348   4.205   4.930
 3625TIP3   OH210880   2.431   3.902   3.478
 3625TIP3    H110881   2.343   3.925   3.509
 3625TIP3    H210882   2.464   3.841   3.545
 3626TIP3   OH210883   4.072   3.630   0.544
 3626TIP3    H110884   4.043   3.670   0.462
 3626TIP3    H210885   4.093   3.704   0.601
 3627TIP3   OH210886   3.878   1.631   4.131
 3627TIP3    H110887   3.942   1.657   4.065
 3627TIP3    H210888   3.800   1.684   4.110
 3628TIP3   OH210889   2.221   0.533   4.984
 3628TIP3    H110890   2.238   0.517   5.077
 3628TIP3    H210891   2.290   0.485   4.938
 3629TIP3   OH210892   1.084   0.852   2.350
 3629TIP3    H110893   1.052   0.772   2.391
 3629TIP3    H210894   1.177   0.856   2.373
 3630TIP3   OH210895   1.834   2.515   3.926
 3630TIP3    H110896   1.752   2.471   3.950
 3630TIP3    H210897   1.852   2.574   3.999
 3631TIP3   OH210898   0.291   1.235   1.462
 3631TIP3    H110899   0.386   1.234   1.475
 3631TIP3    H210900   0.254   1.228   1.550
 3632TIP3   OH210901   3.816   3.506   3.466
 3632TIP3    H110902   3.779   3.420   3.448
 3632TIP3    H210903   3.904   3.502   3.428
 3633TIP3   OH210904   1.345   2.419   1.495
 3633TIP3    H110905   1.356   2.401   1.589
 3633TIP3    H210906   1.297   2.501   1.492
 3634TIP3   OH210907   5.277   1.950   2.668
 3634TIP3    H110908   5.277   1.869   2.719
 3634TIP3    H210909   5.347   1.938   2.604
 3635TIP3   OH210910   5.244   0.522   1.548
 3635TIP3    H110911   5.164   0.475   1.527
 3635TIP3    H210912   5.270   0.563   1.466
 3636TIP3   OH210913   6.188   0.698   1.045
 3636TIP3    H110914   6.234   0.632   0.993
 3636TIP3    H210915   6.258   0.751   1.084
 3637TIP3   OH210916   2.738   0.341   0.901
 3637TIP3    H110917   2.821   0.308   0.866
 3637TIP3    H210918   2.723   0.422   0.852
 3638TIP3   OH210919   3.764   1.100   0.253
 3638TIP3    H110920   3.844   1.151   0.241
 3638TIP3    H210921   3.779   1.049   0.332
 3639TIP3   OH210922   5.867   2.322   0.279
 3639TIP3    H110923   5.793   2.302   0.337
 3639TIP3    H210924   5.930   2.368   0.335
 3640TIP3   OH210925   0.369   1.947   1.839
 3640TIP3    H110926   0.276   1.963   1.825
 3640TIP3    H210927   0.388   1.990   1.923
 3641TIP3   OH210928   2.276   3.400   1.181
 3641TIP3    H110929   2.337   3.421   1.252
 3641TIP3    H210930   2.322   3.426   1.101
 3642TIP3   OH210931   2.091   1.596   3.947
 3642TIP3    H110932   2.125   1.660   4.009
 3642TIP3    H210933   2.023   1.549   3.997
 3643TIP3   OH210934   1.701   5.162   2.477
 3643TIP3    H110935   1.623   5.212   2.450
 3643TIP3    H210936   1.666   5.089   2.527
 3644TIP3   OH210937   0.751   3.402   1.064
 3644TIP3    H110938   0.776   3.438   0.978
 3644TIP3    H210939   0.789   3.463   1.127
 3645TIP3   OH210940   0.765   1.828   4.591
 3645TIP3    H110941   0.793   1.737   4.586
 3645TIP3    H210942   0.777   1.851   4.684
 3646TIP3   OH210943   5.034   2.323   3.824
 3646TIP3    H110944   5.025   2.413   3.794
 3646TIP3    H210945   4.984   2.320   3.906
 3647TIP3   OH210946   1.100   3.511   0.849
 3647TIP3    H110947   1.121   3.460   0.771
 3647TIP3    H210948   1.179   3.507   0.903
 3648TIP3   OH210949   4.593   2.392   2.281
 3648TIP3    H110950   4.564   2.432   2.363
 3648TIP3    H210951   4.685   2.371   2.296
 3649TIP3   OH210952   1.973   5.451   0.846
 3649TIP3    H110953   1.955   5.399   0.924
 3649TIP3    H210954   2.017   5.390   0.787
 3650TIP3   OH210955   6.241   4.682   1.273
 3650TIP3    H110956   6.285   4.614   1.222
 3650TIP3    H210957   6.223   4.642   1.358
 3651TIP3   OH210958   4.208   0.837   1.903
 3651TIP3    H110959   4.212   0.762   1.964
 3651TIP3    H210960   4.137   0.891   1.937
 3652TIP3   OH210961   1.061   0.779   2.876
 3652TIP3    H110962   1.088   0.742   2.792
 3652TIP3    H210963   1.025   0.705   2.924
 3653TIP3   OH210964   2.365   1.470   3.807
 3653TIP3    H110965   2.331   1.541   3.862
 3653TIP3    H210966   2.460   1.476   3.816
 3654TIP3   OH210967   4.463   5.033   4.328
 3654TIP3    H110968   4.399   5.070   4.389
 3654TIP3    H210969   4.544   5.026   4.378
 3655TIP3   OH210970   3.775   3.599   5.067
 3655TIP3    H110971   3.819   3.527   5.023
 3655TIP3    H210972   3.693   3.561   5.099
 3656TIP3   OH210973   2.540   2.694   4.275
 3656TIP3    H110974   2.492   2.627   4.324
 3656TIP3    H210975   2.586   2.646   4.207
 3657TIP3   OH210976   6.312   0.943   4.207
 3657TIP3    H110977   6.237   0.954   4.149
 3657TIP3    H210978   6.276   0.951   4.295
 3658TIP3   OH210979   4.656   2.751   4.589
 3658TIP3    H110980   4.612   2.736   4.505
 3658TIP3    H210981   4.749   2.751   4.567
 3659TIP3   OH210982   1.688   4.952  -0.014
 3659TIP3    H110983   1.644   5.031  -0.047
 3659TIP3    H210984   1.617   4.889  -0.002
 3660TIP3   OH210985   0.392   5.658   1.399
 3660TIP3    H110986   0.423   5.598   1.330
 3660TIP3    H210987   0.432   5.742   1.376
 3661TIP3   OH210988   3.394   2.142   0.966
 3661TIP3    H110989   3.382   2.053   0.933
 3661TIP3    H210990   3.481   2.167   0.934
 3662TIP3   OH210991   1.199   4.731   4.091
 3662TIP3    H110992   1.135   4.674   4.132
 3662TIP3    H210993   1.225   4.792   4.160
 3663TIP3   OH210994   3.438   0.734   3.594
 3663TIP3    H110995   3.476   0.654   3.556
 3663TIP3    H210996   3.504   0.764   3.657
 3664TIP3   OH210997   2.918   1.462   0.962
 3664TIP3    H110998   2.946   1.506   0.881
 3664TIP3    H210999   2.825   1.444   0.947
 3665TIP3   OH211000   4.726   2.957   1.185
 3665TIP3    H111001   4.662   3.026   1.203
 3665TIP3    H211002   4.801   2.978   1.241
 3666TIP3   OH211003   4.793   0.124   2.593
 3666TIP3    H111004   4.747   0.089   2.670
 3666TIP3    H211005   4.789   0.054   2.528
 3667TIP3   OH211006   2.427   1.335   1.085
 3667TIP3    H111007   2.378   1.404   1.129
 3667TIP3    H211008   2.359   1.277   1.050
 3668TIP3   OH211009   5.156   4.862   4.052
 3668TIP3    H111010   5.141   4.941   3.999
 3668TIP3    H211011   5.251   4.862   4.068
 3669TIP3   OH211012   5.578   3.762   1.607
 3669TIP3    H111013   5.664   3.767   1.650
 3669TIP3    H211014   5.516   3.761   1.680
 3670TIP3   OH211015   4.020   4.917   3.735
 3670TIP3    H111016   3.986   4.890   3.650
 3670TIP3    H211017   4.081   4.848   3.759
 3671TIP3   OH211018   3.398   2.152   4.548
 3671TIP3    H111019   3.368   2.147   4.639
 3671TIP3    H211020   3.484   2.111   4.549
 3672TIP3   OH211021   3.671   3.875   0.947
 3672TIP3    H111022   3.711   3.942   1.003
 3672TIP3    H211023   3.577   3.882   0.964
 3673TIP3   OH211024   4.518   1.873   2.659
 3673TIP3    H111025   4.509   1.914   2.573
 3673TIP3    H211026   4.613   1.870   2.674
 3674TIP3   OH211027   4.377   4.656   4.987
 3674TIP3    H111028   4.450   4.674   5.047
 3674TIP3    H211029   4.415   4.605   4.916
 3675TIP3   OH211030   4.070   3.567   2.615
 3675TIP3    H111031   3.975   3.584   2.615
 3675TIP3    H211032   4.110   3.654   2.623
 3676TIP3   OH211033   2.993   2.904   3.018
 3676TIP3    H111034   2.899   2.891   3.010
 3676TIP3    H211035   3.019   2.850   3.093
 3677TIP3   OH211036   6.242   4.119   1.588
 3677TIP3    H111037   6.252   4.214   1.582
 3677TIP3    H211038   6.210   4.104   1.677
 3678TIP3   OH211039   1.546   5.495   2.047
 3678TIP3    H111040   1.488   5.570   2.031
 3678TIP3    H211041   1.492   5.418   2.025
 3679TIP3   OH211042   5.675   3.367   3.168
 3679TIP3    H111043   5.616   3.295   3.147
 3679TIP3    H211044   5.681   3.366   3.264
 3680TIP3   OH211045   0.306   0.211   1.285
 3680TIP3    H111046   0.247   0.183   1.215
 3680TIP3    H211047   0.296   0.306   1.288
 3681TIP3   OH211048   0.671   1.737   1.953
 3681TIP3    H111049   0.750   1.685   1.940
 3681TIP3    H211050   0.678   1.808   1.889
 3682TIP3   OH211051   2.749   1.177   3.188
 3682TIP3    H111052   2.819   1.227   3.231
 3682TIP3    H211053   2.737   1.220   3.103
 3683TIP3   OH211054   0.197   2.726   3.826
 3683TIP3    H111055   0.165   2.687   3.745
 3683TIP3    H211056   0.278   2.770   3.801
 3684TIP3   OH211057   4.606   5.654   2.216
 3684TIP3    H111058   4.635   5.743   2.197
 3684TIP3    H211059   4.591   5.653   2.310
 3685TIP3   OH211060   3.971   4.391   2.317
 3685TIP3    H111061   3.969   4.440   2.235
 3685TIP3    H211062   4.003   4.453   2.382
 3686TIP3   OH211063   5.927   1.286   3.671
 3686TIP3    H111064   5.952   1.232   3.597
 3686TIP3    H211065   5.976   1.368   3.659
 3687TIP3   OH211066   1.646   4.159   3.181
 3687TIP3    H111067   1.571   4.160   3.122
 3687TIP3    H211068   1.697   4.236   3.157
 3688TIP3   OH211069   3.875   1.653   3.163
 3688TIP3    H111070   3.823   1.638   3.084
 3688TIP3    H211071   3.822   1.713   3.215
 3689TIP3   OH211072   6.278   2.027   0.492
 3689TIP3    H111073   6.297   2.120   0.502
 3689TIP3    H211074   6.184   2.023   0.473
 3690TIP3   OH211075   1.657   1.197   5.018
 3690TIP3    H111076   1.711   1.198   4.940
 3690TIP3    H211077   1.584   1.139   4.997
 3691TIP3   OH211078   4.344   5.981   2.510
 3691TIP3    H111079   4.312   5.892   2.495
 3691TIP3    H211080   4.348   6.021   2.423
 3692TIP3   OH211081   1.198   2.568   2.610
 3692TIP3    H111082   1.177   2.660   2.593
 3692TIP3    H211083   1.114   2.524   2.615
 3693TIP3   OH211084   3.844   3.054   4.231
 3693TIP3    H111085   3.901   3.071   4.306
 3693TIP3    H211086   3.793   2.977   4.256
 3694TIP3   OH211087   3.879   0.758   4.820
 3694TIP3    H111088   3.938   0.822   4.859
 3694TIP3    H211089   3.928   0.676   4.820
 3695TIP3   OH211090   6.120   2.234   1.533
 3695TIP3    H111091   6.091   2.154   1.577
 3695TIP3    H211092   6.038   2.281   1.513
 3696TIP3   OH211093   0.433   4.833   0.354
 3696TIP3    H111094   0.500   4.804   0.293
 3696TIP3    H211095   0.466   4.809   0.440
 3697TIP3   OH211096   2.238   1.177   1.752
 3697TIP3    H111097   2.168   1.159   1.815
 3697TIP3    H211098   2.239   1.102   1.694
 3698TIP3   OH211099   1.597   1.720   2.833
 3698TIP3    H111100   1.620   1.731   2.925
 3698TIP3    H211101   1.665   1.768   2.785
 3699TIP3   OH211102   4.455   4.887   4.105
 3699TIP3    H111103   4.541   4.919   4.078
 3699TIP3    H211104   4.438   4.932   4.188
 3700TIP3   OH211105   3.447   3.607   0.597
 3700TIP3    H111106   3.428   3.700   0.592
 3700TIP3    H211107   3.492   3.595   0.681
 3701TIP3   OH211108   3.126   5.320   4.145
 3701TIP3    H111109   3.091   5.233   4.163
 3701TIP3    H211110   3.221   5.306   4.139
 3702TIP3   OH211111   0.330   5.818   3.687
 3702TIP3    H111112   0.250   5.863   3.659
 3702TIP3    H211113   0.318   5.806   3.782
 3703TIP3   OH211114   0.852   4.864   0.435
 3703TIP3    H111115   0.923   4.928   0.445
 3703TIP3    H211116   0.799   4.876   0.514
 3704TIP3   OH211117   2.912   4.082   3.541
 3704TIP3    H111118   2.918   4.167   3.497
 3704TIP3    H211119   2.830   4.087   3.590
 3705TIP3   OH211120   3.415   3.915   4.288
 3705TIP3    H111121   3.359   3.839   4.274
 3705TIP3    H211122   3.503   3.884   4.268
 3706TIP3   OH211123   1.569   1.886   0.802
 3706TIP3    H111124   1.580   1.979   0.783
 3706TIP3    H211125   1.552   1.846   0.717
 3707TIP3   OH211126   5.377   0.780   1.337
 3707TIP3    H111127   5.380   0.694   1.294
 3707TIP3    H211128   5.467   0.812   1.332
 3708TIP3   OH211129   2.827   2.889   0.162
 3708TIP3    H111130   2.789   2.944   0.230
 3708TIP3    H211131   2.781   2.805   0.171
 3709TIP3   OH211132   2.226   1.612   0.496
 3709TIP3    H111133   2.257   1.578   0.413
 3709TIP3    H211134   2.164   1.546   0.527
 3710TIP3   OH211135   4.314   4.150   0.522
 3710TIP3    H111136   4.343   4.153   0.613
 3710TIP3    H211137   4.355   4.072   0.486
 3711TIP3   OH211138   4.996   5.529   4.987
 3711TIP3    H111139   5.076   5.565   4.949
 3711TIP3    H211140   5.026   5.471   5.056
 3712TIP3   OH211141   5.749   0.761   1.519
 3712TIP3    H111142   5.817   0.696   1.537
 3712TIP3    H211143   5.725   0.794   1.606
 3713TIP3   OH211144   1.778   3.992   2.543
 3713TIP3    H111145   1.860   4.036   2.567
 3713TIP3    H211146   1.792   3.901   2.567
 3714TIP3   OH211147   2.102   5.585   3.556
 3714TIP3    H111148   2.138   5.661   3.602
 3714TIP3    H211149   2.161   5.570   3.483
 3715TIP3   OH211150   0.352   3.128   1.820
 3715TIP3    H111151   0.340   3.115   1.726
 3715TIP3    H211152   0.445   3.114   1.835
 3716TIP3   OH211153   0.617   2.689   2.265
 3716TIP3    H111154   0.605   2.763   2.206
 3716TIP3    H211155   0.706   2.657   2.248
 3717TIP3   OH211156   4.871   4.091   0.181
 3717TIP3    H111157   4.826   4.119   0.101
 3717TIP3    H211158   4.960   4.123   0.171
 3718TIP3   OH211159   0.644   2.495   4.595
 3718TIP3    H111160   0.698   2.571   4.571
 3718TIP3    H211161   0.707   2.423   4.606
 3719TIP3   OH211162   0.064   1.225   3.540
 3719TIP3    H111163   0.154   1.192   3.542
 3719TIP3    H211164   0.013   1.153   3.503
 3720TIP3   OH211165   2.686   3.867   0.320
 3720TIP3    H111166   2.743   3.865   0.243
 3720TIP3    H211167   2.604   3.905   0.289
 3721TIP3   OH211168   1.626   3.160   2.646
 3721TIP3    H111169   1.714   3.138   2.617
 3721TIP3    H211170   1.633   3.251   2.676
 3722TIP3   OH211171   1.044   4.247   1.439
 3722TIP3    H111172   1.060   4.196   1.519
 3722TIP3    H211173   1.112   4.218   1.378
 3723TIP3   OH211174   2.655   1.231   3.443
 3723TIP3    H111175   2.675   1.197   3.356
 3723TIP3    H211176   2.691   1.320   3.443
 3724TIP3   OH211177   5.658   5.262   3.868
 3724TIP3    H111178   5.632   5.183   3.914
 3724TIP3    H211179   5.591   5.274   3.801
 3725TIP3   OH211180   3.388   4.534   0.504
 3725TIP3    H111181   3.382   4.628   0.522
 3725TIP3    H211182   3.354   4.524   0.415
 3726TIP3   OH211183   6.303   5.149   4.248
 3726TIP3    H111184   6.214   5.184   4.249
 3726TIP3    H211185   6.315   5.115   4.160
 3727TIP3   OH211186   2.507   5.087   5.125
 3727TIP3    H111187   2.464   5.077   5.210
 3727TIP3    H211188   2.460   5.027   5.067
 3728TIP3   OH211189   2.566   2.867   5.024
 3728TIP3    H111190   2.643   2.833   5.069
 3728TIP3    H211191   2.601   2.905   4.943
 3729TIP3   OH211192   0.140   0.006   4.494
 3729TIP3    H111193   0.071  -0.035   4.547
 3729TIP3    H211194   0.141   0.097   4.523
 3730TIP3   OH211195   3.003   2.541   2.265
 3730TIP3    H111196   2.915   2.504   2.259
 3730TIP3    H211197   3.029   2.527   2.356
 3731TIP3   OH211198   5.073   2.616   3.778
 3731TIP3    H111199   5.118   2.619   3.862
 3731TIP3    H211200   5.007   2.686   3.784
 3732TIP3   OH211201   5.426   2.005   4.801
 3732TIP3    H111202   5.370   2.028   4.727
 3732TIP3    H211203   5.400   2.065   4.871
 3733TIP3   OH211204   2.598   0.153   3.579
 3733TIP3    H111205   2.637   0.073   3.613
 3733TIP3    H211206   2.638   0.223   3.630
 3734TIP3   OH211207   4.319   3.980   4.889
 3734TIP3    H111208   4.283   3.892   4.902
 3734TIP3    H211209   4.412   3.964   4.871
 3735TIP3   OH211210   0.360   0.817   1.355
 3735TIP3    H111211   0.335   0.725   1.343
 3735TIP3    H211212   0.292   0.853   1.412
 3736TIP3   OH211213   2.081   5.858   4.306
 3736TIP3    H111214   2.130   5.881   4.227
 3736TIP3    H211215   2.012   5.925   4.312
 3737TIP3   OH211216   3.128   2.767   0.300
 3737TIP3    H111217   3.200   2.724   0.347
 3737TIP3    H211218   3.129   2.858   0.331
 3738TIP3   OH211219   0.022   1.120   0.537
 3738TIP3    H111220   0.078   1.104   0.461
 3738TIP3    H211221  -0.017   1.206   0.521
 3739TIP3   OH211222   3.352   1.075   0.881
 3739TIP3    H111223   3.395   1.083   0.966
 3739TIP3    H211224   3.272   1.026   0.899
 3740TIP3   OH211225   4.509   1.171   0.833
 3740TIP3    H111226   4.430   1.120   0.847
 3740TIP3    H211227   4.549   1.178   0.920
 3741TIP3   OH211228   1.883   1.165   1.212
 3741TIP3    H111229   1.979   1.170   1.211
 3741TIP3    H211230   1.855   1.220   1.139
 3742TIP3   OH211231   0.479   4.898   4.615
 3742TIP3    H111232   0.486   4.872   4.707
 3742TIP3    H211233   0.406   4.847   4.581
 3743TIP3   OH211234   3.770   3.787   4.241
 3743TIP3    H111235   3.763   3.821   4.330
 3743TIP3    H211236   3.861   3.759   4.233
 3744TIP3   OH211237   2.548   4.883   0.179
 3744TIP3    H111238   2.588   4.892   0.266
 3744TIP3    H211239   2.560   4.791   0.157
 3745TIP3   OH211240   3.341   1.479   2.800
 3745TIP3    H111241   3.379   1.392   2.811
 3745TIP3    H211242   3.261   1.464   2.749
 3746TIP3   OH211243   6.291   2.370   3.476
 3746TIP3    H111244   6.245   2.289   3.457
 3746TIP3    H211245   6.240   2.412   3.544
 3747TIP3   OH211246   0.074   3.508   0.534
 3747TIP3    H111247   0.133   3.436   0.510
 3747TIP3    H211248  -0.008   3.465   0.558
 3748TIP3   OH211249   1.957   1.652   3.563
 3748TIP3    H111250   1.910   1.588   3.510
 3748TIP3    H211251   1.974   1.606   3.646
 3749TIP3   OH211252   2.630   2.533   4.054
 3749TIP3    H111253   2.603   2.564   3.968
 3749TIP3    H211254   2.685   2.457   4.036
 3750TIP3   OH211255   1.539   3.468   3.966
 3750TIP3    H111256   1.530   3.491   4.058
 3750TIP3    H211257   1.467   3.408   3.949
 3751TIP3   OH211258   2.418   0.229   0.601
 3751TIP3    H111259   2.479   0.198   0.668
 3751TIP3    H211260   2.371   0.301   0.643
 3752TIP3   OH211261   0.024   4.085   4.992
 3752TIP3    H111262   0.091   4.069   4.925
 3752TIP3    H211263   0.003   3.998   5.026
 3753TIP3   OH211264   5.687   2.088   2.315
 3753TIP3    H111265   5.653   1.999   2.303
 3753TIP3    H211266   5.782   2.078   2.315
 3754TIP3   OH211267   4.370   4.696   2.749
 3754TIP3    H111268   4.375   4.748   2.669
 3754TIP3    H211269   4.449   4.720   2.798
 3755TIP3   OH211270   3.840   4.516   4.483
 3755TIP3    H111271   3.841   4.435   4.532
 3755TIP3    H211272   3.792   4.578   4.538
 3756TIP3   OH211273   3.035   1.400   4.374
 3756TIP3    H111274   3.071   1.384   4.287
 3756TIP3    H211275   3.051   1.493   4.390
 3757TIP3   OH211276   4.075   0.285   2.847
 3757TIP3    H111277   4.023   0.256   2.922
 3757TIP3    H211278   4.089   0.205   2.795
 3758TIP3   OH211279   1.104   4.390   0.228
 3758TIP3    H111280   1.178   4.337   0.257
 3758TIP3    H211281   1.034   4.372   0.291
 3759TIP3   OH211282   3.228   5.563   1.121
 3759TIP3    H111283   3.319   5.548   1.097
 3759TIP3    H211284   3.180   5.555   1.038
 3760TIP3   OH211285   5.241   4.508   2.848
 3760TIP3    H111286   5.221   4.601   2.856
 3760TIP3    H211287   5.171   4.473   2.793
 3761TIP3   OH211288   4.006   0.601   1.714
 3761TIP3    H111289   3.984   0.522   1.763
 3761TIP3    H211290   3.968   0.673   1.766
 3762TIP3   OH211291   0.827   4.158   2.741
 3762TIP3    H111292   0.920   4.133   2.745
 3762TIP3    H211293   0.818   4.227   2.807
 3763TIP3   OH211294   2.582   3.275   3.807
 3763TIP3    H111295   2.614   3.232   3.886
 3763TIP3    H211296   2.561   3.204   3.747
 3764TIP3   OH211297   0.935   4.300   4.882
 3764TIP3    H111298   1.018   4.346   4.891
 3764TIP3    H211299   0.891   4.314   4.966
 3765TIP3   OH211300   4.613   4.804   5.073
 3765TIP3    H111301   4.587   4.896   5.070
 3765TIP3    H211302   4.619   4.778   4.981
 3766TIP3   OH211303   1.359   1.947   2.039
 3766TIP3    H111304   1.390   2.037   2.041
 3766TIP3    H211305   1.421   1.900   1.983
 3767TIP3   OH211306   2.630   4.710   3.675
 3767TIP3    H111307   2.541   4.719   3.708
 3767TIP3    H211308   2.681   4.773   3.725
 3768TIP3   OH211309   5.374   5.836   2.777
 3768TIP3    H111310   5.380   5.789   2.694
 3768TIP3    H211311   5.456   5.816   2.822
 3769TIP3   OH211312   3.116   4.653   4.224
 3769TIP3    H111313   3.161   4.737   4.218
 3769TIP3    H211314   3.127   4.626   4.316
 3770TIP3   OH211315   4.588   0.554   0.888
 3770TIP3    H111316   4.570   0.627   0.828
 3770TIP3    H211317   4.511   0.550   0.944
 3771TIP3   OH211318   1.995   5.086   0.932
 3771TIP3    H111319   1.915   5.035   0.944
 3771TIP3    H211320   2.050   5.063   1.007
 3772TIP3   OH211321   6.154   4.153   0.307
 3772TIP3    H111322   6.080   4.214   0.307
 3772TIP3    H211323   6.178   4.143   0.399
 3773TIP3   OH211324   0.568   3.718   0.746
 3773TIP3    H111325   0.562   3.810   0.719
 3773TIP3    H211326   0.512   3.713   0.823
 3774TIP3   OH211327   3.369   1.464   3.199
 3774TIP3    H111328   3.387   1.408   3.274
 3774TIP3    H211329   3.391   1.411   3.123
 3775TIP3   OH211330   1.214   2.877   2.512
 3775TIP3    H111331   1.227   2.875   2.417
 3775TIP3    H211332   1.298   2.906   2.548
 3776TIP3   OH211333   3.176   0.941   1.049
 3776TIP3    H111334   3.122   0.882   1.102
 3776TIP3    H211335   3.180   1.022   1.101
 3777TIP3   OH211336   4.691   0.947   4.109
 3777TIP3    H111337   4.716   0.857   4.130
 3777TIP3    H211338   4.669   0.944   4.016
 3778TIP3   OH211339   6.263   4.504   2.313
 3778TIP3    H111340   6.245   4.597   2.301
 3778TIP3    H211341   6.236   4.463   2.231
 3779TIP3   OH211342   3.158   4.764   2.579
 3779TIP3    H111343   3.193   4.725   2.659
 3779TIP3    H211344   3.101   4.697   2.543
 3780TIP3   OH211345   4.692   1.532   5.202
 3780TIP3    H111346   4.644   1.486   5.271
 3780TIP3    H211347   4.673   1.624   5.217
 3781TIP3   OH211348   1.156   0.839   1.755
 3781TIP3    H111349   1.118   0.842   1.842
 3781TIP3    H211350   1.162   0.931   1.728
 3782TIP3   OH211351   1.148   1.837   1.881
 3782TIP3    H111352   1.089   1.806   1.950
 3782TIP3    H211353   1.222   1.875   1.929
 3783TIP3   OH211354   1.905   3.797   4.265
 3783TIP3    H111355   1.854   3.716   4.272
 3783TIP3    H211356   1.996   3.769   4.271
 3784TIP3   OH211357   4.495   5.135   0.458
 3784TIP3    H111358   4.425   5.095   0.406
 3784TIP3    H211359   4.450   5.179   0.530
 3785TIP3   OH211360   0.200   5.122   4.898
 3785TIP3    H111361   0.232   5.188   4.838
 3785TIP3    H211362   0.206   5.040   4.850
 3786TIP3   OH211363   6.329   3.768   0.714
 3786TIP3    H111364   6.297   3.730   0.633
 3786TIP3    H211365   6.324   3.863   0.700
 3787TIP3   OH211366   2.402   4.637   5.093
 3787TIP3    H111367   2.374   4.546   5.086
 3787TIP3    H211368   2.356   4.671   5.169
 3788TIP3   OH211369   1.557   2.869   5.203
 3788TIP3    H111370   1.649   2.849   5.222
 3788TIP3    H211371   1.560   2.939   5.139
 3789TIP3   OH211372   4.503   0.236   0.289
 3789TIP3    H111373   4.544   0.312   0.250
 3789TIP3    H211374   4.411   0.262   0.301
 3790TIP3   OH211375   4.242   1.264   0.206
 3790TIP3    H111376   4.301   1.222   0.144
 3790TIP3    H211377   4.213   1.344   0.161
 3791TIP3   OH211378   5.229   1.279   2.957
 3791TIP3    H111379   5.191   1.212   2.900
 3791TIP3    H211380   5.157   1.341   2.972
 3792TIP3   OH211381   0.807   1.148   4.201
 3792TIP3    H111382   0.764   1.063   4.196
 3792TIP3    H211383   0.738   1.208   4.231
 3793TIP3   OH211384   1.539   5.852   0.645
 3793TIP3    H111385   1.481   5.908   0.696
 3793TIP3    H211386   1.620   5.848   0.696
 3794TIP3   OH211387   1.125   2.924   3.711
 3794TIP3    H111388   1.192   2.938   3.645
 3794TIP3    H211389   1.070   3.002   3.706
 3795TIP3   OH211390   1.922   5.401   4.551
 3795TIP3    H111391   1.959   5.457   4.620
 3795TIP3    H211392   1.828   5.420   4.553
 3796TIP3   OH211393   2.096   3.356   2.409
 3796TIP3    H111394   2.065   3.323   2.493
 3796TIP3    H211395   2.120   3.447   2.427
 3797TIP3   OH211396   1.444   5.896   0.376
 3797TIP3    H111397   1.468   5.979   0.334
 3797TIP3    H211398   1.486   5.900   0.462
 3798TIP3   OH211399   0.876   1.980   0.454
 3798TIP3    H111400   0.933   2.055   0.469
 3798TIP3    H211401   0.800   2.016   0.408
 3799TIP3   OH211402   2.924   4.585   0.054
 3799TIP3    H111403   2.969   4.509   0.091
 3799TIP3    H211404   2.936   4.654   0.119
 3800TIP3   OH211405   3.751   3.842   3.139
 3800TIP3    H111406   3.837   3.801   3.131
 3800TIP3    H211407   3.737   3.851   3.233
 3801TIP3   OH211408   5.490   0.509   4.020
 3801TIP3    H111409   5.513   0.588   4.069
 3801TIP3    H211410   5.569   0.456   4.021
 3802TIP3   OH211411   5.713   4.189   5.097
 3802TIP3    H111412   5.658   4.111   5.087
 3802TIP3    H211413   5.802   4.155   5.106
 3803TIP3   OH211414   5.274   1.325   3.811
 3803TIP3    H111415   5.338   1.303   3.742
 3803TIP3    H211416   5.203   1.369   3.765
 3804TIP3   OH211417   2.710   1.448   4.946
 3804TIP3    H111418   2.642   1.491   4.895
 3804TIP3    H211419   2.783   1.436   4.884
 3805TIP3   OH211420   0.095   2.593   0.516
 3805TIP3    H111421   0.040   2.603   0.438
 3805TIP3    H211422   0.180   2.567   0.482
 3806TIP3   OH211423   5.296   2.289   3.985
 3806TIP3    H111424   5.305   2.383   3.968
 3806TIP3    H211425   5.238   2.258   3.916
 3807TIP3   OH211426   3.033   2.943   4.003
 3807TIP3    H111427   3.009   2.924   4.093
 3807TIP3    H211428   3.114   2.994   4.010
 3808TIP3   OH211429   0.085   5.986   2.883
 3808TIP3    H111430   0.023   6.059   2.871
 3808TIP3    H211431   0.045   5.932   2.951
 3809TIP3   OH211432   1.639   2.116   3.460
 3809TIP3    H111433   1.677   2.138   3.545
 3809TIP3    H211434   1.630   2.200   3.415
 3810TIP3   OH211435   5.913   0.819   4.383
 3810TIP3    H111436   5.842   0.867   4.340
 3810TIP3    H211437   5.989   0.876   4.373
 3811TIP3   OH211438   0.420   4.554   4.649
 3811TIP3    H111439   0.385   4.613   4.583
 3811TIP3    H211440   0.476   4.610   4.703
 3812TIP3   OH211441   4.318   3.082   1.440
 3812TIP3    H111442   4.226   3.059   1.452
 3812TIP3    H211443   4.366   3.001   1.455
 3813TIP3   OH211444   4.844   1.614   0.446
 3813TIP3    H111445   4.795   1.533   0.463
 3813TIP3    H211446   4.932   1.596   0.478
 3814TIP3   OH211447   2.130   1.443   2.676
 3814TIP3    H111448   2.147   1.458   2.583
 3814TIP3    H211449   2.128   1.531   2.715
 3815TIP3   OH211450   2.814   4.159   0.085
 3815TIP3    H111451   2.849   4.163   0.175
 3815TIP3    H211452   2.805   4.065   0.068
 3816TIP3   OH211453   2.488   0.732   4.934
 3816TIP3    H111454   2.404   0.774   4.915
 3816TIP3    H211455   2.471   0.681   5.013
 3817TIP3   OH211456   4.826   5.344   3.134
 3817TIP3    H111457   4.812   5.378   3.222
 3817TIP3    H211458   4.913   5.303   3.137
 3818TIP3   OH211459   5.581   1.489   2.224
 3818TIP3    H111460   5.520   1.416   2.220
 3818TIP3    H211461   5.665   1.449   2.245
 3819TIP3   OH211462   6.096   3.444  -0.030
 3819TIP3    H111463   6.026   3.509  -0.024
 3819TIP3    H211464   6.159   3.470   0.037
 3820TIP3   OH211465   3.597   5.874   3.160
 3820TIP3    H111466   3.648   5.928   3.100
 3820TIP3    H211467   3.537   5.825   3.103
 3821TIP3   OH211468   4.828   0.403   0.217
 3821TIP3    H111469   4.753   0.441   0.171
 3821TIP3    H211470   4.842   0.319   0.174
 3822TIP3   OH211471   2.953   0.596   4.388
 3822TIP3    H111472   2.960   0.670   4.328
 3822TIP3    H211473   2.959   0.635   4.475
 3823TIP3   OH211474   2.382   1.920   0.310
 3823TIP3    H111475   2.348   1.998   0.267
 3823TIP3    H211476   2.311   1.891   0.367
 3824TIP3   OH211477   1.722   0.094   0.403
 3824TIP3    H111478   1.709   0.000   0.410
 3824TIP3    H211479   1.758   0.108   0.315
 3825TIP3   OH211480   4.085   3.619   2.254
 3825TIP3    H111481   4.139   3.555   2.300
 3825TIP3    H211482   4.019   3.646   2.318
 3826TIP3   OH211483   5.980   4.791   1.236
 3826TIP3    H111484   6.066   4.750   1.238
 3826TIP3    H211485   5.960   4.811   1.328
 3827TIP3   OH211486   3.243   0.067   3.549
 3827TIP3    H111487   3.199   0.016   3.481
 3827TIP3    H211488   3.196   0.045   3.629
 3828TIP3   OH211489   0.884   1.336   1.987
 3828TIP3    H111490   0.893   1.373   2.075
 3828TIP3    H211491   0.935   1.256   1.989
 3829TIP3   OH211492   6.043   1.391   2.263
 3829TIP3    H111493   6.073   1.477   2.234
 3829TIP3    H211494   6.030   1.341   2.182
 3830TIP3   OH211495   2.178   2.823   0.027
 3830TIP3    H111496   2.170   2.824   0.123
 3830TIP3    H211497   2.271   2.804   0.012
 3831TIP3   OH211498   0.879   5.904   4.496
 3831TIP3    H111499   0.883   5.991   4.536
 3831TIP3    H211500   0.853   5.846   4.568
 3832TIP3   OH211501   5.460   5.436   4.323
 3832TIP3    H111502   5.468   5.341   4.321
 3832TIP3    H211503   5.548   5.468   4.300
 3833TIP3   OH211504   4.404   1.493   0.085
 3833TIP3    H111505   4.432   1.406   0.057
 3833TIP3    H211506   4.450   1.553   0.026
 3834TIP3   OH211507   4.741   1.080   4.848
 3834TIP3    H111508   4.698   1.022   4.911
 3834TIP3    H211509   4.686   1.158   4.845
 3835TIP3   OH211510   4.106   3.208   3.977
 3835TIP3    H111511   4.049   3.154   3.922
 3835TIP3    H211512   4.174   3.240   3.917
 3836TIP3   OH211513   1.236   1.295   3.974
 3836TIP3    H111514   1.288   1.224   3.937
 3836TIP3    H211515   1.160   1.252   4.012
 3837TIP3   OH211516   6.300   4.299   0.107
 3837TIP3    H111517   6.352   4.232   0.064
 3837TIP3    H211518   6.231   4.251   0.153
 3838TIP3   OH211519   2.870   0.145   0.566
 3838TIP3    H111520   2.934   0.094   0.615
 3838TIP3    H211521   2.844   0.088   0.494
 3839TIP3   OH211522   2.196   4.765   3.346
 3839TIP3    H111523   2.122   4.788   3.290
 3839TIP3    H211524   2.238   4.849   3.366
 3840TIP3   OH211525   5.186   4.502   4.927
 3840TIP3    H111526   5.143   4.453   4.857
 3840TIP3    H211527   5.272   4.461   4.937
 3841TIP3   OH211528   5.378   4.142   3.320
 3841TIP3    H111529   5.429   4.143   3.238
 3841TIP3    H211530   5.441   4.166   3.388
 3842TIP3   OH211531   5.254   5.288   2.399
 3842TIP3    H111532   5.297   5.348   2.460
 3842TIP3    H211533   5.320   5.271   2.332
 3843TIP3   OH211534   4.082   4.535   1.378
 3843TIP3    H111535   4.022   4.567   1.445
 3843TIP3    H211536   4.115   4.452   1.414
 3844TIP3   OH211537   4.236   4.862   0.211
 3844TIP3    H111538   4.235   4.941   0.265
 3844TIP3    H211539   4.222   4.893   0.122
 3845TIP3   OH211540   6.011   4.720   1.993
 3845TIP3    H111541   5.983   4.629   1.984
 3845TIP3    H211542   6.035   4.729   2.085
 3846TIP3   OH211543   6.246   5.685   4.211
 3846TIP3    H111544   6.250   5.759   4.151
 3846TIP3    H211545   6.221   5.610   4.156
 3847TIP3   OH211546   4.701   4.623   3.214
 3847TIP3    H111547   4.783   4.667   3.235
 3847TIP3    H211548   4.700   4.617   3.119
 3848TIP3   OH211549   1.962   3.672   5.051
 3848TIP3    H111550   2.043   3.722   5.043
 3848TIP3    H211551   1.972   3.599   4.989
 3849TIP3   OH211552   1.002   5.196   3.729
 3849TIP3    H111553   1.004   5.276   3.676
 3849TIP3    H211554   1.037   5.223   3.814
 3850TIP3   OH211555   4.338   0.917   3.153
 3850TIP3    H111556   4.288   0.943   3.231
 3850TIP3    H211557   4.286   0.847   3.114
 3851TIP3   OH211558   0.702   4.399   4.051
 3851TIP3    H111559   0.612   4.374   4.070
 3851TIP3    H211560   0.727   4.346   3.975
 3852TIP3   OH211561   0.862   0.715   0.644
 3852TIP3    H111562   0.846   0.711   0.738
 3852TIP3    H211563   0.789   0.765   0.609
 3853TIP3   OH211564   4.119   2.296   5.112
 3853TIP3    H111565   4.182   2.340   5.055
 3853TIP3    H211566   4.063   2.248   5.052
 3854TIP3   OH211567   1.638   2.245   1.758
 3854TIP3    H111568   1.671   2.183   1.824
 3854TIP3    H211569   1.608   2.189   1.686
 3855TIP3   OH211570   0.624   5.651   5.017
 3855TIP3    H111571   0.579   5.667   5.101
 3855TIP3    H211572   0.605   5.560   4.997
 3856TIP3   OH211573   0.541   2.362   1.654
 3856TIP3    H111574   0.592   2.357   1.573
 3856TIP3    H211575   0.593   2.420   1.710
 3857TIP3   OH211576   3.244   0.928   4.473
 3857TIP3    H111577   3.255   0.875   4.394
 3857TIP3    H211578   3.157   0.905   4.506
 3858TIP3   OH211579   3.311   5.321   0.462
 3858TIP3    H111580   3.350   5.394   0.414
 3858TIP3    H211581   3.386   5.270   0.494
 3859TIP3   OH211582   4.283   1.651   2.162
 3859TIP3    H111583   4.246   1.667   2.075
 3859TIP3    H211584   4.359   1.709   2.167
 3860TIP3   OH211585   4.771   4.004   4.542
 3860TIP3    H111586   4.798   4.081   4.591
 3860TIP3    H211587   4.849   3.950   4.537
 3861TIP3   OH211588   0.905   2.660   3.433
 3861TIP3    H111589   0.982   2.610   3.456
 3861TIP3    H211590   0.894   2.646   3.339
 3862TIP3   OH211591   5.156   3.910   3.454
 3862TIP3    H111592   5.246   3.878   3.447
 3862TIP3    H211593   5.102   3.838   3.424
 3863TIP3   OH211594   6.300   4.067   2.382
 3863TIP3    H111595   6.345   4.000   2.435
 3863TIP3    H211596   6.257   4.018   2.313
 3864TIP3   OH211597   1.731   5.196   4.729
 3864TIP3    H111598   1.650   5.240   4.704
 3864TIP3    H211599   1.730   5.196   4.825
 3865TIP3   OH211600   3.801   1.313   3.495
 3865TIP3    H111601   3.767   1.227   3.472
 3865TIP3    H211602   3.733   1.374   3.467
 3866TIP3   OH211603   1.193   4.782   0.276
 3866TIP3    H111604   1.172   4.805   0.366
 3866TIP3    H211605   1.240   4.699   0.282
 3867TIP3   OH211606   2.658   0.613   1.396
 3867TIP3    H111607   2.671   0.541   1.334
 3867TIP3    H211608   2.746   0.632   1.430
 3868TIP3   OH211609   2.806   2.033   3.882
 3868TIP3    H111610   2.859   2.113   3.874
 3868TIP3    H211611   2.800   1.999   3.793
 3869TIP3   OH211612   4.032   3.511   4.430
 3869TIP3    H111613   4.093   3.536   4.499
 3869TIP3    H211614   4.047   3.575   4.360
 3870TIP3   OH211615   4.113   3.314   0.127
 3870TIP3    H111616   4.088   3.290   0.216
 3870TIP3    H211617   4.203   3.346   0.135
 3871TIP3   OH211618   6.130   4.586   4.125
 3871TIP3    H111619   6.193   4.534   4.175
 3871TIP3    H211620   6.182   4.628   4.057
 3872TIP3   OH211621   6.295   0.302   1.306
 3872TIP3    H111622   6.283   0.321   1.213
 3872TIP3    H211623   6.375   0.347   1.330
 3873TIP3   OH211624   3.720   3.708   3.771
 3873TIP3    H111625   3.800   3.660   3.793
 3873TIP3    H211626   3.715   3.778   3.836
 3874TIP3   OH211627   0.628   4.625   2.714
 3874TIP3    H111628   0.687   4.557   2.747
 3874TIP3    H211629   0.562   4.578   2.663
 3875TIP3   OH211630   5.392   2.597   1.836
 3875TIP3    H111631   5.371   2.576   1.745
 3875TIP3    H211632   5.381   2.692   1.841
 3876TIP3   OH211633   5.441   5.485   0.435
 3876TIP3    H111634   5.416   5.549   0.501
 3876TIP3    H211635   5.392   5.406   0.459
 3877TIP3   OH211636   2.230   5.437   3.767
 3877TIP3    H111637   2.231   5.385   3.687
 3877TIP3    H211638   2.250   5.526   3.738
 3878TIP3   OH211639   0.330   5.904   2.104
 3878TIP3    H111640   0.422   5.880   2.094
 3878TIP3    H211641   0.292   5.892   2.017
 3879TIP3   OH211642   0.957   5.236   0.869
 3879TIP3    H111643   0.903   5.280   0.803
 3879TIP3    H211644   1.021   5.303   0.896
 3880TIP3   OH211645   2.416   0.500   2.780
 3880TIP3    H111646   2.415   0.593   2.803
 3880TIP3    H211647   2.459   0.457   2.854
 3881TIP3   OH211648   4.694   1.404   0.498
 3881TIP3    H111649   4.658   1.319   0.474
 3881TIP3    H211650   4.692   1.405   0.593
 3882TIP3   OH211651   1.558   4.020   2.354
 3882TIP3    H111652   1.573   3.929   2.332
 3882TIP3    H211653   1.627   4.041   2.418
 3883TIP3   OH211654   3.265   0.972   2.730
 3883TIP3    H111655   3.289   0.889   2.687
 3883TIP3    H211656   3.346   1.022   2.731
 3884TIP3   OH211657   5.470   1.720   4.378
 3884TIP3    H111658   5.389   1.721   4.430
 3884TIP3    H211659   5.538   1.748   4.439
 3885TIP3   OH211660   2.095   4.328   0.194
 3885TIP3    H111661   2.125   4.287   0.113
 3885TIP3    H211662   2.160   4.397   0.212
 3886TIP3   OH211663   3.147   1.018   1.442
 3886TIP3    H111664   3.191   1.039   1.360
 3886TIP3    H211665   3.182   0.933   1.467
 3887TIP3   OH211666   3.853   4.614   1.561
 3887TIP3    H111667   3.758   4.622   1.558
 3887TIP3    H211668   3.881   4.682   1.623
 3888TIP3   OH211669   5.521   3.308   1.610
 3888TIP3    H111670   5.512   3.393   1.654
 3888TIP3    H211671   5.486   3.323   1.522
 3889TIP3   OH211672   2.235   5.049   2.077
 3889TIP3    H111673   2.197   4.962   2.093
 3889TIP3    H211674   2.169   5.110   2.109
 3890TIP3   OH211675   0.676   2.807   3.056
 3890TIP3    H111676   0.629   2.795   2.973
 3890TIP3    H211677   0.697   2.901   3.057
 3891TIP3   OH211678   2.167   0.425   3.299
 3891TIP3    H111679   2.179   0.372   3.220
 3891TIP3    H211680   2.131   0.508   3.267
 3892TIP3   OH211681   0.535   2.236   4.345
 3892TIP3    H111682   0.581   2.313   4.378
 3892TIP3    H211683   0.464   2.222   4.407
 3893TIP3   OH211684   0.086   3.438   4.922
 3893TIP3    H111685   0.119   3.400   4.840
 3893TIP3    H211686   0.164   3.473   4.965
 3894TIP3   OH211687   0.873   5.942   5.099
 3894TIP3    H111688   0.836   5.966   5.014
 3894TIP3    H211689   0.967   5.937   5.084
 3895TIP3   OH211690   1.870   3.278   4.490
 3895TIP3    H111691   1.953   3.317   4.463
 3895TIP3    H211692   1.894   3.194   4.529
 3896TIP3   OH211693   0.858   3.538   4.593
 3896TIP3    H111694   0.918   3.561   4.522
 3896TIP3    H211695   0.776   3.515   4.549
 3897TIP3   OH211696   5.779   4.838   1.932
 3897TIP3    H111697   5.862   4.791   1.941
 3897TIP3    H211698   5.721   4.798   1.997
 3898TIP3   OH211699   3.258   0.705   2.636
 3898TIP3    H111700   3.319   0.640   2.670
 3898TIP3    H211701   3.172   0.662   2.639
 3899TIP3   OH211702   1.928   1.249   3.432
 3899TIP3    H111703   1.905   1.168   3.478
 3899TIP3    H211704   1.927   1.224   3.339
 3900TIP3   OH211705   1.138   1.916   4.988
 3900TIP3    H111706   1.220   1.873   4.962
 3900TIP3    H211707   1.069   1.855   4.962
 3901TIP3   OH211708   2.137   0.365   2.830
 3901TIP3    H111709   2.205   0.409   2.779
 3901TIP3    H211710   2.094   0.307   2.767
 3902TIP3   OH211711   5.022   0.288   2.657
 3902TIP3    H111712   4.954   0.221   2.667
 3902TIP3    H211713   4.973   0.371   2.657
 3903TIP3   OH211714   2.302   2.941   1.756
 3903TIP3    H111715   2.323   2.942   1.849
 3903TIP3    H211716   2.387   2.941   1.712
 3904TIP3   OH211717   4.092   0.841   2.619
 3904TIP3    H111718   4.172   0.861   2.669
 3904TIP3    H211719   4.031   0.806   2.685
 3905TIP3   OH211720   1.350   3.454   0.992
 3905TIP3    H111721   1.357   3.363   1.021
 3905TIP3    H211722   1.359   3.505   1.073
 3906TIP3   OH211723   0.812   5.367   0.432
 3906TIP3    H111724   0.879   5.376   0.500
 3906TIP3    H211725   0.729   5.376   0.478
 3907TIP3   OH211726   6.111   4.402   3.328
 3907TIP3    H111727   6.193   4.359   3.306
 3907TIP3    H211728   6.043   4.338   3.303
 3908TIP3   OH211729   2.736   0.068   4.545
 3908TIP3    H111730   2.683   0.107   4.476
 3908TIP3    H211731   2.824   0.103   4.532
 3909TIP3   OH211732   3.127   5.898   1.914
 3909TIP3    H111733   3.189   5.869   1.981
 3909TIP3    H211734   3.181   5.907   1.835
 3910TIP3   OH211735   2.910   2.996   3.430
 3910TIP3    H111736   2.983   3.028   3.483
 3910TIP3    H211737   2.832   3.012   3.484
 3911TIP3   OH211738   2.774   4.318   2.963
 3911TIP3    H111739   2.736   4.392   2.916
 3911TIP3    H211740   2.853   4.296   2.915
 3912TIP3   OH211741   1.819   2.044   2.991
 3912TIP3    H111742   1.912   2.022   2.996
 3912TIP3    H211743   1.792   2.019   2.903
 3913TIP3   OH211744   1.605   1.729   4.345
 3913TIP3    H111745   1.691   1.699   4.374
 3913TIP3    H211746   1.545   1.659   4.372
 3914TIP3   OH211747   2.980   3.372   1.716
 3914TIP3    H111748   3.066   3.411   1.707
 3914TIP3    H211749   2.967   3.362   1.810
 3915TIP3   OH211750   1.327   4.930   3.586
 3915TIP3    H111751   1.364   5.014   3.559
 3915TIP3    H211752   1.271   4.950   3.660
 3916TIP3   OH211753   3.580   0.400   2.480
 3916TIP3    H111754   3.589   0.489   2.514
 3916TIP3    H211755   3.620   0.344   2.547
 3917TIP3   OH211756   2.782   2.586   5.035
 3917TIP3    H111757   2.699   2.558   5.073
 3917TIP3    H211758   2.822   2.506   5.002
 3918TIP3   OH211759   6.245   0.115   2.584
 3918TIP3    H111760   6.241   0.128   2.678
 3918TIP3    H211761   6.320   0.057   2.571
 3919TIP3   OH211762   5.497   0.122   4.461
 3919TIP3    H111763   5.489   0.214   4.436
 3919TIP3    H211764   5.407   0.094   4.478
 3920TIP3   OH211765   2.608   0.013   2.402
 3920TIP3    H111766   2.594   0.050   2.315
 3920TIP3    H211767   2.697  -0.022   2.399
 3921TIP3   OH211768   1.841   3.188   2.032
 3921TIP3    H111769   1.798   3.185   2.118
 3921TIP3    H211770   1.845   3.281   2.011
 3922TIP3   OH211771   2.002   2.182   3.458
 3922TIP3    H111772   1.916   2.219   3.477
 3922TIP3    H211773   1.982   2.100   3.413
 3923TIP3   OH211774   3.209   1.958   2.026
 3923TIP3    H111775   3.135   1.994   1.976
 3923TIP3    H211776   3.222   2.021   2.097
 3924TIP3   OH211777   2.962   1.802   4.304
 3924TIP3    H111778   2.923   1.773   4.387
 3924TIP3    H211779   3.036   1.856   4.330
 3925TIP3   OH211780   3.943   5.346   1.999
 3925TIP3    H111781   3.956   5.426   2.051
 3925TIP3    H211782   4.005   5.354   1.927
 3926TIP3   OH211783   4.078   2.708   3.029
 3926TIP3    H111784   4.007   2.692   3.091
 3926TIP3    H211785   4.146   2.646   3.054
 3927TIP3   OH211786   5.911   0.455   3.990
 3927TIP3    H111787   5.823   0.460   4.027
 3927TIP3    H211788   5.919   0.533   3.935
 3928TIP3   OH211789   5.217   4.522   3.420
 3928TIP3    H111790   5.291   4.494   3.474
 3928TIP3    H211791   5.251   4.597   3.371
 3929TIP3   OH211792   4.913   1.362   0.724
 3929TIP3    H111793   4.964   1.298   0.774
 3929TIP3    H211794   4.967   1.441   0.724
 3930TIP3   OH211795   3.752   3.120   3.439
 3930TIP3    H111796   3.813   3.130   3.365
 3930TIP3    H211797   3.803   3.074   3.505
 3931TIP3   OH211798   0.275   0.478   3.052
 3931TIP3    H111799   0.253   0.395   3.009
 3931TIP3    H211800   0.370   0.486   3.041
 3932TIP3   OH211801   5.996   1.236   4.508
 3932TIP3    H111802   5.962   1.294   4.576
 3932TIP3    H211803   5.920   1.213   4.455
 3933TIP3   OH211804   2.282   0.801   2.620
 3933TIP3    H111805   2.251   0.751   2.545
 3933TIP3    H211806   2.227   0.773   2.693
 3934TIP3   OH211807   6.090   4.854   1.767
 3934TIP3    H111808   6.173   4.898   1.783
 3934TIP3    H211809   6.066   4.816   1.851
 3935TIP3   OH211810   1.602   4.150   0.418
 3935TIP3    H111811   1.513   4.116   0.409
 3935TIP3    H211812   1.647   4.085   0.472
 3936TIP3   OH211813   2.688   4.098   3.710
 3936TIP3    H111814   2.632   4.159   3.758
 3936TIP3    H211815   2.722   4.039   3.778
 3937TIP3   OH211816   4.407   4.457   0.796
 3937TIP3    H111817   4.401   4.469   0.701
 3937TIP3    H211818   4.346   4.522   0.832
 3938TIP3   OH211819   1.998   0.803   4.496
 3938TIP3    H111820   2.062   0.771   4.560
 3938TIP3    H211821   1.922   0.827   4.550
 3939TIP3   OH211822   5.652   2.561   2.644
 3939TIP3    H111823   5.724   2.603   2.596
 3939TIP3    H211824   5.578   2.620   2.632
 3940TIP3   OH211825   5.503   5.549   0.175
 3940TIP3    H111826   5.499   5.488   0.248
 3940TIP3    H211827   5.559   5.620   0.207
 3941TIP3   OH211828   1.056   4.873   2.411
 3941TIP3    H111829   1.094   4.794   2.371
 3941TIP3    H211830   1.030   4.927   2.336
 3942TIP3   OH211831   5.402   5.545   4.601
 3942TIP3    H111832   5.438   5.469   4.646
 3942TIP3    H211833   5.441   5.542   4.513
 3943TIP3   OH211834   6.170   1.238   4.222
 3943TIP3    H111835   6.174   1.169   4.155
 3943TIP3    H211836   6.201   1.195   4.302
 3944TIP3   OH211837   2.919   3.105   1.598
 3944TIP3    H111838   2.924   3.194   1.633
 3944TIP3    H211839   2.998   3.097   1.544
 3945TIP3   OH211840   3.132   3.967   0.962
 3945TIP3    H111841   3.064   3.914   0.920
 3945TIP3    H211842   3.089   4.048   0.986
 3946TIP3   OH211843   6.212   2.517   2.451
 3946TIP3    H111844   6.121   2.544   2.459
 3946TIP3    H211845   6.259   2.597   2.426
 3947TIP3   OH211846   3.075   1.785   3.787
 3947TIP3    H111847   3.114   1.873   3.794
 3947TIP3    H211848   3.016   1.779   3.863
 3948TIP3   OH211849   2.483   0.815   1.212
 3948TIP3    H111850   2.424   0.747   1.180
 3948TIP3    H211851   2.561   0.767   1.242
 3949TIP3   OH211852   5.730   0.314   2.401
 3949TIP3    H111853   5.735   0.245   2.467
 3949TIP3    H211854   5.684   0.274   2.327
 3950TIP3   OH211855   4.556   5.314   2.991
 3950TIP3    H111856   4.646   5.282   2.997
 3950TIP3    H211857   4.503   5.242   3.026
 3951TIP3   OH211858   0.532   2.370   0.942
 3951TIP3    H111859   0.542   2.288   0.991
 3951TIP3    H211860   0.615   2.416   0.955
 3952TIP3   OH211861   2.644   0.418   4.675
 3952TIP3    H111862   2.607   0.329   4.679
 3952TIP3    H211863   2.736   0.404   4.652
 3953TIP3   OH211864   4.483   4.530   4.341
 3953TIP3    H111865   4.549   4.494   4.400
 3953TIP3    H211866   4.411   4.466   4.344
 3954TIP3   OH211867   5.190   4.203   0.517
 3954TIP3    H111868   5.199   4.169   0.427
 3954TIP3    H211869   5.222   4.132   0.572
 3955TIP3   OH211870   3.348   3.052   0.318
 3955TIP3    H111871   3.425   3.084   0.366
 3955TIP3    H211872   3.273   3.089   0.365
 3956TIP3   OH211873   0.969   0.043   1.055
 3956TIP3    H111874   1.055   0.074   1.027
 3956TIP3    H211875   0.962  -0.044   1.017
 3957TIP3   OH211876   3.311   5.588   1.884
 3957TIP3    H111877   3.369   5.589   1.808
 3957TIP3    H211878   3.336   5.667   1.933
 3958TIP3   OH211879   1.090   4.850   5.129
 3958TIP3    H111880   1.164   4.818   5.077
 3958TIP3    H211881   1.024   4.875   5.064
 3959TIP3   OH211882   2.158   4.765   0.823
 3959TIP3    H111883   2.245   4.731   0.845
 3959TIP3    H211884   2.176   4.847   0.777
 3960TIP3   OH211885   0.903   4.560   0.557
 3960TIP3    H111886   0.835   4.538   0.493
 3960TIP3    H211887   0.943   4.640   0.523
 3961TIP3   OH211888   5.278   5.004   3.025
 3961TIP3    H111889   5.350   5.015   3.087
 3961TIP3    H211890   5.320   4.994   2.940
 3962TIP3   OH211891   1.702   2.717   1.534
 3962TIP3    H111892   1.747   2.664   1.469
 3962TIP3    H211893   1.771   2.758   1.585
 3963TIP3   OH211894   0.153   2.637   5.115
 3963TIP3    H111895   0.183   2.697   5.047
 3963TIP3    H211896   0.140   2.693   5.192
 3964TIP3   OH211897   0.835   1.460   4.115
 3964TIP3    H111898   0.900   1.478   4.046
 3964TIP3    H211899   0.764   1.414   4.070
 3965TIP3   OH211900   6.193   1.487   3.166
 3965TIP3    H111901   6.150   1.410   3.203
 3965TIP3    H211902   6.214   1.461   3.076
 3966TIP3   OH211903   3.478   3.595   3.216
 3966TIP3    H111904   3.387   3.570   3.232
 3966TIP3    H211905   3.514   3.615   3.302
 3967TIP3   OH211906   0.031   0.829   3.678
 3967TIP3    H111907   0.073   0.860   3.598
 3967TIP3    H211908   0.095   0.846   3.747
 3968TIP3   OH211909   6.069   0.225   1.606
 3968TIP3    H111910   6.114   0.206   1.688
 3968TIP3    H211911   6.005   0.293   1.629
 3969TIP3   OH211912   1.872   0.514   4.614
 3969TIP3    H111913   1.889   0.472   4.698
 3969TIP3    H211914   1.925   0.465   4.551
 3970TIP3   OH211915   0.732   3.334   5.073
 3970TIP3    H111916   0.800   3.296   5.017
 3970TIP3    H211917   0.650   3.298   5.039
 3971TIP3   OH211918   5.093   5.284   5.126
 3971TIP3    H111919   5.084   5.232   5.205
 3971TIP3    H211920   5.039   5.240   5.061
 3972TIP3   OH211921   5.013   3.193   4.530
 3972TIP3    H111922   4.922   3.165   4.533
 3972TIP3    H211923   5.046   3.175   4.618
 3973TIP3   OH211924   3.995   5.400   3.179
 3973TIP3    H111925   3.904   5.412   3.153
 3973TIP3    H211926   3.993   5.409   3.275
 3974TIP3   OH211927   1.852   5.245   4.326
 3974TIP3    H111928   1.881   5.297   4.401
 3974TIP3    H211929   1.774   5.291   4.294
 3975TIP3   OH211930   2.413   0.575   4.065
 3975TIP3    H111931   2.320   0.588   4.049
 3975TIP3    H211932   2.440   0.510   4.000
 3976TIP3   OH211933   3.259   4.894   3.285
 3976TIP3    H111934   3.212   4.976   3.270
 3976TIP3    H211935   3.292   4.870   3.199
 3977TIP3   OH211936   5.893   1.071   1.598
 3977TIP3    H111937   5.965   1.011   1.578
 3977TIP3    H211938   5.858   1.040   1.682
 3978TIP3   OH211939   0.987   3.177   3.694
 3978TIP3    H111940   0.908   3.231   3.683
 3978TIP3    H211941   1.049   3.234   3.738
 3979TIP3   OH211942   5.563   2.299   3.787
 3979TIP3    H111943   5.568   2.274   3.694
 3979TIP3    H211944   5.513   2.380   3.788
 3980TIP3   OH211945   3.793   5.987   1.873
 3980TIP3    H111946   3.838   5.904   1.888
 3980TIP3    H211947   3.803   6.035   1.956
 3981TIP3   OH211948   2.894   0.342   0.340
 3981TIP3    H111949   2.929   0.287   0.410
 3981TIP3    H211950   2.840   0.407   0.385
 3982TIP3   OH211951   1.822   5.742   4.600
 3982TIP3    H111952   1.810   5.770   4.510
 3982TIP3    H211953   1.832   5.824   4.649
 3983TIP3   OH211954   0.346   5.279   4.463
 3983TIP3    H111955   0.305   5.265   4.378
 3983TIP3    H211956   0.437   5.253   4.451
 3984TIP3   OH211957   5.571   2.806   0.779
 3984TIP3    H111958   5.486   2.774   0.811
 3984TIP3    H211959   5.549   2.854   0.699
 3985TIP3   OH211960   3.599   0.074   3.147
 3985TIP3    H111961   3.617   0.159   3.109
 3985TIP3    H211962   3.653   0.013   3.097
 3986TIP3   OH211963   5.243   1.443   4.075
 3986TIP3    H111964   5.153   1.412   4.085
 3986TIP3    H211965   5.277   1.393   4.000
 3987TIP3   OH211966   5.761   4.586   1.295
 3987TIP3    H111967   5.836   4.645   1.301
 3987TIP3    H211968   5.793   4.502   1.328
 3988TIP3   OH211969   0.358   2.454   4.032
 3988TIP3    H111970   0.364   2.529   3.973
 3988TIP3    H211971   0.271   2.417   4.015
 3989TIP3   OH211972   3.384   2.203   0.597
 3989TIP3    H111973   3.298   2.242   0.612
 3989TIP3    H211974   3.442   2.245   0.660
 3990TIP3   OH211975   3.363   0.774   2.027
 3990TIP3    H111976   3.317   0.826   2.093
 3990TIP3    H211977   3.443   0.745   2.071
 3991TIP3   OH211978   4.674   5.921   2.631
 3991TIP3    H111979   4.642   5.832   2.640
 3991TIP3    H211980   4.627   5.971   2.698
 3992TIP3   OH211981   4.842   5.819   2.933
 3992TIP3    H111982   4.887   5.853   2.855
 3992TIP3    H211983   4.841   5.724   2.921
 3993TIP3   OH211984   4.849   3.058   4.244
 3993TIP3    H111985   4.758   3.041   4.222
 3993TIP3    H211986   4.848   3.141   4.290
 3994TIP3   OH211987   6.224   0.236   1.036
 3994TIP3    H111988   6.142   0.253   0.990
 3994TIP3    H211989   6.292   0.250   0.969
 3995TIP3   OH211990   6.063   5.096   5.012
 3995TIP3    H111991   6.020   5.169   5.057
 3995TIP3    H211992   6.153   5.124   5.000
 3996TIP3   OH211993   5.622   0.894   1.312
 3996TIP3    H111994   5.657   0.983   1.307
 3996TIP3    H211995   5.685   0.846   1.366
 3997TIP3   OH211996   1.844   3.354   5.040
 3997TIP3    H111997   1.782   3.426   5.053
 3997TIP3    H211998   1.898   3.382   4.965
 3998TIP3   OH211999   0.271   1.585   3.193
 3998TIP3    H112000   0.183   1.615   3.216
 3998TIP3    H212001   0.257   1.504   3.144
 3999TIP3   OH212002   2.501   0.777   2.828
 3999TIP3    H112003   2.497   0.757   2.921
 3999TIP3    H212004   2.497   0.873   2.823
 4000TIP3   OH212005   4.498   3.440   2.461
 4000TIP3    H112006   4.467   3.349   2.461
 4000TIP3    H212007   4.553   3.446   2.539
 4001TIP3   OH212008   2.391   0.586   0.069
 4001TIP3    H112009   2.367   0.494   0.058
 4001TIP3    H212010   2.399   0.619  -0.021
 4002TIP3   OH212011   4.850   3.294   0.644
 4002TIP3    H112012   4.918   3.269   0.581
 4002TIP3    H212013   4.818   3.210   0.678
 4003TIP3   OH212014   3.651   2.071   1.578
 4003TIP3    H112015   3.620   2.002   1.637
 4003TIP3    H212016   3.586   2.074   1.508
 4004TIP3   OH212017   3.683   1.808   4.012
 4004TIP3    H112018   3.624   1.871   4.053
 4004TIP3    H212019   3.634   1.775   3.937
 4005TIP3   OH212020   5.579   0.097   4.745
 4005TIP3    H112021   5.489   0.067   4.737
 4005TIP3    H212022   5.595   0.147   4.664
 4006TIP3   OH212023   4.464   1.749   3.915
 4006TIP3    H112024   4.553   1.779   3.931
 4006TIP3    H212025   4.470   1.696   3.835
 4007TIP3   OH212026   1.061   3.796   1.091
 4007TIP3    H112027   1.098   3.854   1.025
 4007TIP3    H212028   0.985   3.756   1.048
 4008TIP3   OH212029   4.056   5.950   4.514
 4008TIP3    H112030   4.103   5.967   4.596
 4008TIP3    H212031   3.973   5.996   4.524
 4009TIP3   OH212032   3.593   2.500   1.378
 4009TIP3    H112033   3.509   2.503   1.423
 4009TIP3    H212034   3.579   2.436   1.307
 4010TIP3   OH212035   2.164   5.193   4.678
 4010TIP3    H112036   2.194   5.217   4.765
 4010TIP3    H212037   2.071   5.216   4.677
 4011TIP3   OH212038   5.992   3.313   0.972
 4011TIP3    H112039   6.022   3.223   0.974
 4011TIP3    H212040   6.065   3.362   0.934
 4012TIP3   OH212041   4.562   2.914   4.899
 4012TIP3    H112042   4.657   2.928   4.904
 4012TIP3    H212043   4.548   2.832   4.947
 4013TIP3   OH212044   2.082   3.321   2.750
 4013TIP3    H112045   2.020   3.339   2.819
 4013TIP3    H212046   2.128   3.404   2.735
 4014TIP3   OH212047   1.469   3.221   1.177
 4014TIP3    H112048   1.542   3.233   1.238
 4014TIP3    H212049   1.411   3.158   1.220
 4015TIP3   OH212050   2.779   4.889   3.854
 4015TIP3    H112051   2.856   4.838   3.825
 4015TIP3    H212052   2.742   4.838   3.926
 4016TIP3   OH212053   4.650   1.172   2.098
 4016TIP3    H112054   4.655   1.185   2.004
 4016TIP3    H212055   4.561   1.199   2.121
 4017TIP3   OH212056   4.033   4.419   3.270
 4017TIP3    H112057   4.119   4.420   3.311
 4017TIP3    H212058   3.972   4.406   3.342
 4018TIP3   OH212059   3.649   2.733   4.532
 4018TIP3    H112060   3.712   2.681   4.482
 4018TIP3    H212061   3.690   2.745   4.617
 4019TIP3   OH212062   0.086   2.162   4.332
 4019TIP3    H112063   0.151   2.151   4.263
 4019TIP3    H212064   0.112   2.241   4.379
 4020TIP3   OH212065   4.804   0.716   0.373
 4020TIP3    H112066   4.734   0.657   0.348
 4020TIP3    H212067   4.880   0.685   0.323
 4021TIP3   OH212068   5.719   1.418   1.075
 4021TIP3    H112069   5.722   1.485   1.007
 4021TIP3    H212070   5.809   1.412   1.107
 4022TIP3   OH212071   5.919   1.034   2.802
 4022TIP3    H112072   5.829   1.014   2.826
 4022TIP3    H212073   5.962   1.054   2.886
 4023TIP3   OH212074   4.724   0.144   3.885
 4023TIP3    H112075   4.719   0.065   3.831
 4023TIP3    H212076   4.657   0.202   3.847
 4024TIP3   OH212077   2.566   2.173   0.432
 4024TIP3    H112078   2.484   2.173   0.384
 4024TIP3    H212079   2.549   2.120   0.510
 4025TIP3   OH212080   4.799   0.992   0.723
 4025TIP3    H112081   4.841   0.924   0.775
 4025TIP3    H212082   4.706   0.970   0.724
 4026TIP3   OH212083   5.854   2.871   0.866
 4026TIP3    H112084   5.792   2.806   0.833
 4026TIP3    H212085   5.909   2.823   0.928
 4027TIP3   OH212086   6.142   0.751   4.024
 4027TIP3    H112087   6.113   0.699   4.099
 4027TIP3    H212088   6.142   0.841   4.056
 4028TIP3   OH212089   0.525   2.619   3.193
 4028TIP3    H112090   0.588   2.558   3.155
 4028TIP3    H212091   0.548   2.704   3.154
 4029TIP3   OH212092   0.757   2.437   0.123
 4029TIP3    H112093   0.835   2.384   0.103
 4029TIP3    H212094   0.784   2.492   0.196
 4030TIP3   OH212095   1.461   0.093   0.250
 4030TIP3    H112096   1.542   0.139   0.275
 4030TIP3    H212097   1.400   0.113   0.321
 4031TIP3   OH212098   5.939   0.685   3.846
 4031TIP3    H112099   5.892   0.769   3.849
 4031TIP3    H212100   6.027   0.707   3.877
 4032TIP3   OH212101   2.381   4.766   3.798
 4032TIP3    H112102   2.327   4.818   3.739
 4032TIP3    H212103   2.409   4.828   3.865
 4033TIP3   OH212104   3.336   3.072   0.811
 4033TIP3    H112105   3.368   3.012   0.744
 4033TIP3    H212106   3.256   3.109   0.773
 4034TIP3   OH212107   1.233   1.741   0.584
 4034TIP3    H112108   1.178   1.738   0.506
 4034TIP3    H212109   1.182   1.693   0.650
 4035TIP3   OH212110   0.339   5.197   1.098
 4035TIP3    H112111   0.296   5.281   1.115
 4035TIP3    H212112   0.269   5.140   1.068
 4036TIP3   OH212113   1.240   4.344   5.093
 4036TIP3    H112114   1.311   4.282   5.105
 4036TIP3    H212115   1.214   4.369   5.181
 4037TIP3   OH212116   3.316   5.955   2.438
 4037TIP3    H112117   3.379   5.958   2.510
 4037TIP3    H212118   3.278   5.867   2.443
 4038TIP3   OH212119   2.688   2.670   0.293
 4038TIP3    H112120   2.665   2.683   0.385
 4038TIP3    H212121   2.656   2.582   0.272
 4039TIP3   OH212122   2.246   4.979   4.525
 4039TIP3    H112123   2.237   5.065   4.565
 4039TIP3    H212124   2.209   4.918   4.589
 4040TIP3   OH212125   1.343   2.789   3.866
 4040TIP3    H112126   1.260   2.761   3.827
 4040TIP3    H212127   1.353   2.735   3.944
 4041TIP3   OH212128   2.803   4.419   2.351
 4041TIP3    H112129   2.750   4.498   2.343
 4041TIP3    H212130   2.816   4.390   2.261
 4042TIP3   OH212131   5.920   0.567   1.579
 4042TIP3    H112132   5.957   0.599   1.661
 4042TIP3    H212133   5.995   0.540   1.527
 4043TIP3   OH212134   1.014   4.226   3.151
 4043TIP3    H112135   0.986   4.258   3.065
 4043TIP3    H212136   1.099   4.268   3.166
 4044TIP3   OH212137   1.509   1.689   3.610
 4044TIP3    H112138   1.584   1.708   3.666
 4044TIP3    H212139   1.483   1.773   3.574
 4045TIP3   OH212140   0.191   1.905   0.767
 4045TIP3    H112141   0.103   1.868   0.764
 4045TIP3    H212142   0.235   1.869   0.690
 4046TIP3   OH212143   1.669   1.985   4.276
 4046TIP3    H112144   1.657   1.894   4.302
 4046TIP3    H212145   1.735   2.018   4.337
 4047TIP3   OH212146   2.188   4.770   2.480
 4047TIP3    H112147   2.188   4.679   2.507
 4047TIP3    H212148   2.212   4.767   2.387
 4048TIP3   OH212149   0.896   1.460   4.916
 4048TIP3    H112150   0.964   1.398   4.942
 4048TIP3    H212151   0.827   1.449   4.981
 4049TIP3   OH212152   4.768   0.741   1.267
 4049TIP3    H112153   4.790   0.802   1.196
 4049TIP3    H212154   4.685   0.774   1.302
 4050TIP3   OH212155   2.420   0.768   0.264
 4050TIP3    H112156   2.400   0.849   0.218
 4050TIP3    H212157   2.431   0.703   0.195
 4051TIP3   OH212158   4.922   2.646   4.534
 4051TIP3    H112159   4.983   2.694   4.478
 4051TIP3    H212160   4.948   2.668   4.623
 4052TIP3   OH212161   0.857   1.578   1.100
 4052TIP3    H112162   0.943   1.596   1.062
 4052TIP3    H212163   0.798   1.574   1.025
 4053TIP3   OH212164   2.483   5.225   3.037
 4053TIP3    H112165   2.542   5.160   3.073
 4053TIP3    H212166   2.451   5.187   2.955
 4054TIP3   OH212167   1.615   3.887   1.651
 4054TIP3    H112168   1.643   3.799   1.629
 4054TIP3    H212169   1.696   3.939   1.652
 4055TIP3   OH212170   0.809   1.389   0.191
 4055TIP3    H112171   0.762   1.421   0.268
 4055TIP3    H212172   0.765   1.306   0.169
 4056TIP3   OH212173   1.115   0.746   4.899
 4056TIP3    H112174   1.077   0.689   4.832
 4056TIP3    H212175   1.155   0.818   4.850
 4057TIP3   OH212176   5.284   3.658   4.988
 4057TIP3    H112177   5.322   3.746   4.993
 4057TIP3    H212178   5.229   3.661   4.910
 4058TIP3   OH212179   2.650   3.813   2.409
 4058TIP3    H112180   2.696   3.896   2.421
 4058TIP3    H212181   2.618   3.816   2.319
 4059TIP3   OH212182   0.039   0.648   2.796
 4059TIP3    H112183  -0.027   0.579   2.788
 4059TIP3    H212184   0.121   0.606   2.771
 4060TIP3   OH212185   2.630   0.577   0.822
 4060TIP3    H112186   2.545   0.569   0.779
 4060TIP3    H212187   2.676   0.646   0.773
 4061TIP3   OH212188   6.278   4.746   2.196
 4061TIP3    H112189   6.334   4.798   2.138
 4061TIP3    H212190   6.193   4.790   2.193
 4062TIP3   OH212191   1.463   1.575   0.927
 4062TIP3    H112192   1.451   1.520   0.850
 4062TIP3    H212193   1.539   1.630   0.906
 4063TIP3   OH212194   2.818   4.000   2.937
 4063TIP3    H112195   2.876   3.924   2.942
 4063TIP3    H212196   2.817   4.024   2.845
 4064TIP3   OH212197   0.232   4.396   4.717
 4064TIP3    H112198   0.262   4.332   4.781
 4064TIP3    H212199   0.310   4.446   4.693
 4065TIP3   OH212200   5.456   3.661   0.349
 4065TIP3    H112201   5.466   3.579   0.398
 4065TIP3    H212202   5.518   3.653   0.277
 4066TIP3   OH212203   4.560   5.734   1.653
 4066TIP3    H112204   4.633   5.672   1.654
 4066TIP3    H212205   4.585   5.799   1.587
 4067TIP3   OH212206   4.970   5.565   0.881
 4067TIP3    H112207   4.978   5.580   0.786
 4067TIP3    H212208   4.877   5.574   0.899
 4068TIP3   OH212209   1.093   2.604   1.073
 4068TIP3    H112210   1.161   2.597   1.140
 4068TIP3    H212211   1.123   2.548   1.001
 4069TIP3   OH212212   5.160   2.427   0.752
 4069TIP3    H112213   5.163   2.364   0.680
 4069TIP3    H212214   5.066   2.439   0.769
 4070TIP3   OH212215   3.444   1.253   2.929
 4070TIP3    H112216   3.482   1.207   3.004
 4070TIP3    H212217   3.505   1.236   2.857
 4071TIP3   OH212218   3.626   2.360   4.771
 4071TIP3    H112219   3.567   2.407   4.713
 4071TIP3    H212220   3.611   2.399   4.857
 4072TIP3   OH212221   3.188   4.610   2.806
 4072TIP3    H112222   3.266   4.625   2.859
 4072TIP3    H212223   3.196   4.519   2.777
 4073TIP3   OH212224   5.791   3.358   2.907
 4073TIP3    H112225   5.733   3.382   2.980
 4073TIP3    H212226   5.748   3.282   2.867
 4074TIP3   OH212227   4.982   0.764   3.952
 4074TIP3    H112228   4.942   0.713   4.022
 4074TIP3    H212229   5.051   0.706   3.918
 4075TIP3   OH212230   4.385   1.658   0.303
 4075TIP3    H112231   4.394   1.580   0.247
 4075TIP3    H212232   4.472   1.699   0.302
 4076TIP3   OH212233   5.977   5.102   0.483
 4076TIP3    H112234   5.965   5.141   0.570
 4076TIP3    H212235   5.906   5.038   0.476
 4077TIP3   OH212236   4.042   5.802   0.961
 4077TIP3    H112237   3.976   5.749   0.917
 4077TIP3    H212238   3.992   5.875   0.998
 4078TIP3   OH212239   3.958   3.243   3.683
 4078TIP3    H112240   3.945   3.334   3.656
 4078TIP3    H212241   4.029   3.212   3.627
 4079TIP3   OH212242   4.594   4.087   5.166
 4079TIP3    H112243   4.546   4.004   5.162
 4079TIP3    H212244   4.667   4.070   5.225
 4080TIP3   OH212245   1.408   3.082   1.886
 4080TIP3    H112246   1.312   3.073   1.883
 4080TIP3    H212247   1.425   3.170   1.852
 4081TIP3   OH212248   3.153   2.016   1.384
 4081TIP3    H112249   3.165   2.077   1.310
 4081TIP3    H212250   3.060   1.992   1.380
 4082TIP3   OH212251   1.303   3.236   4.011
 4082TIP3    H112252   1.375   3.175   3.993
 4082TIP3    H212253   1.226   3.179   4.019
 4083TIP3   OH212254   3.607   4.106   4.889
 4083TIP3    H112255   3.592   4.173   4.955
 4083TIP3    H212256   3.533   4.046   4.898
 4084TIP3   OH212257   3.310   0.923   4.934
 4084TIP3    H112258   3.244   0.992   4.930
 4084TIP3    H212259   3.376   0.956   4.995
 4085TIP3   OH212260   2.007   5.151   5.104
 4085TIP3    H112261   2.075   5.092   5.136
 4085TIP3    H212262   1.948   5.164   5.178
 4086TIP3   OH212263   4.582   1.329   1.114
 4086TIP3    H112264   4.648   1.358   1.052
 4086TIP3    H212265   4.524   1.405   1.124
 4087TIP3   OH212266   2.475   4.640   2.014
 4087TIP3    H112267   2.402   4.631   1.953
 4087TIP3    H212268   2.524   4.716   1.982
 4088TIP3   OH212269   0.510   2.901   2.121
 4088TIP3    H112270   0.566   2.952   2.062
 4088TIP3    H212271   0.425   2.944   2.116
 4089TIP3   OH212272   5.576   4.876   4.633
 4089TIP3    H112273   5.565   4.781   4.632
 4089TIP3    H212274   5.519   4.906   4.704
 4090TIP3   OH212275   0.006   1.152   1.427
 4090TIP3    H112276  -0.029   1.081   1.482
 4090TIP3    H212277   0.101   1.134   1.425
 4091TIP3   OH212278   5.150   0.779   2.477
 4091TIP3    H112279   5.090   0.841   2.519
 4091TIP3    H212280   5.154   0.705   2.538
 4092TIP3   OH212281   2.666   1.861   2.241
 4092TIP3    H112282   2.651   1.786   2.298
 4092TIP3    H212283   2.723   1.827   2.171
 4093TIP3   OH212284   0.164   3.637   0.334
 4093TIP3    H112285   0.226   3.566   0.316
 4093TIP3    H212286   0.120   3.611   0.415
 4094TIP3   OH212287   0.253   2.229   3.898
 4094TIP3    H112288   0.175   2.285   3.898
 4094TIP3    H212289   0.258   2.195   3.808
 4095TIP3   OH212290   5.972   0.747   4.856
 4095TIP3    H112291   5.911   0.740   4.929
 4095TIP3    H212292   6.055   0.714   4.890
 4096TIP3   OH212293   4.721   3.269   5.021
 4096TIP3    H112294   4.792   3.300   4.964
 4096TIP3    H212295   4.713   3.336   5.088
 4097TIP3   OH212296   1.053   2.239   1.034
 4097TIP3    H112297   1.072   2.178   1.105
 4097TIP3    H212298   1.134   2.288   1.022
 4098TIP3   OH212299   0.826   0.493   0.275
 4098TIP3    H112300   0.909   0.512   0.232
 4098TIP3    H212301   0.778   0.575   0.275
 4099TIP3   OH212302   3.664   2.786   3.702
 4099TIP3    H112303   3.677   2.847   3.775
 4099TIP3    H212304   3.739   2.727   3.707
 4100TIP3   OH212305   5.335   1.754   0.742
 4100TIP3    H112306   5.301   1.843   0.753
 4100TIP3    H212307   5.414   1.752   0.795
 4101TIP3   OH212308   5.714   0.936   2.571
 4101TIP3    H112309   5.744   0.850   2.601
 4101TIP3    H212310   5.776   0.961   2.502
 4102TIP3   OH212311   1.396   0.914   1.381
 4102TIP3    H112312   1.414   0.952   1.295
 4102TIP3    H212313   1.464   0.949   1.438
 4103TIP3   OH212314   1.729   1.474   1.800
 4103TIP3    H112315   1.695   1.450   1.886
 4103TIP3    H212316   1.824   1.468   1.808
 4104TIP3   OH212317   3.570   3.915   3.384
 4104TIP3    H112318   3.535   3.988   3.332
 4104TIP3    H212319   3.504   3.847   3.377
 4105TIP3   OH212320   1.037   3.051   1.174
 4105TIP3    H112321   1.084   3.030   1.093
 4105TIP3    H212322   0.990   2.971   1.196
 4106TIP3   OH212323   0.195   3.321   0.349
 4106TIP3    H112324   0.226   3.237   0.314
 4106TIP3    H212325   0.113   3.337   0.303
 4107TIP3   OH212326   0.266   2.213   2.679
 4107TIP3    H112327   0.197   2.189   2.617
 4107TIP3    H212328   0.272   2.139   2.739
 4108TIP3   OH212329   2.885   3.884   1.875
 4108TIP3    H112330   2.833   3.833   1.813
 4108TIP3    H212331   2.892   3.828   1.952
 4109TIP3   OH212332   0.816   4.399   2.907
 4109TIP3    H112333   0.840   4.449   2.984
 4109TIP3    H212334   0.731   4.361   2.929
 4110TIP3   OH212335   1.404   1.099   3.914
 4110TIP3    H112336   1.440   1.115   4.001
 4110TIP3    H212337   1.471   1.048   3.869
 4111TIP3   OH212338   0.261   0.230   4.839
 4111TIP3    H112339   0.227   0.257   4.754
 4111TIP3    H212340   0.186   0.236   4.898
 4112TIP3   OH212341   2.766   2.358   0.448
 4112TIP3    H112342   2.735   2.420   0.514
 4112TIP3    H212343   2.687   2.315   0.416
 4113TIP3   OH212344   3.369   5.811   4.504
 4113TIP3    H112345   3.306   5.740   4.517
 4113TIP3    H212346   3.315   5.889   4.490
 4114TIP3   OH212347   3.513   3.203   4.591
 4114TIP3    H112348   3.510   3.291   4.553
 4114TIP3    H212349   3.450   3.206   4.663
 4115TIP3   OH212350   0.663   0.512   1.795
 4115TIP3    H112351   0.746   0.505   1.749
 4115TIP3    H212352   0.602   0.547   1.730
 4116TIP3   OH212353   4.897   4.693   2.196
 4116TIP3    H112354   4.964   4.737   2.248
 4116TIP3    H212355   4.940   4.679   2.111
 4117TIP3   OH212356   4.655   3.477   1.642
 4117TIP3    H112357   4.728   3.489   1.581
 4117TIP3    H212358   4.585   3.533   1.607
 4118TIP3   OH212359   1.198   1.556   4.003
 4118TIP3    H112360   1.266   1.593   3.947
 4118TIP3    H212361   1.209   1.461   3.996
 4119TIP3   OH212362   5.899   2.911   2.279
 4119TIP3    H112363   5.854   2.871   2.205
 4119TIP3    H212364   5.991   2.886   2.268
 4120TIP3   OH212365   4.522   2.687   0.873
 4120TIP3    H112366   4.511   2.730   0.958
 4120TIP3    H212367   4.497   2.596   0.888
 4121TIP3   OH212368   1.376   2.929   4.319
 4121TIP3    H112369   1.292   2.883   4.324
 4121TIP3    H212370   1.370   2.995   4.388
 4122TIP3   OH212371   3.839   4.654   2.602
 4122TIP3    H112372   3.822   4.715   2.530
 4122TIP3    H212373   3.929   4.625   2.588
 4123TIP3   OH212374   2.940   2.453   3.423
 4123TIP3    H112375   2.970   2.475   3.512
 4123TIP3    H212376   2.940   2.358   3.420
 4124TIP3   OH212377   5.142   3.116   4.777
 4124TIP3    H112378   5.089   3.110   4.856
 4124TIP3    H212379   5.203   3.187   4.794
 4125TIP3   OH212380   3.322   4.744   1.931
 4125TIP3    H112381   3.325   4.836   1.905
 4125TIP3    H212382   3.246   4.709   1.885
 4126TIP3   OH212383   5.489   4.232   1.832
 4126TIP3    H112384   5.546   4.159   1.857
 4126TIP3    H212385   5.480   4.283   1.913
 4127TIP3   OH212386   0.225   3.136   1.244
 4127TIP3    H112387   0.133   3.153   1.260
 4127TIP3    H212388   0.228   3.045   1.213
 4128TIP3   OH212389   5.123   5.200   3.422
 4128TIP3    H112390   5.161   5.162   3.501
 4128TIP3    H212391   5.070   5.130   3.384
 4129TIP3   OH212392   3.687   1.059   0.730
 4129TIP3    H112393   3.665   1.075   0.822
 4129TIP3    H212394   3.755   1.124   0.711
 4130TIP3   OH212395   5.483   5.218   3.653
 4130TIP3    H112396   5.407   5.171   3.686
 4130TIP3    H212397   5.501   5.178   3.568
 4131TIP3   OH212398   4.498   2.616   4.788
 4131TIP3    H112399   4.540   2.674   4.726
 4131TIP3    H212400   4.507   2.529   4.750
 4132TIP3   OH212401   2.270   1.730   1.478
 4132TIP3    H112402   2.314   1.652   1.444
 4132TIP3    H212403   2.234   1.702   1.562
 4133TIP3   OH212404   3.762   4.345   0.216
 4133TIP3    H112405   3.763   4.440   0.212
 4133TIP3    H212406   3.782   4.324   0.307
 4134TIP3   OH212407   5.621   4.628   0.212
 4134TIP3    H112408   5.551   4.563   0.205
 4134TIP3    H212409   5.668   4.604   0.292
 4135TIP3   OH212410   0.518   3.631   0.036
 4135TIP3    H112411   0.499   3.599   0.125
 4135TIP3    H212412   0.612   3.621   0.027
 4136TIP3   OH212413   3.393   1.752   4.432
 4136TIP3    H112414   3.473   1.699   4.439
 4136TIP3    H212415   3.371   1.775   4.522
 4137TIP3   OH212416   3.325   3.450   2.407
 4137TIP3    H112417   3.341   3.494   2.490
 4137TIP3    H212418   3.237   3.414   2.415
 4138TIP3   OH212419   6.176   3.495   4.260
 4138TIP3    H112420   6.250   3.530   4.210
 4138TIP3    H212421   6.170   3.404   4.231
 4139TIP3   OH212422   0.681   0.422   4.548
 4139TIP3    H112423   0.608   0.396   4.492
 4139TIP3    H212424   0.729   0.341   4.565
 4140TIP3   OH212425   4.286   0.847   1.117
 4140TIP3    H112426   4.242   0.930   1.100
 4140TIP3    H212427   4.299   0.846   1.212
 4141TIP3   OH212428   4.069   1.233   2.865
 4141TIP3    H112429   3.976   1.250   2.881
 4141TIP3    H212430   4.092   1.291   2.793
 4142TIP3   OH212431   1.643   1.725   2.199
 4142TIP3    H112432   1.619   1.713   2.291
 4142TIP3    H212433   1.719   1.784   2.202
 4143TIP3   OH212434   2.913   0.323   3.434
 4143TIP3    H112435   2.956   0.315   3.520
 4143TIP3    H212436   2.867   0.240   3.422
 4144TIP3   OH212437   4.590   3.090   4.196
 4144TIP3    H112438   4.560   3.135   4.117
 4144TIP3    H212439   4.548   3.139   4.268
 4145TIP3   OH212440   2.163   0.886   0.941
 4145TIP3    H112441   2.088   0.904   0.884
 4145TIP3    H212442   2.161   0.791   0.953
 4146TIP3   OH212443   5.074   1.699   3.090
 4146TIP3    H112444   5.139   1.629   3.090
 4146TIP3    H212445   4.990   1.654   3.099
 4147TIP3   OH212446   3.651   0.742   1.227
 4147TIP3    H112447   3.634   0.648   1.236
 4147TIP3    H212448   3.746   0.750   1.237
 4148TIP3   OH212449   2.960   5.470   1.562
 4148TIP3    H112450   3.008   5.525   1.624
 4148TIP3    H212451   3.004   5.386   1.565
 4149TIP3   OH212452   2.987   0.443   1.609
 4149TIP3    H112453   2.920   0.432   1.542
 4149TIP3    H212454   3.017   0.533   1.599
 4150TIP3   OH212455   2.077   2.439   1.164
 4150TIP3    H112456   1.988   2.445   1.130
 4150TIP3    H212457   2.067   2.444   1.259
 4151TIP3   OH212458   5.898   5.694   4.099
 4151TIP3    H112459   5.982   5.654   4.122
 4151TIP3    H212460   5.833   5.638   4.142
 4152TIP3   OH212461   1.119   4.595   3.209
 4152TIP3    H112462   1.161   4.592   3.295
 4152TIP3    H212463   1.181   4.554   3.150
 4153TIP3   OH212464   1.584   4.820   2.234
 4153TIP3    H112465   1.538   4.904   2.245
 4153TIP3    H212466   1.617   4.823   2.144
 4154TIP3   OH212467   4.891   2.951   3.284
 4154TIP3    H112468   4.929   3.024   3.332
 4154TIP3    H212469   4.820   2.990   3.233
 4155TIP3   OH212470   2.709   5.510   1.723
 4155TIP3    H112471   2.785   5.481   1.672
 4155TIP3    H212472   2.641   5.525   1.658
 4156TIP3   OH212473   3.863   3.981   2.507
 4156TIP3    H112474   3.947   4.010   2.544
 4156TIP3    H212475   3.820   4.062   2.480
 4157TIP3   OH212476   0.908   2.448   4.124
 4157TIP3    H112477   0.907   2.400   4.207
 4157TIP3    H212478   0.817   2.445   4.094
 4158TIP3   OH212479   3.592   0.450   1.237
 4158TIP3    H112480   3.578   0.360   1.269
 4158TIP3    H212481   3.564   0.448   1.146
 4159TIP3   OH212482   2.211   5.848   4.699
 4159TIP3    H112483   2.226   5.848   4.794
 4159TIP3    H212484   2.244   5.933   4.670
 4160TIP3   OH212485   1.376   4.393   3.795
 4160TIP3    H112486   1.411   4.320   3.744
 4160TIP3    H212487   1.281   4.386   3.784
 4161TIP3   OH212488   4.486   1.775   3.484
 4161TIP3    H112489   4.548   1.790   3.412
 4161TIP3    H212490   4.477   1.680   3.488
 4162TIP3   OH212491   1.028   0.593   3.437
 4162TIP3    H112492   1.090   0.613   3.507
 4162TIP3    H212493   1.079   0.601   3.356
 4163TIP3   OH212494   0.956   0.592   1.753
 4163TIP3    H112495   0.985   0.540   1.678
 4163TIP3    H212496   1.033   0.598   1.809
 4164TIP3   OH212497   3.823   4.995   1.600
 4164TIP3    H112498   3.866   5.077   1.573
 4164TIP3    H212499   3.880   4.926   1.566
 4165TIP3   OH212500   5.415   0.354   2.481
 4165TIP3    H112501   5.362   0.274   2.475
 4165TIP3    H212502   5.427   0.381   2.390
 4166TIP3   OH212503   2.495   3.305   2.138
 4166TIP3    H112504   2.540   3.334   2.059
 4166TIP3    H212505   2.432   3.374   2.157
 4167TIP3   OH212506   3.934   1.510   2.396
 4167TIP3    H112507   3.989   1.583   2.366
 4167TIP3    H212508   3.992   1.434   2.394
 4168TIP3   OH212509   4.073   4.181   2.039
 4168TIP3    H112510   4.137   4.147   1.976
 4168TIP3    H212511   4.098   4.142   2.123
 4169TIP3   OH212512   0.489   3.779   5.003
 4169TIP3    H112513   0.492   3.850   4.939
 4169TIP3    H212514   0.570   3.791   5.054
 4170TIP3   OH212515   0.196   1.412   0.964
 4170TIP3    H112516   0.237   1.496   0.941
 4170TIP3    H212517   0.223   1.397   1.054
 4171TIP3   OH212518   3.722   1.019   1.643
 4171TIP3    H112519   3.814   1.015   1.669
 4171TIP3    H212520   3.686   0.935   1.670
 4172TIP3   OH212521   4.757   4.374   3.803
 4172TIP3    H112522   4.726   4.333   3.722
 4172TIP3    H212523   4.842   4.332   3.820
 4173TIP3   OH212524  -0.010   0.805   1.777
 4173TIP3    H112525  -0.018   0.764   1.863
 4173TIP3    H212526   0.078   0.779   1.747
 4174TIP3   OH212527   2.749   4.087   4.239
 4174TIP3    H112528   2.785   4.133   4.163
 4174TIP3    H212529   2.826   4.064   4.291
 4175TIP3   OH212530   4.667   1.097   0.128
 4175TIP3    H112531   4.651   1.086   0.034
 4175TIP3    H212532   4.591   1.057   0.170
 4176TIP3   OH212533   2.325   2.701   5.029
 4176TIP3    H112534   2.364   2.776   4.985
 4176TIP3    H212535   2.396   2.663   5.080
 4177TIP3   OH212536   1.747   5.488   4.895
 4177TIP3    H112537   1.745   5.402   4.937
 4177TIP3    H212538   1.785   5.546   4.960
 4178TIP3   OH212539   4.918   0.814   1.713
 4178TIP3    H112540   4.889   0.750   1.648
 4178TIP3    H212541   4.935   0.762   1.792
 4179TIP3   OH212542   5.803   2.224   1.499
 4179TIP3    H112543   5.765   2.243   1.585
 4179TIP3    H212544   5.753   2.280   1.439
 4180TIP3   OH212545   1.551   5.801   0.118
 4180TIP3    H112546   1.510   5.794   0.205
 4180TIP3    H212547   1.519   5.725   0.071
 4181TIP3   OH212548   0.771   3.608   0.176
 4181TIP3    H112549   0.756   3.687   0.228
 4181TIP3    H212550   0.794   3.541   0.241
 4182TIP3   OH212551   2.648   1.832   1.700
 4182TIP3    H112552   2.718   1.804   1.760
 4182TIP3    H212553   2.574   1.851   1.758
 4183TIP3   OH212554   4.367   3.843   0.773
 4183TIP3    H112555   4.366   3.774   0.841
 4183TIP3    H212556   4.366   3.925   0.823
 4184TIP3   OH212557   3.126   0.332   4.055
 4184TIP3    H112558   3.083   0.256   4.017
 4184TIP3    H212559   3.074   0.407   4.026
 4185TIP3   OH212560   2.908   2.386   4.733
 4185TIP3    H112561   2.977   2.322   4.715
 4185TIP3    H212562   2.894   2.378   4.828
 4186TIP3   OH212563   6.208   2.316   4.077
 4186TIP3    H112564   6.147   2.378   4.118
 4186TIP3    H212565   6.201   2.237   4.131
 4187TIP3   OH212566   1.918   4.939   4.807
 4187TIP3    H112567   1.911   5.029   4.777
 4187TIP3    H212568   1.833   4.900   4.784
 4188TIP3   OH212569   1.302   2.521   3.720
 4188TIP3    H112570   1.283   2.428   3.731
 4188TIP3    H212571   1.342   2.528   3.633
 4189TIP3   OH212572   6.287   0.841   2.939
 4189TIP3    H112573   6.293   0.801   3.026
 4189TIP3    H212574   6.326   0.776   2.881
 4190TIP3   OH212575   1.512   4.301   4.042
 4190TIP3    H112576   1.595   4.332   4.006
 4190TIP3    H212577   1.445   4.346   3.991
 4191TIP3   OH212578   5.947   3.088   1.280
 4191TIP3    H112579   5.969   3.112   1.190
 4191TIP3    H212580   5.869   3.140   1.300
 4192TIP3   OH212581   1.694   2.896   0.060
 4192TIP3    H112582   1.758   2.889   0.131
 4192TIP3    H212583   1.745   2.881  -0.019
 4193TIP3   OH212584   5.563   0.529   3.093
 4193TIP3    H112585   5.525   0.442   3.096
 4193TIP3    H212586   5.578   0.546   3.000
 4194TIP3   OH212587   2.583   1.052   1.797
 4194TIP3    H112588   2.590   1.082   1.888
 4194TIP3    H212589   2.514   0.987   1.798
 4195TIP3   OH212590   3.050   4.468   3.111
 4195TIP3    H112591   2.966   4.436   3.079
 4195TIP3    H212592   3.027   4.525   3.185
 4196TIP3   OH212593   2.237   3.523   3.769
 4196TIP3    H112594   2.221   3.490   3.857
 4196TIP3    H212595   2.332   3.520   3.759
 4197TIP3   OH212596   0.188   0.743   1.060
 4197TIP3    H112597   0.276   0.773   1.038
 4197TIP3    H212598   0.195   0.648   1.066
 4198TIP3   OH212599   0.219   4.933   3.797
 4198TIP3    H112600   0.129   4.947   3.769
 4198TIP3    H212601   0.246   4.854   3.751
 4199TIP3   OH212602   3.010   0.276   3.716
 4199TIP3    H112603   3.084   0.332   3.691
 4199TIP3    H212604   3.051   0.198   3.754
 4200TIP3   OH212605   4.852   2.360   3.250
 4200TIP3    H112606   4.947   2.357   3.232
 4200TIP3    H212607   4.818   2.422   3.186
 4201TIP3   OH212608   0.143   3.495   0.974
 4201TIP3    H112609   0.143   3.522   0.882
 4201TIP3    H212610   0.222   3.443   0.984
 4202TIP3   OH212611   1.233   1.746   3.299
 4202TIP3    H112612   1.321   1.713   3.322
 4202TIP3    H212613   1.226   1.829   3.346
 4203TIP3   OH212614   3.809   2.535   4.415
 4203TIP3    H112615   3.753   2.487   4.354
 4203TIP3    H212616   3.898   2.520   4.383
 4204TIP3   OH212617   6.244   2.820   2.632
 4204TIP3    H112618   6.289   2.753   2.683
 4204TIP3    H212619   6.169   2.845   2.687
 4205TIP3   OH212620   4.295   4.113   0.044
 4205TIP3    H112621   4.384   4.139   0.068
 4205TIP3    H212622   4.239   4.173   0.092
 4206TIP3   OH212623   2.220   1.993   2.546
 4206TIP3    H112624   2.289   1.941   2.504
 4206TIP3    H212625   2.143   1.937   2.542
 4207TIP3   OH212626   1.101   4.323   3.820
 4207TIP3    H112627   1.152   4.294   3.896
 4207TIP3    H212628   1.052   4.245   3.793
 4208TIP3   OH212629   1.681   5.324   3.631
 4208TIP3    H112630   1.698   5.239   3.672
 4208TIP3    H212631   1.742   5.328   3.558
 4209TIP3   OH212632   1.743   0.740   2.339
 4209TIP3    H112633   1.791   0.816   2.306
 4209TIP3    H212634   1.802   0.666   2.323
 4210TIP3   OH212635   3.326   0.364   2.731
 4210TIP3    H112636   3.237   0.398   2.739
 4210TIP3    H212637   3.314   0.272   2.708
 4211TIP3   OH212638   1.978   4.042   4.150
 4211TIP3    H112639   1.930   3.960   4.161
 4211TIP3    H212640   1.983   4.079   4.239
 4212TIP3   OH212641   3.599   5.445   0.576
 4212TIP3    H112642   3.687   5.464   0.542
 4212TIP3    H212643   3.589   5.503   0.651
 4213TIP3   OH212644   3.209   4.703   5.043
 4213TIP3    H112645   3.295   4.732   5.012
 4213TIP3    H212646   3.155   4.697   4.964
 4214TIP3   OH212647   2.092   0.373   0.532
 4214TIP3    H112648   1.999   0.354   0.516
 4214TIP3    H212649   2.120   0.423   0.455
 4215TIP3   OH212650   0.742   2.853   1.737
 4215TIP3    H112651   0.696   2.916   1.793
 4215TIP3    H212652   0.800   2.907   1.683
 4216TIP3   OH212653   0.972   4.994   4.196
 4216TIP3    H112654   0.923   4.923   4.236
 4216TIP3    H212655   0.905   5.053   4.161
 4217TIP3   OH212656   0.000   1.894   3.967
 4217TIP3    H112657  -0.004   1.822   4.029
 4217TIP3    H212658   0.030   1.969   4.018
 4218TIP3   OH212659   3.865   2.688   4.988
 4218TIP3    H112660   3.823   2.709   5.072
 4218TIP3    H212661   3.950   2.652   5.012
 4219TIP3   OH212662   1.993   2.302   4.265
 4219TIP3    H112663   2.030   2.290   4.178
 4219TIP3    H212664   1.898   2.298   4.252
 4220TIP3   OH212665   3.770   1.438   3.867
 4220TIP3    H112666   3.779   1.350   3.904
 4220TIP3    H212667   3.681   1.439   3.831
 4221TIP3   OH212668   4.689   1.381   0.151
 4221TIP3    H112669   4.631   1.309   0.129
 4221TIP3    H212670   4.738   1.350   0.227
 4222TIP3   OH212671   4.182   2.821   0.883
 4222TIP3    H112672   4.178   2.884   0.955
 4222TIP3    H212673   4.197   2.737   0.926
 4223TIP3   OH212674   0.208   2.172   3.615
 4223TIP3    H112675   0.124   2.163   3.570
 4223TIP3    H212676   0.243   2.082   3.619
 4224TIP3   OH212677   0.585   1.295   4.349
 4224TIP3    H112678   0.511   1.251   4.306
 4224TIP3    H212679   0.578   1.386   4.321
 4225TIP3   OH212680   4.375   0.345   0.610
 4225TIP3    H112681   4.358   0.251   0.610
 4225TIP3    H212682   4.471   0.352   0.606
 4226TIP3   OH212683   4.501   4.912   2.226
 4226TIP3    H112684   4.426   4.852   2.231
 4226TIP3    H212685   4.558   4.884   2.298
 4227TIP3   OH212686   0.214   0.239   2.572
 4227TIP3    H112687   0.158   0.280   2.507
 4227TIP3    H212688   0.210   0.145   2.551
 4228TIP3   OH212689   4.136   5.354   1.328
 4228TIP3    H112690   4.150   5.323   1.239
 4228TIP3    H212691   4.213   5.409   1.346
 4229TIP3   OH212692   4.633   1.223   2.864
 4229TIP3    H112693   4.601   1.132   2.861
 4229TIP3    H212694   4.660   1.235   2.955
 4230TIP3   OH212695   0.768   2.521   2.052
 4230TIP3    H112696   0.687   2.511   2.003
 4230TIP3    H212697   0.808   2.601   2.016
 4231TIP3   OH212698   6.092   0.841   1.586
 4231TIP3    H112699   6.083   0.848   1.491
 4231TIP3    H212700   6.167   0.784   1.599
 4232TIP3   OH212701   5.281   0.959   2.852
 4232TIP3    H112702   5.366   0.928   2.820
 4232TIP3    H212703   5.271   1.046   2.814
 4233TIP3   OH212704   5.438   4.378   2.071
 4233TIP3    H112705   5.387   4.436   2.128
 4233TIP3    H212706   5.424   4.291   2.108
 4234TIP3   OH212707   4.401   1.111   3.753
 4234TIP3    H112708   4.493   1.138   3.742
 4234TIP3    H212709   4.350   1.187   3.726
 4235TIP3   OH212710   3.022   1.336   1.742
 4235TIP3    H112711   3.101   1.318   1.693
 4235TIP3    H212712   2.963   1.263   1.721
 4236TIP3   OH212713   5.192   5.285   0.726
 4236TIP3    H112714   5.268   5.259   0.673
 4236TIP3    H212715   5.117   5.253   0.675
 4237TIP3   OH212716   3.486   5.399   1.157
 4237TIP3    H112717   3.564   5.353   1.187
 4237TIP3    H212718   3.519   5.474   1.107
 4238TIP3   OH212719   2.881   1.455   3.683
 4238TIP3    H112720   2.962   1.477   3.637
 4238TIP3    H212721   2.811   1.491   3.628
 4239TIP3   OH212722   5.257   2.209   2.758
 4239TIP3    H112723   5.171   2.196   2.799
 4239TIP3    H212724   5.283   2.123   2.727
 4240TIP3   OH212725   3.413   2.145   1.861
 4240TIP3    H112726   3.329   2.100   1.851
 4240TIP3    H212727   3.479   2.077   1.848
 4241TIP3   OH212728   1.544   4.507   1.016
 4241TIP3    H112729   1.463   4.459   1.034
 4241TIP3    H212730   1.607   4.470   1.078
 4242TIP3   OH212731   2.946   5.183   4.799
 4242TIP3    H112732   3.006   5.172   4.872
 4242TIP3    H212733   3.002   5.207   4.725
 4243TIP3   OH212734   3.898   1.150   5.007
 4243TIP3    H112735   3.863   1.197   5.083
 4243TIP3    H212736   3.917   1.062   5.039
 4244TIP3   OH212737   5.616   4.058   3.743
 4244TIP3    H112738   5.641   4.035   3.654
 4244TIP3    H212739   5.604   3.973   3.787
 4245TIP3   OH212740   5.194   3.418   1.987
 4245TIP3    H112741   5.226   3.413   2.077
 4245TIP3    H212742   5.134   3.344   1.978
 4246TIP3   OH212743   5.752   4.984   0.127
 4246TIP3    H112744   5.714   4.912   0.177
 4246TIP3    H212745   5.740   5.061   0.183
 4247TIP3   OH212746   5.329   4.499   4.026
 4247TIP3    H112747   5.369   4.532   4.106
 4247TIP3    H212748   5.399   4.501   3.961
 4248TIP3   OH212749   5.362   0.158   2.234
 4248TIP3    H112750   5.452   0.162   2.203
 4248TIP3    H212751   5.364   0.097   2.307
 4249TIP3   OH212752   6.149   3.927   2.813
 4249TIP3    H112753   6.080   3.994   2.822
 4249TIP3    H212754   6.160   3.892   2.902
 4250TIP3   OH212755   0.220   2.670   1.326
 4250TIP3    H112756   0.182   2.622   1.252
 4250TIP3    H212757   0.208   2.613   1.401
 4251TIP3   OH212758   6.058   4.679   0.042
 4251TIP3    H112759   6.018   4.762   0.014
 4251TIP3    H212760   5.984   4.626   0.072
 4252TIP3   OH212761   1.232   0.431   2.878
 4252TIP3    H112762   1.149   0.456   2.920
 4252TIP3    H212763   1.231   0.477   2.794
 4253TIP3   OH212764   5.405   3.289   1.352
 4253TIP3    H112765   5.363   3.207   1.327
 4253TIP3    H212766   5.363   3.355   1.297
 4254TIP3   OH212767   0.188   2.409   4.985
 4254TIP3    H112768   0.117   2.372   4.933
 4254TIP3    H212769   0.157   2.497   5.009
 4255TIP3   OH212770   6.300   3.508   2.230
 4255TIP3    H112771   6.266   3.597   2.233
 4255TIP3    H212772   6.262   3.471   2.150
 4256TIP3   OH212773   2.278   4.360   4.343
 4256TIP3    H112774   2.232   4.277   4.350
 4256TIP3    H212775   2.324   4.356   4.259
 4257TIP3   OH212776   4.853   5.147   4.743
 4257TIP3    H112777   4.888   5.235   4.726
 4257TIP3    H212778   4.762   5.151   4.714
 4258TIP3   OH212779   3.286   2.195   2.946
 4258TIP3    H112780   3.369   2.240   2.931
 4258TIP3    H212781   3.235   2.211   2.867
 4259TIP3   OH212782   0.164   0.104   4.232
 4259TIP3    H112783   0.154   0.072   4.322
 4259TIP3    H212784   0.149   0.198   4.237
 4260TIP3   OH212785   5.588   1.424   0.281
 4260TIP3    H112786   5.572   1.470   0.363
 4260TIP3    H212787   5.657   1.475   0.238
 4261TIP3   OH212788   3.237   2.531   2.943
 4261TIP3    H112789   3.320   2.486   2.930
 4261TIP3    H212790   3.224   2.583   2.864
 4262TIP3   OH212791   3.343   3.288   2.864
 4262TIP3    H112792   3.301   3.202   2.860
 4262TIP3    H212793   3.357   3.304   2.958
 4263TIP3   OH212794   6.015   4.046   4.174
 4263TIP3    H112795   6.031   4.132   4.214
 4263TIP3    H212796   5.926   4.051   4.139
 4264TIP3   OH212797   0.421   5.979   5.028
 4264TIP3    H112798   0.436   5.967   5.121
 4264TIP3    H212799   0.327   5.966   5.016
 4265TIP3   OH212800   5.584   0.071   2.965
 4265TIP3    H112801   5.496   0.099   2.939
 4265TIP3    H212802   5.621   0.146   3.010
 4266TIP3   OH212803   5.140   4.743   2.990
 4266TIP3    H112804   5.097   4.659   3.008
 4266TIP3    H212805   5.202   4.754   3.062
 4267TIP3   OH212806   3.161   2.706   1.530
 4267TIP3    H112807   3.181   2.616   1.557
 4267TIP3    H212808   3.218   2.760   1.584
 4268TIP3   OH212809   3.789   5.459   2.290
 4268TIP3    H112810   3.712   5.515   2.298
 4268TIP3    H212811   3.843   5.482   2.366
 4269TIP3   OH212812   3.122   5.002   5.205
 4269TIP3    H112813   3.062   4.953   5.261
 4269TIP3    H212814   3.201   5.013   5.259
 4270TIP3   OH212815   5.772   1.992   3.508
 4270TIP3    H112816   5.804   2.017   3.594
 4270TIP3    H212817   5.826   1.917   3.483
 4271TIP3   OH212818   5.174   1.552   2.206
 4271TIP3    H112819   5.205   1.470   2.245
 4271TIP3    H212820   5.078   1.545   2.211
 4272TIP3   OH212821   3.956   4.371   1.654
 4272TIP3    H112822   3.919   4.444   1.604
 4272TIP3    H212823   3.940   4.395   1.745
 4273TIP3   OH212824   0.038   5.220   3.968
 4273TIP3    H112825   0.021   5.274   3.891
 4273TIP3    H212826   0.086   5.144   3.933
 4274TIP3   OH212827   1.580   3.664   0.626
 4274TIP3    H112828   1.563   3.611   0.703
 4274TIP3    H212829   1.609   3.602   0.559
 4275TIP3   OH212830   6.154   5.455   4.540
 4275TIP3    H112831   6.172   5.423   4.629
 4275TIP3    H212832   6.240   5.477   4.505
 4276TIP3   OH212833   3.022   2.120   0.912
 4276TIP3    H112834   3.070   2.156   0.838
 4276TIP3    H212835   2.996   2.032   0.883
 4277TIP3   OH212836   4.891   3.113   0.946
 4277TIP3    H112837   4.850   3.194   0.976
 4277TIP3    H212838   4.985   3.134   0.941
 4278TIP3   OH212839   5.142   2.950   3.632
 4278TIP3    H112840   5.217   2.899   3.600
 4278TIP3    H212841   5.171   2.982   3.718
 4279TIP3   OH212842   0.956   4.035   2.153
 4279TIP3    H112843   1.007   4.064   2.077
 4279TIP3    H212844   1.022   4.020   2.221
 4280TIP3   OH212845   1.440   4.108   2.112
 4280TIP3    H112846   1.487   4.060   2.181
 4280TIP3    H212847   1.467   4.199   2.123
 4281TIP3   OH212848   4.979   5.208   2.592
 4281TIP3    H112849   5.000   5.115   2.594
 4281TIP3    H212850   4.996   5.239   2.681
 4282TIP3   OH212851   4.111   2.716   2.131
 4282TIP3    H112852   4.160   2.773   2.072
 4282TIP3    H212853   4.096   2.768   2.209
 4283TIP3   OH212854   2.631   1.011   0.499
 4283TIP3    H112855   2.718   0.988   0.465
 4283TIP3    H212856   2.581   0.929   0.493
 4284TIP3   OH212857   0.294   0.446   2.738
 4284TIP3    H112858   0.327   0.533   2.713
 4284TIP3    H212859   0.308   0.392   2.661
 4285TIP3   OH212860   2.029   5.585   2.542
 4285TIP3    H112861   2.097   5.652   2.535
 4285TIP3    H212862   1.983   5.588   2.458
 4286TIP3   OH212863   5.607   0.695   4.749
 4286TIP3    H112864   5.629   0.787   4.763
 4286TIP3    H212865   5.623   0.681   4.656
 4287TIP3   OH212866   1.355   2.606   1.207
 4287TIP3    H112867   1.380   2.672   1.271
 4287TIP3    H212868   1.433   2.596   1.152
 4288TIP3   OH212869   3.121   3.335   0.120
 4288TIP3    H112870   3.075   3.320   0.037
 4288TIP3    H212871   3.164   3.420   0.108
 4289TIP3   OH212872   2.340   5.043   0.273
 4289TIP3    H112873   2.372   4.963   0.231
 4289TIP3    H212874   2.352   5.027   0.367
 4290TIP3   OH212875   0.451   4.308   4.038
 4290TIP3    H112876   0.439   4.225   3.990
 4290TIP3    H212877   0.448   4.283   4.130
 4291TIP3   OH212878   2.953   2.092   0.560
 4291TIP3    H112879   2.894   2.045   0.501
 4291TIP3    H212880   3.025   2.030   0.576
 4292TIP3   OH212881   4.627   0.219   1.744
 4292TIP3    H112882   4.642   0.191   1.834
 4292TIP3    H212883   4.613   0.137   1.696
 4293TIP3   OH212884   0.483   1.772   1.658
 4293TIP3    H112885   0.440   1.828   1.723
 4293TIP3    H212886   0.461   1.683   1.686
 4294TIP3   OH212887   2.064   4.988   1.183
 4294TIP3    H112888   2.097   5.072   1.214
 4294TIP3    H212889   2.111   4.923   1.236
 4295TIP3   OH212890   4.361   0.391   4.398
 4295TIP3    H112891   4.415   0.464   4.368
 4295TIP3    H212892   4.366   0.326   4.329
 4296TIP3   OH212893   0.073   0.943   2.676
 4296TIP3    H112894   0.042   0.934   2.586
 4296TIP3    H212895   0.103   0.855   2.699
 4297TIP3   OH212896   4.248   4.279   1.333
 4297TIP3    H112897   4.289   4.268   1.247
 4297TIP3    H212898   4.241   4.190   1.368
 4298TIP3   OH212899   4.034   1.286   2.551
 4298TIP3    H112900   3.943   1.271   2.578
 4298TIP3    H212901   4.058   1.208   2.502
 4299TIP3   OH212902   1.724   4.847   3.423
 4299TIP3    H112903   1.755   4.862   3.512
 4299TIP3    H212904   1.715   4.752   3.416
 4300TIP3   OH212905   4.690   0.363   3.469
 4300TIP3    H112906   4.635   0.323   3.537
 4300TIP3    H212907   4.668   0.456   3.473
 4301TIP3   OH212908   5.945   3.536   4.713
 4301TIP3    H112909   5.992   3.542   4.630
 4301TIP3    H212910   5.912   3.446   4.716
 4302TIP3   OH212911   1.803   1.650   0.323
 4302TIP3    H112912   1.832   1.559   0.315
 4302TIP3    H212913   1.875   1.701   0.286
 4303TIP3   OH212914   5.181   4.511   0.915
 4303TIP3    H112915   5.262   4.530   0.867
 4303TIP3    H212916   5.172   4.416   0.909
 4304TIP3   OH212917   0.628   1.611   0.908
 4304TIP3    H112918   0.686   1.682   0.880
 4304TIP3    H212919   0.544   1.630   0.866
 4305TIP3   OH212920   5.795   3.138   3.292
 4305TIP3    H112921   5.741   3.181   3.359
 4305TIP3    H212922   5.829   3.060   3.335
 4306TIP3   OH212923   3.057   0.599   0.820
 4306TIP3    H112924   3.000   0.557   0.756
 4306TIP3    H212925   3.134   0.543   0.824
 4307TIP3   OH212926   5.039   4.748   1.326
 4307TIP3    H112927   5.059   4.661   1.360
 4307TIP3    H212928   5.071   4.747   1.236
 4308TIP3   OH212929   1.890   5.621   2.290
 4308TIP3    H112930   1.802   5.587   2.301
 4308TIP3    H212931   1.884   5.713   2.317
 4309TIP3   OH212932   5.366   2.566   1.556
 4309TIP3    H112933   5.456   2.534   1.556
 4309TIP3    H212934   5.313   2.490   1.576
 4310TIP3   OH212935   5.083   4.347   3.726
 4310TIP3    H112936   5.097   4.281   3.795
 4310TIP3    H212937   5.170   4.363   3.690
 4311TIP3   OH212938   2.116   1.788   4.185
 4311TIP3    H112939   2.061   1.842   4.127
 4311TIP3    H212940   2.144   1.848   4.254
 4312TIP3   OH212941   0.371   4.595   4.288
 4312TIP3    H112942   0.325   4.605   4.205
 4312TIP3    H212943   0.355   4.677   4.335
 4313TIP3   OH212944   5.802   4.531  -0.034
 4313TIP3    H112945   5.735   4.574   0.018
 4313TIP3    H212946   5.766   4.444  -0.053
 4314TIP3   OH212947   3.126   3.399   3.154
 4314TIP3    H112948   3.107   3.349   3.074
 4314TIP3    H212949   3.041   3.431   3.183
 4315TIP3   OH212950   1.279   0.806   3.384
 4315TIP3    H112951   1.243   0.895   3.386
 4315TIP3    H212952   1.255   0.768   3.468
 4316TIP3   OH212953   2.437   2.012   2.347
 4316TIP3    H112954   2.511   1.981   2.296
 4316TIP3    H212955   2.365   2.020   2.284
 4317TIP3   OH212956   5.723   0.587   3.333
 4317TIP3    H112957   5.711   0.549   3.246
 4317TIP3    H212958   5.636   0.622   3.356
 4318TIP3   OH212959   3.534   2.252   3.705
 4318TIP3    H112960   3.507   2.186   3.770
 4318TIP3    H212961   3.454   2.268   3.654
 4319TIP3   OH212962   1.746   0.102   1.809
 4319TIP3    H112963   1.706   0.169   1.753
 4319TIP3    H212964   1.767   0.031   1.749
 4320TIP3   OH212965   4.283   3.695   3.157
 4320TIP3    H112966   4.209   3.664   3.210
 4320TIP3    H212967   4.257   3.678   3.067
 4321TIP3   OH212968   4.164   4.742   5.165
 4321TIP3    H112969   4.212   4.682   5.107
 4321TIP3    H212970   4.072   4.729   5.142
 4322TIP3   OH212971   6.066   5.756   2.947
 4322TIP3    H112972   6.125   5.738   2.874
 4322TIP3    H212973   6.010   5.828   2.917
 4323TIP3   OH212974   3.535   4.805   4.404
 4323TIP3    H112975   3.521   4.876   4.467
 4323TIP3    H212976   3.628   4.782   4.415
 4324TIP3   OH212977   4.247   2.174   0.910
 4324TIP3    H112978   4.330   2.216   0.884
 4324TIP3    H212979   4.205   2.238   0.967
 4325TIP3   OH212980   3.059   5.086   0.847
 4325TIP3    H112981   3.153   5.073   0.849
 4325TIP3    H212982   3.036   5.110   0.936
 4326TIP3   OH212983   3.882   4.112   0.553
 4326TIP3    H112984   3.855   4.171   0.483
 4326TIP3    H212985   3.811   4.048   0.560
 4327TIP3   OH212986   3.203   5.698   4.030
 4327TIP3    H112987   3.211   5.638   4.104
 4327TIP3    H212988   3.133   5.758   4.055
 4328TIP3   OH212989   5.209   0.725   5.176
 4328TIP3    H112990   5.137   0.685   5.225
 4328TIP3    H212991   5.230   0.805   5.224
 4329TIP3   OH212992   2.027   2.235   3.155
 4329TIP3    H112993   2.097   2.224   3.219
 4329TIP3    H212994   2.013   2.330   3.152
 4330TIP3   OH212995   6.375   5.090   0.083
 4330TIP3    H112996   6.297   5.041   0.109
 4330TIP3    H212997   6.350   5.132   0.001
 4331TIP3   OH212998   6.145   0.501   1.430
 4331TIP3    H112999   6.219   0.440   1.427
 4331TIP3    H213000   6.185   0.588   1.425
 4332TIP3   OH213001   4.106   0.912   0.121
 4332TIP3    H113002   4.175   0.912   0.054
 4332TIP3    H213003   4.028   0.880   0.075
 4333TIP3   OH213004   4.394   5.383   2.782
 4333TIP3    H113005   4.447   5.361   2.858
 4333TIP3    H213006   4.435   5.336   2.710
 4334TIP3   OH213007   5.721   0.103   2.559
 4334TIP3    H113008   5.770   0.105   2.641
 4334TIP3    H213009   5.779   0.060   2.497
 4335TIP3   OH213010   5.152   4.211   2.589
 4335TIP3    H113011   5.132   4.137   2.532
 4335TIP3    H213012   5.072   4.225   2.640
 4336TIP3   OH213013   4.268   5.097   2.628
 4336TIP3    H113014   4.341   5.097   2.690
 4336TIP3    H213015   4.271   5.183   2.587
 4337TIP3   OH213016   1.311   1.036   4.371
 4337TIP3    H113017   1.357   1.108   4.329
 4337TIP3    H213018   1.274   1.074   4.451
 4338TIP3   OH213019   2.183   5.307   4.174
 4338TIP3    H113020   2.126   5.382   4.187
 4338TIP3    H213021   2.129   5.244   4.126
 4339TIP3   OH213022   3.229   3.327   0.358
 4339TIP3    H113023   3.166   3.309   0.288
 4339TIP3    H213024   3.301   3.372   0.313
 4340TIP3   OH213025   0.210   4.624   5.025
 4340TIP3    H113026   0.237   4.696   4.968
 4340TIP3    H213027   0.266   4.550   5.000
 4341TIP3   OH213028   5.636   0.575   2.433
 4341TIP3    H113029   5.561   0.584   2.374
 4341TIP3    H213030   5.667   0.485   2.420
 4342TIP3   OH213031   3.925   0.464   3.995
 4342TIP3    H113032   3.974   0.536   4.033
 4342TIP3    H213033   3.905   0.492   3.906
 4343TIP3   OH213034   3.149   2.481   2.036
 4343TIP3    H113035   3.117   2.494   2.126
 4343TIP3    H213036   3.072   2.451   1.988
 4344TIP3   OH213037   2.665   0.998   0.135
 4344TIP3    H113038   2.727   0.986   0.207
 4344TIP3    H213039   2.667   0.914   0.087
 4345TIP3   OH213040   0.909   1.375   2.733
 4345TIP3    H113041   0.874   1.365   2.821
 4345TIP3    H213042   0.940   1.465   2.729
 4346TIP3   OH213043   4.995   4.979   3.335
 4346TIP3    H113044   4.905   4.984   3.302
 4346TIP3    H213045   5.010   4.885   3.348
 4347TIP3   OH213046   1.901   4.564   3.654
 4347TIP3    H113047   1.807   4.542   3.654
 4347TIP3    H213048   1.903   4.658   3.637
 4348TIP3   OH213049   1.591   0.859   3.470
 4348TIP3    H113050   1.659   0.817   3.416
 4348TIP3    H213051   1.515   0.866   3.411
 4349TIP3   OH213052   3.621   1.219   1.951
 4349TIP3    H113053   3.563   1.154   1.912
 4349TIP3    H213054   3.631   1.191   2.042
 4350TIP3   OH213055   3.143   0.144   1.346
 4350TIP3    H113056   3.080   0.126   1.415
 4350TIP3    H213057   3.220   0.091   1.369
 4351TIP3   OH213058   1.169   3.483   1.409
 4351TIP3    H113059   1.120   3.412   1.368
 4351TIP3    H213060   1.131   3.491   1.496
 4352TIP3   OH213061   4.043   5.875   5.110
 4352TIP3    H113062   4.081   5.861   5.023
 4352TIP3    H213063   4.117   5.865   5.170
 4353TIP3   OH213064   3.988   2.902   0.549
 4353TIP3    H113065   3.947   2.854   0.476
 4353TIP3    H213066   4.075   2.925   0.516
 4354TIP3   OH213067   3.400   3.946   1.017
 4354TIP3    H113068   3.387   3.914   1.106
 4354TIP3    H213069   3.316   3.933   0.974
 4355TIP3   OH213070   4.105   0.593   4.908
 4355TIP3    H113071   4.078   0.566   4.995
 4355TIP3    H213072   4.192   0.554   4.896
 4356TIP3   OH213073   6.361   0.839   1.258
 4356TIP3    H113074   6.411   0.872   1.333
 4356TIP3    H213075   6.428   0.806   1.198
 4357TIP3   OH213076   0.575   3.328   1.326
 4357TIP3    H113077   0.569   3.234   1.309
 4357TIP3    H213078   0.603   3.365   1.242
 4358TIP3   OH213079   5.621   2.791   1.068
 4358TIP3    H113080   5.654   2.781   0.979
 4358TIP3    H213081   5.613   2.886   1.080
 4359TIP3   OH213082   5.252   1.075   3.631
 4359TIP3    H113083   5.262   1.039   3.719
 4359TIP3    H213084   5.322   1.139   3.622
 4360TIP3   OH213085   5.494   2.752   4.922
 4360TIP3    H113086   5.415   2.783   4.877
 4360TIP3    H213087   5.495   2.658   4.907
 4361TIP3   OH213088   0.289   0.533   4.059
 4361TIP3    H113089   0.269   0.443   4.087
 4361TIP3    H213090   0.262   0.588   4.132
 4362TIP3   OH213091   1.129   4.785   0.552
 4362TIP3    H113092   1.137   4.753   0.641
 4362TIP3    H213093   1.105   4.878   0.562
 4363TIP3   OH213094   0.148   5.215   3.691
 4363TIP3    H113095   0.091   5.173   3.627
 4363TIP3    H213096   0.204   5.273   3.639
 4364TIP3   OH213097   2.851   3.016   2.512
 4364TIP3    H113098   2.792   2.988   2.442
 4364TIP3    H213099   2.843   3.111   2.513
 4365TIP3   OH213100   0.449   0.741   3.956
 4365TIP3    H113101   0.421   0.822   3.911
 4365TIP3    H213102   0.383   0.729   4.025
 4366TIP3   OH213103   0.908   4.546   1.573
 4366TIP3    H113104   0.997   4.511   1.565
 4366TIP3    H213105   0.898   4.602   1.496
 4367TIP3   OH213106   6.054   6.023   1.416
 4367TIP3    H113107   6.095   5.995   1.334
 4367TIP3    H213108   5.962   6.036   1.394
 4368TIP3   OH213109   4.310   2.570   2.255
 4368TIP3    H113110   4.296   2.476   2.271
 4368TIP3    H213111   4.272   2.586   2.169
 4369TIP3   OH213112   5.932   5.584   4.414
 4369TIP3    H113113   5.987   5.507   4.405
 4369TIP3    H213114   5.911   5.588   4.507
 4370TIP3   OH213115   3.947   2.648   1.302
 4370TIP3    H113116   3.914   2.582   1.241
 4370TIP3    H213117   4.020   2.604   1.347
 4371TIP3   OH213118   0.755   2.085   4.499
 4371TIP3    H113119   0.752   1.995   4.530
 4371TIP3    H213120   0.730   2.079   4.407
 4372TIP3   OH213121   4.479   1.815   4.375
 4372TIP3    H113122   4.505   1.722   4.374
 4372TIP3    H213123   4.493   1.843   4.465
 4373TIP3   OH213124   3.910   3.186   1.636
 4373TIP3    H113125   3.956   3.110   1.671
 4373TIP3    H213126   3.980   3.247   1.612
 4374TIP3   OH213127   5.513   4.968   3.185
 4374TIP3    H113128   5.604   4.938   3.188
 4374TIP3    H213129   5.504   5.025   3.261
 4375TIP3   OH213130   6.147   3.671   0.916
 4375TIP3    H113131   6.081   3.625   0.866
 4375TIP3    H213132   6.189   3.730   0.853
 4376TIP3   OH213133   5.778   5.357   2.080
 4376TIP3    H113134   5.752   5.266   2.063
 4376TIP3    H213135   5.759   5.369   2.173
 4377TIP3   OH213136   0.534   4.906   1.711
 4377TIP3    H113137   0.468   4.873   1.773
 4377TIP3    H213138   0.614   4.912   1.763
 4378TIP3   OH213139   1.238   4.241   1.980
 4378TIP3    H113140   1.299   4.171   2.005
 4378TIP3    H213141   1.158   4.195   1.954
 4379TIP3   OH213142   0.646   0.983   1.381
 4379TIP3    H113143   0.598   1.049   1.431
 4379TIP3    H213144   0.581   0.916   1.359
 4380TIP3   OH213145   5.815   3.332   3.919
 4380TIP3    H113146   5.778   3.252   3.880
 4380TIP3    H213147   5.772   3.403   3.872
 4381TIP3   OH213148   1.370   0.847   2.399
 4381TIP3    H113149   1.433   0.916   2.423
 4381TIP3    H213150   1.398   0.818   2.313
 4382TIP3   OH213151   0.763   5.454   1.265
 4382TIP3    H113152   0.780   5.495   1.349
 4382TIP3    H213153   0.842   5.403   1.246
 4383TIP3   OH213154   6.214   0.157   2.187
 4383TIP3    H113155   6.121   0.146   2.205
 4383TIP3    H213156   6.237   0.080   2.136
 4384TIP3   OH213157  -0.014   4.410   1.760
 4384TIP3    H113158  -0.047   4.332   1.805
 4384TIP3    H213159  -0.039   4.482   1.817
 4385TIP3   OH213160   4.981   3.284   3.223
 4385TIP3    H113161   5.026   3.236   3.293
 4385TIP3    H213162   4.912   3.223   3.194
 4386TIP3   OH213163   5.986   0.272   0.613
 4386TIP3    H113164   5.977   0.322   0.694
 4386TIP3    H213165   6.063   0.217   0.626
 4387TIP3   OH213166   1.369   1.320   3.684
 4387TIP3    H113167   1.348   1.411   3.707
 4387TIP3    H213168   1.379   1.276   3.769
 4388TIP3   OH213169   5.197   0.447   1.874
 4388TIP3    H113170   5.116   0.427   1.829
 4388TIP3    H213171   5.192   0.398   1.956
 4389TIP3   OH213172   3.928   0.364   2.517
 4389TIP3    H113173   3.849   0.329   2.558
 4389TIP3    H213174   3.926   0.328   2.428
 4390TIP3   OH213175   3.292   5.411   2.793
 4390TIP3    H113176   3.316   5.318   2.792
 4390TIP3    H213177   3.198   5.411   2.772
 4391TIP3   OH213178   1.343   4.526   4.346
 4391TIP3    H113179   1.340   4.503   4.439
 4391TIP3    H213180   1.413   4.591   4.340
 4392TIP3   OH213181   1.962   1.329   4.491
 4392TIP3    H113182   1.990   1.294   4.575
 4392TIP3    H213183   2.042   1.361   4.449
 4393TIP3   OH213184   2.933   3.548   1.225
 4393TIP3    H113185   3.011   3.535   1.170
 4393TIP3    H213186   2.937   3.641   1.250
 4394TIP3   OH213187   4.361   4.944   4.975
 4394TIP3    H113188   4.369   4.852   4.951
 4394TIP3    H213189   4.267   4.960   4.980
 4395TIP3   OH213190   4.984   0.496   2.887
 4395TIP3    H113191   5.066   0.447   2.882
 4395TIP3    H213192   4.920   0.439   2.844
 4396TIP3   OH213193   5.737   1.348   1.884
 4396TIP3    H113194   5.713   1.274   1.829
 4396TIP3    H213195   5.657   1.400   1.892
 4397TIP3   OH213196   6.293   1.376   0.465
 4397TIP3    H113197   6.286   1.436   0.539
 4397TIP3    H213198   6.379   1.395   0.427
 4398TIP3   OH213199   3.268   4.525   1.597
 4398TIP3    H113200   3.296   4.591   1.533
 4398TIP3    H213201   3.235   4.576   1.671
 4399TIP3   OH213202   0.880   4.559   3.115
 4399TIP3    H113203   0.851   4.650   3.116
 4399TIP3    H213204   0.974   4.563   3.131
 4400TIP3   OH213205   5.330   5.020   1.864
 4400TIP3    H113206   5.266   4.961   1.826
 4400TIP3    H213207   5.353   5.080   1.793
 4401TIP3   OH213208   1.448   1.942   3.588
 4401TIP3    H113209   1.520   1.983   3.540
 4401TIP3    H213210   1.370   1.960   3.534
 4402TIP3   OH213211   5.714   0.018   0.662
 4402TIP3    H113212   5.631   0.003   0.706
 4402TIP3    H213213   5.715   0.112   0.643
 4403TIP3   OH213214   6.056   0.223   5.122
 4403TIP3    H113215   5.983   0.219   5.060
 4403TIP3    H213216   6.115   0.153   5.095
 4404TIP3   OH213217   0.943   2.604   3.841
 4404TIP3    H113218   0.959   2.540   3.771
 4404TIP3    H213219   1.020   2.597   3.898
 4405TIP3   OH213220   5.658   5.331   5.103
 4405TIP3    H113221   5.589   5.264   5.098
 4405TIP3    H213222   5.739   5.281   5.113
 4406TIP3   OH213223   3.895   0.921   4.197
 4406TIP3    H113224   3.862   0.998   4.243
 4406TIP3    H213225   3.988   0.940   4.184
 4407TIP3   OH213226   1.837   1.643   2.575
 4407TIP3    H113227   1.751   1.653   2.533
 4407TIP3    H213228   1.823   1.576   2.642
 4408TIP3   OH213229   4.033   4.489   0.376
 4408TIP3    H113230   3.947   4.471   0.415
 4408TIP3    H213231   4.087   4.516   0.450
 4409TIP3   OH213232   4.581   5.722   3.534
 4409TIP3    H113233   4.623   5.764   3.609
 4409TIP3    H213234   4.491   5.705   3.564
 4410TIP3   OH213235   5.815   4.282   3.866
 4410TIP3    H113236   5.909   4.278   3.888
 4410TIP3    H213237   5.811   4.254   3.775
 4411TIP3   OH213238   5.502   4.251   3.907
 4411TIP3    H113239   5.524   4.167   3.866
 4411TIP3    H213240   5.567   4.312   3.872
 4412TIP3   OH213241   1.749   3.484   0.447
 4412TIP3    H113242   1.834   3.449   0.421
 4412TIP3    H213243   1.705   3.412   0.492
 4413TIP3   OH213244   6.066   1.890   0.843
 4413TIP3    H113245   6.001   1.891   0.774
 4413TIP3    H213246   6.019   1.918   0.922
 4414TIP3   OH213247   3.864   3.330   2.299
 4414TIP3    H113248   3.875   3.263   2.367
 4414TIP3    H213249   3.944   3.382   2.304
 4415TIP3   OH213250   5.181   3.231   0.577
 4415TIP3    H113251   5.140   3.260   0.659
 4415TIP3    H213252   5.166   3.304   0.516
 4416TIP3   OH213253   3.411   2.861   2.938
 4416TIP3    H113254   3.357   2.814   2.874
 4416TIP3    H213255   3.481   2.901   2.887
 4417TIP3   OH213256   5.987   4.068   1.462
 4417TIP3    H113257   6.073   4.080   1.503
 4417TIP3    H213258   5.925   4.103   1.525
 4418TIP3   OH213259   4.017   1.184   1.751
 4418TIP3    H113260   4.096   1.233   1.773
 4418TIP3    H213261   4.014   1.185   1.655
 4419TIP3   OH213262   1.946   1.306   2.086
 4419TIP3    H113263   1.860   1.279   2.118
 4419TIP3    H213264   1.972   1.235   2.026
 4420TIP3   OH213265   1.631   1.245   1.983
 4420TIP3    H113266   1.659   1.188   2.055
 4420TIP3    H213267   1.596   1.323   2.027
 4421TIP3   OH213268   1.157   5.391   3.289
 4421TIP3    H113269   1.193   5.451   3.354
 4421TIP3    H213270   1.205   5.412   3.208
 4422TIP3   OH213271   5.807   3.218   1.567
 4422TIP3    H113272   5.779   3.292   1.621
 4422TIP3    H213273   5.751   3.223   1.490
 4423TIP3   OH213274   3.998   0.882   2.215
 4423TIP3    H113275   3.982   0.935   2.137
 4423TIP3    H213276   4.057   0.813   2.186
 4424TIP3   OH213277   1.570   2.859   0.802
 4424TIP3    H113278   1.600   2.768   0.800
 4424TIP3    H213279   1.580   2.890   0.712
 4425TIP3   OH213280   6.225   3.100   4.042
 4425TIP3    H113281   6.293   3.051   4.087
 4425TIP3    H213282   6.182   3.150   4.111
 4426TIP3   OH213283   1.722   3.120   0.853
 4426TIP3    H113284   1.726   3.025   0.841
 4426TIP3    H213285   1.704   3.154   0.765
 4427TIP3   OH213286   5.432   4.939   4.412
 4427TIP3    H113287   5.431   4.850   4.375
 4427TIP3    H213288   5.484   4.931   4.492
 4428TIP3   OH213289   4.016   5.063   2.722
 4428TIP3    H113290   4.103   5.072   2.684
 4428TIP3    H213291   3.961   5.033   2.650
 4429TIP3   OH213292   0.250   5.104   4.237
 4429TIP3    H113293   0.169   5.147   4.266
 4429TIP3    H213294   0.220   5.038   4.175
 4430TIP3   OH213295   2.029   3.661   1.218
 4430TIP3    H113296   2.005   3.579   1.174
 4430TIP3    H213297   2.018   3.642   1.311
 4431TIP3   OH213298   2.681   2.586   0.591
 4431TIP3    H113299   2.604   2.554   0.638
 4431TIP3    H213300   2.751   2.587   0.656
 4432TIP3   OH213301   1.172   3.394   4.913
 4432TIP3    H113302   1.187   3.397   4.819
 4432TIP3    H213303   1.200   3.480   4.945
 4433TIP3   OH213304   5.896   1.879   2.321
 4433TIP3    H113305   5.915   1.810   2.385
 4433TIP3    H213306   5.942   1.956   2.353
 4434TIP3   OH213307   6.152   2.127   4.626
 4434TIP3    H113308   6.059   2.146   4.644
 4434TIP3    H213309   6.155   2.032   4.618
 4435TIP3   OH213310   0.432   5.153   2.558
 4435TIP3    H113311   0.447   5.162   2.652
 4435TIP3    H213312   0.415   5.060   2.545
 4436TIP3   OH213313   1.849   5.991   2.127
 4436TIP3    H113314   1.867   6.010   2.035
 4436TIP3    H213315   1.803   5.907   2.125
 4437TIP3   OH213316   0.591   5.832   0.079
 4437TIP3    H113317   0.574   5.926   0.074
 4437TIP3    H213318   0.686   5.826   0.087
 4438TIP3   OH213319   1.846   3.922   2.273
 4438TIP3    H113320   1.837   3.827   2.263
 4438TIP3    H213321   1.809   3.941   2.359
 4439TIP3   OH213322   3.452   3.920   0.640
 4439TIP3    H113323   3.362   3.952   0.630
 4439TIP3    H213324   3.484   3.962   0.719
 4440TIP3   OH213325   2.591   2.681   3.609
 4440TIP3    H113326   2.657   2.729   3.659
 4440TIP3    H213327   2.573   2.737   3.534
 4441TIP3   OH213328   2.935   5.716   3.843
 4441TIP3    H113329   2.984   5.770   3.781
 4441TIP3    H213330   2.970   5.628   3.830
 4442TIP3   OH213331   4.784   0.153   1.963
 4442TIP3    H113332   4.777   0.164   2.058
 4442TIP3    H213333   4.871   0.115   1.950
 4443TIP3   OH213334   5.511   2.123   2.987
 4443TIP3    H113335   5.569   2.183   3.033
 4443TIP3    H213336   5.533   2.136   2.894
 4444TIP3   OH213337   4.410   0.454   4.651
 4444TIP3    H113338   4.464   0.532   4.653
 4444TIP3    H213339   4.373   0.452   4.563
 4445TIP3   OH213340   6.130   1.326   0.916
 4445TIP3    H113341   6.195   1.327   0.846
 4445TIP3    H213342   6.075   1.250   0.896
 4446TIP3   OH213343   1.347   3.747   4.324
 4446TIP3    H113344   1.427   3.790   4.355
 4446TIP3    H213345   1.377   3.680   4.264
 4447TIP3   OH213346   1.216   4.999   2.635
 4447TIP3    H113347   1.218   4.923   2.693
 4447TIP3    H213348   1.165   4.971   2.559
 4448TIP3   OH213349   5.845   2.640   1.788
 4448TIP3    H113350   5.847   2.652   1.693
 4448TIP3    H213351   5.937   2.641   1.814
 4449TIP3   OH213352   3.736   5.296   2.624
 4449TIP3    H113353   3.678   5.268   2.554
 4449TIP3    H213354   3.762   5.385   2.600
 4450TIP3   OH213355   4.247   5.920   3.699
 4450TIP3    H113356   4.254   5.832   3.662
 4450TIP3    H213357   4.280   5.912   3.788
 4451TIP3   OH213358   1.669   4.548   3.387
 4451TIP3    H113359   1.579   4.551   3.420
 4451TIP3    H213360   1.704   4.466   3.420
 4452TIP3   OH213361   3.052   1.339   0.704
 4452TIP3    H113362   3.011   1.329   0.791
 4452TIP3    H213363   3.087   1.252   0.685
 4453TIP3   OH213364   4.731   5.485   1.639
 4453TIP3    H113365   4.687   5.442   1.565
 4453TIP3    H213366   4.823   5.464   1.627
 4454TIP3   OH213367   0.037   0.297   3.282
 4454TIP3    H113368   0.113   0.249   3.250
 4454TIP3    H213369   0.003   0.243   3.353
 4455TIP3   OH213370   1.935   5.113   0.015
 4455TIP3    H113371   1.868   5.045   0.016
 4455TIP3    H213372   2.009   5.075   0.062
 4456TIP3   OH213373   1.679   0.800   0.197
 4456TIP3    H113374   1.732   0.781   0.120
 4456TIP3    H213375   1.741   0.832   0.262
 4457TIP3   OH213376   1.796   2.618   2.863
 4457TIP3    H113377   1.759   2.655   2.783
 4457TIP3    H213378   1.865   2.560   2.833
 4458TIP3   OH213379   2.312   5.153   1.062
 4458TIP3    H113380   2.242   5.173   1.124
 4458TIP3    H213381   2.378   5.220   1.078
 4459TIP3   OH213382   4.394   5.279   2.085
 4459TIP3    H113383   4.414   5.372   2.077
 4459TIP3    H213384   4.322   5.275   2.148
 4460TIP3   OH213385   3.504   0.590   4.602
 4460TIP3    H113386   3.519   0.685   4.599
 4460TIP3    H213387   3.507   0.562   4.511
 4461TIP3   OH213388   3.066   4.755   4.801
 4461TIP3    H113389   3.010   4.678   4.806
 4461TIP3    H213390   3.031   4.807   4.728
 4462TIP3   OH213391   2.995   2.757   2.772
 4462TIP3    H113392   3.055   2.812   2.721
 4462TIP3    H213393   2.994   2.796   2.859
 4463TIP3   OH213394   2.232   0.267   3.049
 4463TIP3    H113395   2.180   0.310   2.982
 4463TIP3    H213396   2.322   0.292   3.029
 4464TIP3   OH213397   1.009   3.591   4.092
 4464TIP3    H113398   0.964   3.603   4.009
 4464TIP3    H213399   1.071   3.663   4.097
 4465TIP3   OH213400  -0.055   1.122   2.845
 4465TIP3    H113401   0.006   1.057   2.811
 4465TIP3    H213402  -0.019   1.147   2.930
 4466TIP3   OH213403   3.170   1.603   0.147
 4466TIP3    H113404   3.085   1.618   0.188
 4466TIP3    H213405   3.230   1.589   0.220
 4467TIP3   OH213406   0.103   0.539   4.968
 4467TIP3    H113407   0.146   0.550   5.053
 4467TIP3    H213408   0.173   0.551   4.904
 4468TIP3   OH213409   4.633   2.613   2.080
 4468TIP3    H113410   4.594   2.544   2.134
 4468TIP3    H213411   4.727   2.602   2.091
 4469TIP3   OH213412   5.219   5.188   2.070
 4469TIP3    H113413   5.307   5.226   2.068
 4469TIP3    H213414   5.214   5.136   1.990
 4470TIP3   OH213415   2.003   0.985   3.446
 4470TIP3    H113416   2.024   0.928   3.373
 4470TIP3    H213417   2.082   1.036   3.461
 4471TIP3   OH213418   2.317   2.521   2.221
 4471TIP3    H113419   2.346   2.468   2.295
 4471TIP3    H213420   2.224   2.534   2.235
 4472TIP3   OH213421   3.404   0.475   3.228
 4472TIP3    H113422   3.326   0.421   3.231
 4472TIP3    H213423   3.374   0.559   3.194
 4473TIP3   OH213424   0.706   0.250   3.810
 4473TIP3    H113425   0.669   0.273   3.724
 4473TIP3    H213426   0.765   0.322   3.831
 4474TIP3   OH213427   1.832   3.288   2.932
 4474TIP3    H113428   1.840   3.195   2.912
 4474TIP3    H213429   1.739   3.301   2.950
 4475TIP3   OH213430   0.766   0.187   4.623
 4475TIP3    H113431   0.846   0.227   4.658
 4475TIP3    H213432   0.752   0.111   4.679
 4476TIP3   OH213433   1.896   0.503   4.282
 4476TIP3    H113434   1.868   0.577   4.228
 4476TIP3    H213435   1.948   0.542   4.352
 4477TIP3   OH213436   6.309   1.708   4.184
 4477TIP3    H113437   6.308   1.635   4.123
 4477TIP3    H213438   6.324   1.668   4.270
 4478TIP3   OH213439   4.924   3.034   2.354
 4478TIP3    H113440   4.849   2.987   2.391
 4478TIP3    H213441   4.998   2.974   2.368
 4479TIP3   OH213442   2.144   0.094   4.173
 4479TIP3    H113443   2.111   0.163   4.116
 4479TIP3    H213444   2.164   0.021   4.114
 4480TIP3   OH213445   0.555   3.311   0.400
 4480TIP3    H113446   0.529   3.257   0.475
 4480TIP3    H213447   0.649   3.294   0.389
 4481TIP3   OH213448   0.678   5.936   3.154
 4481TIP3    H113449   0.647   5.851   3.122
 4481TIP3    H213450   0.754   5.956   3.098
 4482TIP3   OH213451   0.461   3.743   3.370
 4482TIP3    H113452   0.524   3.813   3.386
 4482TIP3    H213453   0.381   3.789   3.344
 4483TIP3   OH213454   5.689   5.084   2.048
 4483TIP3    H113455   5.727   5.082   2.136
 4483TIP3    H213456   5.712   4.999   2.010
 4484TIP3   OH213457   4.548   5.471   5.169
 4484TIP3    H113458   4.592   5.549   5.135
 4484TIP3    H213459   4.504   5.433   5.093
 4485TIP3   OH213460   4.448   3.677   1.548
 4485TIP3    H113461   4.501   3.757   1.544
 4485TIP3    H213462   4.373   3.695   1.491
 4486TIP3   OH213463   2.968   1.247   0.330
 4486TIP3    H113464   2.980   1.279   0.241
 4486TIP3    H213465   2.874   1.229   0.336
 4487TIP3   OH213466   4.238   2.646   1.600
 4487TIP3    H113467   4.236   2.720   1.660
 4487TIP3    H213468   4.281   2.576   1.649
 4488TIP3   OH213469   5.292   3.984   3.006
 4488TIP3    H113470   5.330   4.067   3.035
 4488TIP3    H213471   5.198   3.997   3.012
 4489TIP3   OH213472   3.416   1.356   4.393
 4489TIP3    H113473   3.345   1.416   4.414
 4489TIP3    H213474   3.486   1.412   4.361
 4490TIP3   OH213475   5.558   0.835   4.413
 4490TIP3    H113476   5.481   0.793   4.452
 4490TIP3    H213477   5.545   0.826   4.319
 4491TIP3   OH213478   1.485   2.806   1.354
 4491TIP3    H113479   1.521   2.744   1.417
 4491TIP3    H213480   1.515   2.892   1.383
 4492TIP3   OH213481   3.538   4.576   3.237
 4492TIP3    H113482   3.615   4.547   3.189
 4492TIP3    H213483   3.572   4.619   3.315
 4493TIP3   OH213484   0.327   5.720   3.054
 4493TIP3    H113485   0.322   5.801   3.003
 4493TIP3    H213486   0.277   5.739   3.134
 4494TIP3   OH213487   4.399   2.352   3.966
 4494TIP3    H113488   4.340   2.425   3.946
 4494TIP3    H213489   4.475   2.393   4.007
 4495TIP3   OH213490   3.946   2.104   3.906
 4495TIP3    H113491   4.005   2.092   3.981
 4495TIP3    H213492   3.980   2.046   3.839
 4496TIP3   OH213493   4.443   3.306   1.654
 4496TIP3    H113494   4.523   3.356   1.639
 4496TIP3    H213495   4.465   3.217   1.628
 4497TIP3   OH213496   2.311   5.032   0.536
 4497TIP3    H113497   2.379   5.044   0.602
 4497TIP3    H213498   2.231   5.065   0.577
 4498TIP3   OH213499   3.912   4.951   0.816
 4498TIP3    H113500   3.869   4.911   0.891
 4498TIP3    H213501   3.863   4.919   0.740
 4499TIP3   OH213502   3.140   3.292   4.003
 4499TIP3    H113503   3.210   3.238   3.967
 4499TIP3    H213504   3.086   3.231   4.054
 4500TIP3   OH213505   0.003   0.502   0.905
 4500TIP3    H113506   0.082   0.521   0.955
 4500TIP3    H213507   0.033   0.494   0.815
 4501TIP3   OH213508   2.605   5.812   0.259
 4501TIP3    H113509   2.637   5.722   0.260
 4501TIP3    H213510   2.676   5.862   0.300
 4502TIP3   OH213511   1.151   3.927   3.723
 4502TIP3    H113512   1.218   3.905   3.788
 4502TIP3    H213513   1.192   3.906   3.639
 4503TIP3   OH213514   0.266   1.391   0.461
 4503TIP3    H113515   0.328   1.343   0.516
 4503TIP3    H213516   0.262   1.341   0.380
 4504TIP3   OH213517   5.974   2.083   4.095
 4504TIP3    H113518   6.010   2.069   4.182
 4504TIP3    H213519   6.049   2.076   4.036
 4505TIP3   OH213520   6.044   3.403   2.442
 4505TIP3    H113521   6.128   3.398   2.398
 4505TIP3    H213522   5.980   3.384   2.373
 4506TIP3   OH213523   3.854   1.279   3.147
 4506TIP3    H113524   3.802   1.314   3.075
 4506TIP3    H213525   3.855   1.184   3.131
 4507TIP3   OH213526   5.711   4.526   2.874
 4507TIP3    H113527   5.652   4.492   2.807
 4507TIP3    H213528   5.682   4.616   2.889
 4508TIP3   OH213529   3.225   1.617   4.891
 4508TIP3    H113530   3.315   1.642   4.909
 4508TIP3    H213531   3.207   1.545   4.951
 4509TIP3   OH213532   2.206   3.821   0.904
 4509TIP3    H113533   2.213   3.898   0.848
 4509TIP3    H213534   2.125   3.834   0.953
 4510TIP3   OH213535   2.381   5.109   2.813
 4510TIP3    H113536   2.305   5.143   2.767
 4510TIP3    H213537   2.388   5.018   2.783
 4511TIP3   OH213538   5.150   3.180   0.869
 4511TIP3    H113539   5.159   3.246   0.938
 4511TIP3    H213540   5.218   3.115   0.888
 4512TIP3   OH213541   5.790   4.411   4.299
 4512TIP3    H113542   5.864   4.363   4.336
 4512TIP3    H213543   5.752   4.351   4.235
 4513TIP3   OH213544   2.101   2.862   1.115
 4513TIP3    H113545   2.179   2.907   1.082
 4513TIP3    H213546   2.135   2.788   1.165
 4514TIP3   OH213547   3.020   0.451   3.074
 4514TIP3    H113548   3.047   0.543   3.078
 4514TIP3    H213549   3.074   0.408   3.140
 4515TIP3   OH213550   5.691   0.740   0.898
 4515TIP3    H113551   5.648   0.721   0.815
 4515TIP3    H213552   5.713   0.653   0.934
 4516TIP3   OH213553   3.528   1.480   3.779
 4516TIP3    H113554   3.435   1.480   3.798
 4516TIP3    H213555   3.543   1.560   3.727
 4517TIP3   OH213556   4.738   3.660   2.028
 4517TIP3    H113557   4.809   3.715   2.060
 4517TIP3    H213558   4.780   3.576   2.007
 4518TIP3   OH213559   3.631   0.862   0.228
 4518TIP3    H113560   3.587   0.868   0.143
 4518TIP3    H213561   3.671   0.948   0.240
 4519TIP3   OH213562   4.247   4.769   3.858
 4519TIP3    H113563   4.311   4.700   3.878
 4519TIP3    H213564   4.215   4.798   3.943
 4520TIP3   OH213565   1.118   0.555   0.258
 4520TIP3    H113566   1.106   0.648   0.237
 4520TIP3    H213567   1.097   0.549   0.351
 4521TIP3   OH213568   3.171   2.697   0.643
 4521TIP3    H113569   3.171   2.679   0.737
 4521TIP3    H213570   3.134   2.785   0.635
 4522TIP3   OH213571   6.062   4.562   3.757
 4522TIP3    H113572   6.063   4.626   3.685
 4522TIP3    H213573   6.116   4.490   3.725
 4523TIP3   OH213574   0.906   1.011   0.089
 4523TIP3    H113575   0.851   0.934   0.099
 4523TIP3    H213576   0.860   1.080   0.137
 4524TIP3   OH213577   5.691   0.199   0.033
 4524TIP3    H113578   5.678   0.293   0.039
 4524TIP3    H213579   5.623   0.169  -0.027
 4525TIP3   OH213580   0.609   0.809   0.659
 4525TIP3    H113581   0.527   0.775   0.623
 4525TIP3    H213582   0.593   0.814   0.753
 4526TIP3   OH213583   1.176   0.119   4.969
 4526TIP3    H113584   1.144   0.129   4.880
 4526TIP3    H213585   1.236   0.045   4.965
 4527TIP3   OH213586   2.995   2.251   2.210
 4527TIP3    H113587   3.083   2.222   2.236
 4527TIP3    H213588   3.005   2.277   2.119
 4528TIP3   OH213589   5.101   1.865   1.091
 4528TIP3    H113590   5.043   1.917   1.036
 4528TIP3    H213591   5.174   1.923   1.112
 4529TIP3   OH213592   3.872   2.445   4.666
 4529TIP3    H113593   3.790   2.422   4.711
 4529TIP3    H213594   3.850   2.440   4.573
 4530TIP3   OH213595   6.067   5.633   1.131
 4530TIP3    H113596   6.022   5.592   1.205
 4530TIP3    H213597   6.049   5.575   1.057
 4531TIP3   OH213598   5.887   4.262   0.450
 4531TIP3    H113599   5.937   4.199   0.502
 4531TIP3    H213600   5.800   4.264   0.490
 4532TIP3   OH213601   0.935   5.299   1.714
 4532TIP3    H113602   0.842   5.291   1.736
 4532TIP3    H213603   0.945   5.249   1.633
 4533TIP3   OH213604   6.237   1.306   3.714
 4533TIP3    H113605   6.189   1.374   3.667
 4533TIP3    H213606   6.304   1.276   3.652
 4534TIP3   OH213607   1.122   3.388   2.222
 4534TIP3    H113608   1.082   3.348   2.299
 4534TIP3    H213609   1.102   3.481   2.230
 4535TIP3   OH213610   5.295   1.858   3.338
 4535TIP3    H113611   5.243   1.784   3.308
 4535TIP3    H213612   5.340   1.890   3.260
 4536TIP3   OH213613   2.819   1.665   2.599
 4536TIP3    H113614   2.852   1.615   2.524
 4536TIP3    H213615   2.724   1.661   2.591
 4537TIP3   OH213616   2.830   3.395   5.132
 4537TIP3    H113617   2.913   3.388   5.084
 4537TIP3    H213618   2.833   3.325   5.196
 4538TIP3   OH213619   3.060   4.178   1.269
 4538TIP3    H113620   3.135   4.198   1.212
 4538TIP3    H213621   2.986   4.170   1.209
 4539TIP3   OH213622   3.002   3.807   1.283
 4539TIP3    H113623   2.966   3.845   1.203
 4539TIP3    H213624   3.089   3.847   1.292
 4540TIP3   OH213625   0.276   5.066   0.408
 4540TIP3    H113626   0.322   5.061   0.492
 4540TIP3    H213627   0.285   4.979   0.370
 4541TIP3   OH213628   2.863   0.348   4.456
 4541TIP3    H113629   2.936   0.286   4.465
 4541TIP3    H213630   2.903   0.426   4.417
 4542TIP3   OH213631   0.197   4.214   1.891
 4542TIP3    H113632   0.157   4.171   1.816
 4542TIP3    H213633   0.266   4.154   1.919
 4543TIP3   OH213634   1.561   3.337   2.877
 4543TIP3    H113635   1.618   3.378   2.811
 4543TIP3    H213636   1.472   3.358   2.848
 4544TIP3   OH213637   3.194   2.637   0.909
 4544TIP3    H113638   3.277   2.676   0.935
 4544TIP3    H213639   3.212   2.543   0.904
 4545TIP3   OH213640   0.908   0.200   2.544
 4545TIP3    H113641   0.927   0.244   2.627
 4545TIP3    H213642   0.834   0.143   2.563
 4546TIP3   OH213643   5.943   5.995   5.161
 4546TIP3    H113644   5.849   6.010   5.168
 4546TIP3    H213645   5.950   5.903   5.134
 4547TIP3   OH213646   2.986   0.743   2.013
 4547TIP3    H113647   3.011   0.654   2.040
 4547TIP3    H213648   2.921   0.729   1.943
 4548TIP3   OH213649   4.880   1.547   4.744
 4548TIP3    H113650   4.902   1.640   4.743
 4548TIP3    H213651   4.844   1.530   4.657
 4549TIP3   OH213652   2.550   5.052   3.506
 4549TIP3    H113653   2.622   5.063   3.568
 4549TIP3    H213654   2.571   4.972   3.458
 4550TIP3   OH213655   4.612   2.890   1.452
 4550TIP3    H113656   4.661   2.888   1.370
 4550TIP3    H213657   4.679   2.894   1.520
 4551TIP3   OH213658   3.070   5.758   1.591
 4551TIP3    H113659   3.098   5.774   1.501
 4551TIP3    H213660   3.109   5.830   1.641
 4552TIP3   OH213661   2.093   2.384   4.016
 4552TIP3    H113662   2.162   2.445   4.044
 4552TIP3    H213663   2.019   2.441   3.994
 4553TIP3   OH213664   4.494   2.380   0.775
 4553TIP3    H113665   4.566   2.321   0.753
 4553TIP3    H213666   4.430   2.368   0.704
 4554TIP3   OH213667   5.853   4.895   2.641
 4554TIP3    H113668   5.890   4.817   2.599
 4554TIP3    H213669   5.926   4.934   2.688
 4555TIP3   OH213670   4.397   2.038   0.098
 4555TIP3    H113671   4.316   1.986   0.107
 4555TIP3    H213672   4.374   2.106   0.034
 4556TIP3   OH213673   5.969   0.956   2.352
 4556TIP3    H113674   5.971   1.012   2.429
 4556TIP3    H213675   5.977   0.867   2.387
 4557TIP3   OH213676   2.237   3.742   1.948
 4557TIP3    H113677   2.285   3.673   1.902
 4557TIP3    H213678   2.219   3.808   1.881
 4558TIP3   OH213679   4.104   1.743   1.314
 4558TIP3    H113680   4.018   1.775   1.287
 4558TIP3    H213681   4.149   1.821   1.345
 4559TIP3   OH213682   2.089   5.069   0.675
 4559TIP3    H113683   2.048   5.074   0.761
 4559TIP3    H213684   2.039   5.003   0.628
 4560TIP3   OH213685   5.479   1.320   0.680
 4560TIP3    H113686   5.452   1.388   0.618
 4560TIP3    H213687   5.573   1.308   0.664
 4561TIP3   OH213688  -0.017   2.376   1.736
 4561TIP3    H113689  -0.046   2.464   1.711
 4561TIP3    H213690   0.031   2.344   1.659
 4562TIP3   OH213691   3.097   0.976   2.116
 4562TIP3    H113692   3.053   0.892   2.101
 4562TIP3    H213693   3.116   0.977   2.210
 4563TIP3   OH213694   1.996   4.557   2.219
 4563TIP3    H113695   1.957   4.534   2.135
 4563TIP3    H213696   1.921   4.572   2.277
 4564TIP3   OH213697   4.975   1.284   3.435
 4564TIP3    H113698   5.029   1.273   3.513
 4564TIP3    H213699   5.033   1.325   3.371
 4565TIP3   OH213700   4.813   0.566   1.063
 4565TIP3    H113701   4.812   0.597   1.153
 4565TIP3    H213702   4.723   0.539   1.046
 4566TIP3   OH213703   2.937   2.432   2.811
 4566TIP3    H113704   2.878   2.497   2.849
 4566TIP3    H213705   3.023   2.452   2.848
 4567TIP3   OH213706   1.560   0.602   4.996
 4567TIP3    H113707   1.480   0.610   4.943
 4567TIP3    H213708   1.579   0.508   4.995
 4568TIP3   OH213709   3.598   1.726   0.420
 4568TIP3    H113710   3.665   1.729   0.351
 4568TIP3    H213711   3.542   1.801   0.402
 4569TIP3   OH213712   5.661   1.846   2.840
 4569TIP3    H113713   5.697   1.759   2.827
 4569TIP3    H213714   5.709   1.882   2.914
 4570TIP3   OH213715   3.940   0.741   2.867
 4570TIP3    H113716   4.005   0.672   2.876
 4570TIP3    H213717   3.945   0.789   2.950
 4571TIP3   OH213718   2.138   1.425   3.398
 4571TIP3    H113719   2.134   1.472   3.315
 4571TIP3    H213720   2.052   1.386   3.407
 4572TIP3   OH213721   1.274   4.059   2.481
 4572TIP3    H113722   1.307   4.048   2.570
 4572TIP3    H213723   1.351   4.051   2.426
 4573TIP3   OH213724   1.271   2.687   4.972
 4573TIP3    H113725   1.365   2.672   4.973
 4573TIP3    H213726   1.235   2.617   5.026
 4574TIP3   OH213727   0.474   4.842   3.819
 4574TIP3    H113728   0.395   4.890   3.843
 4574TIP3    H213729   0.453   4.750   3.838
 4575TIP3   OH213730   2.816   5.753   4.324
 4575TIP3    H113731   2.731   5.713   4.340
 4575TIP3    H213732   2.878   5.681   4.327
 4576TIP3   OH213733   6.170   0.854   0.746
 4576TIP3    H113734   6.172   0.911   0.823
 4576TIP3    H213735   6.256   0.867   0.704
 4577TIP3   OH213736   4.770   2.413   4.462
 4577TIP3    H113737   4.807   2.494   4.427
 4577TIP3    H213738   4.780   2.350   4.390
 4578TIP3   OH213739   0.773   4.842   3.540
 4578TIP3    H113740   0.813   4.771   3.489
 4578TIP3    H213741   0.846   4.878   3.591
 4579TIP3   OH213742   3.636   4.529   2.378
 4579TIP3    H113743   3.636   4.487   2.292
 4579TIP3    H213744   3.672   4.617   2.362
 4580TIP3   OH213745   4.545   1.571   3.145
 4580TIP3    H113746   4.501   1.610   3.069
 4580TIP3    H213747   4.474   1.554   3.207
 4581TIP3   OH213748   2.147   1.299   3.014
 4581TIP3    H113749   2.232   1.260   2.993
 4581TIP3    H213750   2.105   1.312   2.929
 4582TIP3   OH213751   2.765   0.543   0.473
 4582TIP3    H113752   2.807   0.629   0.468
 4582TIP3    H213753   2.671   0.561   0.473
 4583TIP3   OH213754   3.617   2.561   2.229
 4583TIP3    H113755   3.576   2.533   2.310
 4583TIP3    H213756   3.604   2.656   2.226
 4584TIP3   OH213757   2.703   2.376   1.562
 4584TIP3    H113758   2.692   2.292   1.607
 4584TIP3    H213759   2.749   2.353   1.481
 4585TIP3   OH213760   4.550   5.615   2.466
 4585TIP3    H113761   4.483   5.611   2.534
 4585TIP3    H213762   4.630   5.638   2.513
 4586TIP3   OH213763   1.390   4.876   3.281
 4586TIP3    H113764   1.459   4.828   3.326
 4586TIP3    H213765   1.309   4.831   3.306
 4587TIP3   OH213766   5.202   0.713   1.036
 4587TIP3    H113767   5.270   0.768   1.076
 4587TIP3    H213768   5.150   0.774   0.984
 4588TIP3   OH213769   4.637   4.534   2.025
 4588TIP3    H113770   4.682   4.614   1.997
 4588TIP3    H213771   4.547   4.546   1.997
 4589TIP3   OH213772   0.174   3.746   5.263
 4589TIP3    H113773   0.250   3.790   5.223
 4589TIP3    H213774   0.111   3.737   5.192
 4590TIP3   OH213775   5.819   3.835   2.166
 4590TIP3    H113776   5.867   3.886   2.232
 4590TIP3    H213777   5.862   3.749   2.167
 4591TIP3   OH213778   1.213   5.552   3.520
 4591TIP3    H113779   1.225   5.644   3.494
 4591TIP3    H213780   1.302   5.519   3.533
 4592TIP3   OH213781   0.422   4.098   4.295
 4592TIP3    H113782   0.503   4.077   4.342
 4592TIP3    H213783   0.377   4.161   4.351
 4593TIP3   OH213784   1.523   0.773   4.059
 4593TIP3    H113785   1.483   0.732   4.135
 4593TIP3    H213786   1.454   0.826   4.020
 4594TIP3   OH213787   2.753   2.894   3.706
 4594TIP3    H113788   2.766   2.900   3.801
 4594TIP3    H213789   2.738   2.984   3.679
 4595TIP3   OH213790   1.574   5.685   3.213
 4595TIP3    H113791   1.593   5.594   3.236
 4595TIP3    H213792   1.650   5.734   3.244
 4596TIP3   OH213793   3.215   1.740   2.862
 4596TIP3    H113794   3.191   1.682   2.935
 4596TIP3    H213795   3.248   1.681   2.795
 4597TIP3   OH213796   3.549   2.613   3.302
 4597TIP3    H113797   3.468   2.590   3.257
 4597TIP3    H213798   3.530   2.599   3.394
 4598TIP3   OH213799   4.488   5.268   0.063
 4598TIP3    H113800   4.456   5.248  -0.025
 4598TIP3    H213801   4.415   5.314   0.104
 4599TIP3   OH213802   5.451   1.553   1.111
 4599TIP3    H113803   5.393   1.493   1.064
 4599TIP3    H213804   5.499   1.497   1.172
 4600TIP3   OH213805   5.116   4.620   4.179
 4600TIP3    H113806   5.151   4.574   4.102
 4600TIP3    H213807   5.138   4.712   4.164
 4601TIP3   OH213808   3.542   0.887   4.645
 4601TIP3    H113809   3.633   0.916   4.653
 4601TIP3    H213810   3.490   0.963   4.670
 4602TIP3   OH213811   4.420   5.593   2.015
 4602TIP3    H113812   4.491   5.623   2.073
 4602TIP3    H213813   4.415   5.660   1.948
 4603TIP3   OH213814   4.744   2.134   3.992
 4603TIP3    H113815   4.701   2.104   3.911
 4603TIP3    H213816   4.817   2.073   4.003
 4604TIP3   OH213817   5.676   2.786   4.137
 4604TIP3    H113818   5.617   2.827   4.202
 4604TIP3    H213819   5.760   2.830   4.150
 4605TIP3   OH213820   2.946   1.660   0.321
 4605TIP3    H113821   2.906   1.747   0.325
 4605TIP3    H213822   2.897   1.609   0.386
 4606TIP3   OH213823   1.006   2.166   2.669
 4606TIP3    H113824   1.089   2.120   2.683
 4606TIP3    H213825   0.945   2.124   2.730
 4607TIP3   OH213826   0.098   3.164   2.227
 4607TIP3    H113827   0.014   3.122   2.208
 4607TIP3    H213828   0.122   3.132   2.313
 4608TIP3   OH213829   1.508   1.462   2.406
 4608TIP3    H113830   1.581   1.401   2.399
 4608TIP3    H213831   1.548   1.548   2.421
 4609TIP3   OH213832   6.286   5.339   3.503
 4609TIP3    H113833   6.212   5.285   3.475
 4609TIP3    H213834   6.246   5.419   3.536
 4610TIP3   OH213835   3.201   1.983   0.223
 4610TIP3    H113836   3.119   1.982   0.176
 4610TIP3    H213837   3.205   2.070   0.263
 4611TIP3   OH213838   0.332   1.212   3.569
 4611TIP3    H113839   0.376   1.157   3.635
 4611TIP3    H213840   0.323   1.297   3.611
 4612TIP3   OH213841   6.110   1.373   4.756
 4612TIP3    H113842   6.155   1.289   4.747
 4612TIP3    H213843   6.088   1.378   4.849
 4613TIP3   OH213844   5.745   1.252   3.115
 4613TIP3    H113845   5.684   1.323   3.130
 4613TIP3    H213846   5.712   1.180   3.168
 4614TIP3   OH213847   1.536   3.204   3.207
 4614TIP3    H113848   1.517   3.263   3.134
 4614TIP3    H213849   1.632   3.200   3.210
 4615TIP3   OH213850   1.582   3.876   2.772
 4615TIP3    H113851   1.556   3.830   2.691
 4615TIP3    H213852   1.554   3.817   2.842
 4616TIP3   OH213853   3.626   0.758   2.159
 4616TIP3    H113854   3.652   0.667   2.151
 4616TIP3    H213855   3.590   0.765   2.248
 4617TIP3   OH213856   3.978   1.405   3.678
 4617TIP3    H113857   3.931   1.428   3.758
 4617TIP3    H213858   3.913   1.363   3.623
 4618TIP3   OH213859   2.155   0.069   3.212
 4618TIP3    H113860   2.175   0.123   3.135
 4618TIP3    H213861   2.062   0.048   3.204
 4619TIP3   OH213862   3.825   1.359   2.885
 4619TIP3    H113863   3.839   1.453   2.895
 4619TIP3    H213864   3.749   1.351   2.827
 4620TIP3   OH213865   0.608   1.477   4.742
 4620TIP3    H113866   0.568   1.563   4.731
 4620TIP3    H213867   0.701   1.491   4.722
 4621TIP3   OH213868   0.601   4.287   2.150
 4621TIP3    H113869   0.696   4.278   2.151
 4621TIP3    H213870   0.570   4.207   2.194
 4622TIP3   OH213871   6.216   1.551   0.674
 4622TIP3    H113872   6.294   1.514   0.716
 4622TIP3    H213873   6.231   1.646   0.674
 4623TIP3   OH213874   0.654   2.133   1.039
 4623TIP3    H113875   0.736   2.181   1.034
 4623TIP3    H213876   0.649   2.085   0.956
 4624TIP3   OH213877   5.287   3.984   1.450
 4624TIP3    H113878   5.361   3.927   1.430
 4624TIP3    H213879   5.325   4.071   1.463
 4625TIP3   OH213880   0.224   5.433   1.152
 4625TIP3    H113881   0.292   5.458   1.214
 4625TIP3    H213882   0.148   5.485   1.177
 4626TIP3   OH213883   0.588   4.481   0.724
 4626TIP3    H113884   0.589   4.554   0.662
 4626TIP3    H213885   0.576   4.522   0.809
 4627TIP3   OH213886   5.017   3.736   0.974
 4627TIP3    H113887   5.088   3.797   0.991
 4627TIP3    H213888   4.940   3.777   1.013
 4628TIP3   OH213889   5.380   5.362   4.827
 4628TIP3    H113890   5.319   5.422   4.869
 4628TIP3    H213891   5.396   5.294   4.892
 4629TIP3   OH213892   1.252   3.878   2.115
 4629TIP3    H113893   1.285   3.966   2.098
 4629TIP3    H213894   1.305   3.848   2.190
 4630TIP3   OH213895   5.107   4.465   0.613
 4630TIP3    H113896   5.150   4.502   0.690
 4630TIP3    H213897   5.105   4.371   0.631
 4631TIP3   OH213898   1.477   2.631   4.691
 4631TIP3    H113899   1.404   2.691   4.707
 4631TIP3    H213900   1.498   2.594   4.777
 4632TIP3   OH213901   4.115   3.782   4.868
 4632TIP3    H113902   4.134   3.704   4.920
 4632TIP3    H213903   4.076   3.843   4.930
 4633TIP3   OH213904   1.556   0.355   1.277
 4633TIP3    H113905   1.613   0.427   1.305
 4633TIP3    H213906   1.493   0.345   1.348
 4634TIP3   OH213907   0.082   2.415   4.443
 4634TIP3    H113908  -0.010   2.423   4.420
 4634TIP3    H213909   0.087   2.443   4.534
 4635TIP3   OH213910   1.532   5.963   5.114
 4635TIP3    H113911   1.560   5.887   5.064
 4635TIP3    H213912   1.495   6.022   5.049
 4636TIP3   OH213913   4.211   3.490   4.707
 4636TIP3    H113914   4.254   3.573   4.687
 4636TIP3    H213915   4.257   3.426   4.654
 4637TIP3   OH213916   4.163   0.734   4.232
 4637TIP3    H113917   4.195   0.815   4.191
 4637TIP3    H213918   4.240   0.696   4.275
 4638TIP3   OH213919   2.471   1.587   1.933
 4638TIP3    H113920   2.474   1.517   1.868
 4638TIP3    H213921   2.487   1.542   2.016
 4639TIP3   OH213922   4.221   2.323   2.265
 4639TIP3    H113923   4.262   2.251   2.313
 4639TIP3    H213924   4.136   2.289   2.240
 4640TIP3   OH213925   0.414   3.669   2.954
 4640TIP3    H113926   0.382   3.594   2.905
 4640TIP3    H213927   0.338   3.698   3.005
 4641TIP3   OH213928   1.968   0.152   1.952
 4641TIP3    H113929   2.025   0.187   1.884
 4641TIP3    H213930   1.884   0.136   1.908
 4642TIP3   OH213931   6.048   4.279   4.343
 4642TIP3    H113932   6.062   4.235   4.427
 4642TIP3    H213933   6.127   4.330   4.329
 4643TIP3   OH213934   5.169   3.405   1.498
 4643TIP3    H113935   5.241   3.407   1.561
 4643TIP3    H213936   5.198   3.460   1.425
 4644TIP3   OH213937   1.567   4.422   2.456
 4644TIP3    H113938   1.610   4.351   2.504
 4644TIP3    H213939   1.474   4.398   2.457
 4645TIP3   OH213940   3.467   3.936   1.497
 4645TIP3    H113941   3.410   3.975   1.563
 4645TIP3    H213942   3.511   3.864   1.541
 4646TIP3   OH213943   1.697   5.786   2.033
 4646TIP3    H113944   1.629   5.826   1.978
 4646TIP3    H213945   1.685   5.692   2.020
 4647TIP3   OH213946   1.421   2.442   2.652
 4647TIP3    H113947   1.346   2.498   2.633
 4647TIP3    H213948   1.444   2.402   2.569
 4648TIP3   OH213949   0.657   4.521   2.312
 4648TIP3    H113950   0.581   4.509   2.371
 4648TIP3    H213951   0.637   4.466   2.236
 4649TIP3   OH213952   6.205   3.685   3.881
 4649TIP3    H113953   6.188   3.598   3.843
 4649TIP3    H213954   6.147   3.689   3.957
 4650TIP3   OH213955   0.295   2.524   1.547
 4650TIP3    H113956   0.328   2.481   1.625
 4650TIP3    H213957   0.263   2.453   1.492
 4651TIP3   OH213958   2.939   0.834   3.821
 4651TIP3    H113959   2.931   0.774   3.747
 4651TIP3    H213960   2.876   0.801   3.885
 4652TIP3   OH213961   1.894   1.239   0.772
 4652TIP3    H113962   1.824   1.255   0.836
 4652TIP3    H213963   1.926   1.327   0.751
 4653TIP3   OH213964   2.274   0.274   3.968
 4653TIP3    H113965   2.233   0.260   3.883
 4653TIP3    H213966   2.359   0.313   3.947
 4654TIP3   OH213967   3.581   1.121   3.196
 4654TIP3    H113968   3.520   1.049   3.208
 4654TIP3    H213969   3.642   1.114   3.270
 4655TIP3   OH213970   6.298   3.129   0.285
 4655TIP3    H113971   6.299   3.203   0.225
 4655TIP3    H213972   6.316   3.053   0.230
 4656TIP3   OH213973   5.792   0.482   4.842
 4656TIP3    H113974   5.829   0.483   4.930
 4656TIP3    H213975   5.741   0.562   4.836
 4657TIP3   OH213976   4.167   0.501   2.556
 4657TIP3    H113977   4.170   0.565   2.485
 4657TIP3    H213978   4.078   0.465   2.552
 4658TIP3   OH213979   5.387   5.738   4.079
 4658TIP3    H113980   5.378   5.737   4.174
 4658TIP3    H213981   5.463   5.683   4.062
 4659TIP3   OH213982   0.667   4.557   1.697
 4659TIP3    H113983   0.675   4.466   1.727
 4659TIP3    H213984   0.749   4.574   1.652
 4660TIP3   OH213985   1.259   3.655   1.223
 4660TIP3    H113986   1.182   3.695   1.182
 4660TIP3    H213987   1.223   3.600   1.292
 4661TIP3   OH213988   2.931   4.634   2.516
 4661TIP3    H113989   2.940   4.634   2.421
 4661TIP3    H213990   2.882   4.714   2.536
 4662TIP3   OH213991   2.984   1.284   0.065
 4662TIP3    H113992   3.007   1.193   0.045
 4662TIP3    H213993   3.057   1.335   0.032
 4663TIP3   OH213994   4.089   1.047   2.432
 4663TIP3    H113995   4.086   1.022   2.340
 4663TIP3    H213996   4.100   0.964   2.479
 4664TIP3   OH213997   4.724   2.856   0.397
 4664TIP3    H113998   4.717   2.946   0.428
 4664TIP3    H213999   4.810   2.827   0.426
 4665TIP3   OH214000   1.479   3.513   5.134
 4665TIP3    H114001   1.542   3.557   5.076
 4665TIP3    H214002   1.395   3.520   5.088
 4666TIP3   OH214003   1.580   2.701   1.066
 4666TIP3    H114004   1.670   2.729   1.049
 4666TIP3    H214005   1.545   2.768   1.124
 4667TIP3   OH214006   0.618   3.885   0.156
 4667TIP3    H114007   0.608   3.979   0.168
 4667TIP3    H214008   0.639   3.852   0.243
 4668TIP3   OH214009   5.801   1.655   1.881
 4668TIP3    H114010   5.848   1.718   1.935
 4668TIP3    H214011   5.858   1.579   1.878
 4669TIP3   OH214012   3.738   1.731   1.937
 4669TIP3    H114013   3.775   1.643   1.933
 4669TIP3    H214014   3.770   1.766   2.020
 4670TIP3   OH214015   4.424  -0.009   4.913
 4670TIP3    H114016   4.347   0.046   4.929
 4670TIP3    H214017   4.483   0.012   4.986
 4671TIP3   OH214018   5.636   4.610   1.043
 4671TIP3    H114019   5.702   4.608   1.113
 4671TIP3    H214020   5.622   4.518   1.020
 4672TIP3   OH214021   5.150   3.371   2.824
 4672TIP3    H114022   5.123   3.308   2.757
 4672TIP3    H214023   5.170   3.451   2.775
 4673TIP3   OH214024   3.436   3.304   0.146
 4673TIP3    H114025   3.381   3.227   0.156
 4673TIP3    H214026   3.417   3.335   0.057
 4674TIP3   OH214027   6.308   4.233   3.263
 4674TIP3    H114028   6.276   4.217   3.174
 4674TIP3    H214029   6.306   4.147   3.305
 4675TIP3   OH214030   5.172   2.544   2.077
 4675TIP3    H114031   5.147   2.531   2.168
 4675TIP3    H214032   5.202   2.458   2.047
 4676TIP3   OH214033   3.796   3.610   0.699
 4676TIP3    H114034   3.864   3.607   0.631
 4676TIP3    H214035   3.752   3.525   0.692
 4677TIP3   OH214036   6.403   0.687   2.031
 4677TIP3    H114037   6.343   0.733   2.089
 4677TIP3    H214038   6.443   0.620   2.087
 4678TIP3   OH214039   4.580   0.505   0.147
 4678TIP3    H114040   4.489   0.496   0.175
 4678TIP3    H214041   4.573   0.529   0.054
 4679TIP3   OH214042   3.382   0.278   4.159
 4679TIP3    H114043   3.462   0.243   4.120
 4679TIP3    H214044   3.311   0.240   4.105
 4680TIP3   OH214045   3.611   2.589   0.867
 4680TIP3    H114046   3.631   2.498   0.845
 4680TIP3    H214047   3.695   2.634   0.858
 4681TIP3   OH214048   4.993   2.704   3.073
 4681TIP3    H114049   5.042   2.720   2.992
 4681TIP3    H214050   4.996   2.788   3.119
 4682TIP3   OH214051   1.018   3.941   4.756
 4682TIP3    H114052   1.095   3.967   4.706
 4682TIP3    H214053   1.037   3.969   4.846
 4683TIP3   OH214054   4.977   2.607   1.463
 4683TIP3    H114055   4.909   2.656   1.417
 4683TIP3    H214056   5.045   2.593   1.397
 4684TIP3   OH214057   3.762   1.469   1.200
 4684TIP3    H114058   3.760   1.382   1.160
 4684TIP3    H214059   3.849   1.504   1.180
 4685TIP3   OH214060   5.164   0.126   3.660
 4685TIP3    H114061   5.188   0.041   3.698
 4685TIP3    H214062   5.175   0.114   3.565
 4686TIP3   OH214063   0.775   5.298   2.683
 4686TIP3    H114064   0.726   5.257   2.612
 4686TIP3    H214065   0.795   5.226   2.743
 4687TIP3   OH214066   1.415   4.640   3.874
 4687TIP3    H114067   1.402   4.546   3.884
 4687TIP3    H214068   1.377   4.678   3.953
 4688TIP3   OH214069   6.073   1.331   5.021
 4688TIP3    H114070   6.050   1.324   5.113
 4688TIP3    H214071   6.169   1.333   5.020
 4689TIP3   OH214072   5.606   4.306   3.618
 4689TIP3    H114073   5.616   4.225   3.668
 4689TIP3    H214074   5.656   4.290   3.538
 4690TIP3   OH214075   5.413   1.792   1.677
 4690TIP3    H114076   5.345   1.774   1.612
 4690TIP3    H214077   5.465   1.712   1.679
 4691TIP3   OH214078   6.264   2.184   1.124
 4691TIP3    H114079   6.200   2.256   1.127
 4691TIP3    H214080   6.256   2.149   1.036
 4692TIP3   OH214081   4.366   1.583   1.757
 4692TIP3    H114082   4.287   1.620   1.717
 4692TIP3    H214083   4.417   1.659   1.784
 4693TIP3   OH214084   4.244   3.533   4.086
 4693TIP3    H114085   4.272   3.555   4.175
 4693TIP3    H214086   4.182   3.461   4.097
 4694TIP3   OH214087   4.050   5.171   3.446
 4694TIP3    H114088   4.146   5.167   3.443
 4694TIP3    H214089   4.026   5.233   3.377
 4695TIP3   OH214090   1.084   4.678   2.769
 4695TIP3    H114091   1.062   4.707   2.858
 4695TIP3    H214092   1.158   4.618   2.781
 4696TIP3   OH214093   6.208   0.214   1.841
 4696TIP3    H114094   6.270   0.286   1.847
 4696TIP3    H214095   6.183   0.196   1.932
 4697TIP3   OH214096   1.834   0.343   3.242
 4697TIP3    H114097   1.868   0.379   3.324
 4697TIP3    H214098   1.865   0.404   3.175
 4698TIP3   OH214099   3.755   4.752   2.286
 4698TIP3    H114100   3.668   4.768   2.251
 4698TIP3    H214101   3.794   4.839   2.295
 4699TIP3   OH214102   2.760   0.918   3.567
 4699TIP3    H114103   2.677   0.877   3.591
 4699TIP3    H214104   2.800   0.858   3.504
 4700TIP3   OH214105   1.970   3.442   0.281
 4700TIP3    H114106   2.052   3.394   0.289
 4700TIP3    H214107   1.996   3.533   0.267
 4701TIP3   OH214108   5.134   0.231   1.038
 4701TIP3    H114109   5.086   0.310   1.012
 4701TIP3    H214110   5.129   0.173   0.963
 4702TIP3   OH214111   0.399   2.098   5.191
 4702TIP3    H114112   0.399   2.029   5.257
 4702TIP3    H214113   0.340   2.065   5.122
 4703TIP3   OH214114   5.331   2.044   0.824
 4703TIP3    H114115   5.327   2.017   0.915
 4703TIP3    H214116   5.335   2.140   0.827
 4704TIP3   OH214117   2.936   0.422   0.668
 4704TIP3    H114118   2.892   0.474   0.601
 4704TIP3    H214119   2.934   0.333   0.634
 4705TIP3   OH214120   3.898   0.703   1.477
 4705TIP3    H114121   3.950   0.676   1.552
 4705TIP3    H214122   3.811   0.666   1.493
 4706TIP3   OH214123   0.912   3.955   4.463
 4706TIP3    H114124   0.901   3.883   4.401
 4706TIP3    H214125   0.940   3.912   4.544
 4707TIP3   OH214126   0.778   5.520   3.163
 4707TIP3    H114127   0.771   5.594   3.222
 4707TIP3    H214128   0.852   5.541   3.106
 4708TIP3   OH214129   5.504   0.862   2.733
 4708TIP3    H114130   5.574   0.909   2.687
 4708TIP3    H214131   5.497   0.779   2.687
 4709TIP3   OH214132   4.511   4.975   3.071
 4709TIP3    H114133   4.433   5.029   3.057
 4709TIP3    H214134   4.490   4.892   3.027
 4710TIP3   OH214135   5.456   5.051   0.791
 4710TIP3    H114136   5.378   5.005   0.824
 4710TIP3    H214137   5.527   4.988   0.803
 4711TIP3   OH214138   1.736   5.231   5.009
 4711TIP3    H114139   1.653   5.267   5.038
 4711TIP3    H214140   1.789   5.224   5.089
 4712TIP3   OH214141   1.580   5.736   4.951
 4712TIP3    H114142   1.665   5.700   4.977
 4712TIP3    H214143   1.577   5.722   4.857
 4713TIP3   OH214144   1.321   2.456   4.252
 4713TIP3    H114145   1.357   2.380   4.205
 4713TIP3    H214146   1.351   2.444   4.342
 4714TIP3   OH214147   1.922   5.823   3.925
 4714TIP3    H114148   1.991   5.757   3.927
 4714TIP3    H214149   1.960   5.896   3.878
 4715TIP3   OH214150   1.714   2.301   5.040
 4715TIP3    H114151   1.671   2.234   4.988
 4715TIP3    H214152   1.643   2.345   5.087
 4716TIP3   OH214153   5.084   0.254   4.861
 4716TIP3    H114154   4.995   0.231   4.834
 4716TIP3    H214155   5.072   0.325   4.923
 4717TIP3   OH214156   3.603   2.886   4.282
 4717TIP3    H114157   3.564   2.834   4.211
 4717TIP3    H214158   3.624   2.822   4.350
 4718TIP3   OH214159   0.999   2.224   0.371
 4718TIP3    H114160   1.038   2.237   0.284
 4718TIP3    H214161   1.009   2.308   0.414
 4719TIP3   OH214162   0.593   2.792   2.799
 4719TIP3    H114163   0.617   2.739   2.723
 4719TIP3    H214164   0.510   2.756   2.828
 4720TIP3   OH214165   2.191   0.795   3.542
 4720TIP3    H114166   2.129   0.772   3.472
 4720TIP3    H214167   2.139   0.846   3.604
 4721TIP3   OH214168   4.557   4.999   0.037
 4721TIP3    H114169   4.533   5.084   0.073
 4721TIP3    H214170   4.513   4.995  -0.048
 4722TIP3   OH214171   1.323   2.290  -0.004
 4722TIP3    H114172   1.363   2.355  -0.062
 4722TIP3    H214173   1.353   2.206  -0.039
 4723TIP3   OH214174   5.380   2.048   0.556
 4723TIP3    H114175   5.377   2.028   0.649
 4723TIP3    H214176   5.309   2.111   0.543
 4724TIP3   OH214177   1.746   4.119   1.032
 4724TIP3    H114178   1.669   4.109   1.087
 4724TIP3    H214179   1.779   4.207   1.051
 4725TIP3   OH214180   3.803   3.459   2.613
 4725TIP3    H114181   3.736   3.479   2.679
 4725TIP3    H214182   3.776   3.508   2.536
 4726TIP3   OH214183   1.588   5.234   4.178
 4726TIP3    H114184   1.502   5.228   4.219
 4726TIP3    H214185   1.610   5.327   4.181
 4727TIP3   OH214186   0.949   1.227   3.736
 4727TIP3    H114187   1.024   1.251   3.789
 4727TIP3    H214188   0.927   1.138   3.764
 4728TIP3   OH214189   1.018   3.878   2.419
 4728TIP3    H114190   1.084   3.944   2.443
 4728TIP3    H214191   0.934   3.922   2.434
 4729TIP3   OH214192   2.311   1.094   0.619
 4729TIP3    H114193   2.378   1.026   0.613
 4729TIP3    H214194   2.333   1.155   0.548
 4730TIP3   OH214195   1.835   1.435   3.080
 4730TIP3    H114196   1.839   1.487   3.161
 4730TIP3    H214197   1.741   1.427   3.063
 4731TIP3   OH214198   3.871   0.178   1.647
 4731TIP3    H114199   3.864   0.146   1.557
 4731TIP3    H214200   3.786   0.219   1.665
 4732TIP3   OH214201   2.783   5.859   4.038
 4732TIP3    H114202   2.832   5.809   3.973
 4732TIP3    H214203   2.827   5.842   4.121
 4733TIP3   OH214204   6.201   1.419   2.892
 4733TIP3    H114205   6.122   1.452   2.848
 4733TIP3    H214206   6.204   1.326   2.870
 4734TIP3   OH214207   6.088   1.508   3.567
 4734TIP3    H114208   6.150   1.560   3.516
 4734TIP3    H214209   6.049   1.570   3.628
 4735TIP3   OH214210   5.466   1.211   4.914
 4735TIP3    H114211   5.440   1.235   4.825
 4735TIP3    H214212   5.397   1.245   4.970
 4736TIP3   OH214213   5.712   0.629   4.179
 4736TIP3    H114214   5.708   0.721   4.155
 4736TIP3    H214215   5.718   0.630   4.275
 4737TIP3   OH214216   4.287   2.821   1.951
 4737TIP3    H114217   4.278   2.915   1.934
 4737TIP3    H214218   4.375   2.799   1.920
 4738TIP3   OH214219   4.240   2.283   0.487
 4738TIP3    H114220   4.242   2.188   0.500
 4738TIP3    H214221   4.148   2.301   0.467
 4739TIP3   OH214222   5.432   5.252   2.869
 4739TIP3    H114223   5.434   5.347   2.879
 4739TIP3    H214224   5.524   5.228   2.854
 4740TIP3   OH214225   1.986   0.282   2.260
 4740TIP3    H114226   1.923   0.228   2.308
 4740TIP3    H214227   2.022   0.224   2.193
 4741TIP3   OH214228   0.873   3.892   1.256
 4741TIP3    H114229   0.843   3.855   1.339
 4741TIP3    H214230   0.959   3.853   1.242
 4742TIP3   OH214231   2.710   3.252   1.962
 4742TIP3    H114232   2.668   3.167   1.949
 4742TIP3    H214233   2.803   3.232   1.971
 4743TIP3   OH214234   4.086   2.446   3.388
 4743TIP3    H114235   4.096   2.466   3.295
 4743TIP3    H214236   3.992   2.457   3.404
 4744TIP3   OH214237   4.968   2.817   4.187
 4744TIP3    H114238   4.918   2.898   4.186
 4744TIP3    H214239   4.906   2.751   4.219
 4745TIP3   OH214240   1.411   1.780   4.166
 4745TIP3    H114241   1.498   1.776   4.207
 4745TIP3    H214242   1.363   1.706   4.204
 4746TIP3   OH214243   4.955   3.017   1.331
 4746TIP3    H114244   5.051   3.017   1.335
 4746TIP3    H214245   4.929   3.099   1.374
 4747TIP3   OH214246   5.384   3.327   0.050
 4747TIP3    H114247   5.362   3.371  -0.032
 4747TIP3    H214248   5.300   3.311   0.092
 4748TIP3   OH214249   0.083   4.497   2.596
 4748TIP3    H114250   0.169   4.539   2.596
 4748TIP3    H214251   0.061   4.489   2.503
 4749TIP3   OH214252   0.696   2.070   2.675
 4749TIP3    H114253   0.754   2.015   2.728
 4749TIP3    H214254   0.625   2.093   2.735
 4750TIP3   OH214255   5.975   4.841   3.029
 4750TIP3    H114256   6.055   4.794   3.004
 4750TIP3    H214257   5.915   4.827   2.955
 4751TIP3   OH214258   3.406   0.954   3.366
 4751TIP3    H114259   3.387   0.911   3.449
 4751TIP3    H214260   3.339   1.023   3.358
 4752TIP3   OH214261   4.830   0.631   1.548
 4752TIP3    H114262   4.797   0.655   1.461
 4752TIP3    H214263   4.908   0.579   1.530
 4753TIP3   OH214264   5.653   2.513   1.955
 4753TIP3    H114265   5.582   2.574   1.933
 4753TIP3    H214266   5.729   2.546   1.908
 4754TIP3   OH214267   2.145   0.589   4.000
 4754TIP3    H114268   2.099   0.671   3.983
 4754TIP3    H214269   2.135   0.539   3.918
 4755TIP3   OH214270   4.824   4.025   3.783
 4755TIP3    H114271   4.890   4.019   3.713
 4755TIP3    H214272   4.743   4.050   3.738
 4756TIP3   OH214273   4.061   5.868   4.249
 4756TIP3    H114274   4.074   5.887   4.342
 4756TIP3    H214275   3.997   5.797   4.248
 4757TIP3   OH214276   2.237   2.286   3.341
 4757TIP3    H114277   2.230   2.381   3.348
 4757TIP3    H214278   2.168   2.253   3.400
 4758TIP3   OH214279   3.960   3.222   0.337
 4758TIP3    H114280   3.965   3.249   0.428
 4758TIP3    H214281   3.871   3.246   0.309
 4759TIP3   OH214282   5.437   5.861   0.495
 4759TIP3    H114283   5.367   5.882   0.434
 4759TIP3    H214284   5.401   5.794   0.552
 4760TIP3   OH214285   0.195   1.190   4.393
 4760TIP3    H114286   0.161   1.229   4.474
 4760TIP3    H214287   0.180   1.096   4.403
 4761TIP3   OH214288   5.254   5.255   4.614
 4761TIP3    H114289   5.207   5.339   4.611
 4761TIP3    H214290   5.321   5.267   4.682
 4762TIP3   OH214291   3.422   5.813   0.728
 4762TIP3    H114292   3.357   5.836   0.793
 4762TIP3    H214293   3.374   5.811   0.645
 4763TIP3   OH214294   2.168   5.829   2.546
 4763TIP3    H114295   2.247   5.825   2.492
 4763TIP3    H214296   2.114   5.896   2.503
 4764TIP3   OH214297   2.370   2.184   2.655
 4764TIP3    H114298   2.444   2.124   2.655
 4764TIP3    H214299   2.294   2.129   2.635
 4765TIP3   OH214300   4.928   1.471   3.998
 4765TIP3    H114301   4.929   1.438   3.908
 4765TIP3    H214302   4.880   1.554   3.992
 4766TIP3   OH214303   1.364   1.363   4.756
 4766TIP3    H114304   1.444   1.414   4.739
 4766TIP3    H214305   1.314   1.417   4.816
 4767TIP3   OH214306   4.703   4.583   1.140
 4767TIP3    H114307   4.699   4.524   1.064
 4767TIP3    H214308   4.727   4.668   1.103
 4768TIP3   OH214309   1.230   1.526   1.821
 4768TIP3    H114310   1.181   1.600   1.858
 4768TIP3    H214311   1.318   1.560   1.805
 4769TIP3   OH214312   2.858   4.587   2.073
 4769TIP3    H114313   2.812   4.510   2.038
 4769TIP3    H214314   2.940   4.552   2.109
 4770TIP3   OH214315   5.162   1.342   4.492
 4770TIP3    H114316   5.098   1.343   4.421
 4770TIP3    H214317   5.228   1.406   4.466
 4771TIP3   OH214318   1.059   5.807   1.602
 4771TIP3    H114319   0.969   5.837   1.607
 4771TIP3    H214320   1.064   5.760   1.519
 4772TIP3   OH214321   0.718   5.337   0.174
 4772TIP3    H114322   0.644   5.398   0.167
 4772TIP3    H214323   0.746   5.344   0.265
 4773TIP3   OH214324   3.199   4.852   1.024
 4773TIP3    H114325   3.280   4.900   1.040
 4773TIP3    H214326   3.130   4.914   1.047
 4774TIP3   OH214327   5.148   2.690   4.021
 4774TIP3    H114328   5.229   2.740   4.011
 4774TIP3    H214329   5.098   2.737   4.087
 4775TIP3   OH214330   3.669   3.442   1.574
 4775TIP3    H114331   3.660   3.360   1.526
 4775TIP3    H214332   3.696   3.415   1.662
 4776TIP3   OH214333   4.582   0.947   2.868
 4776TIP3    H114334   4.511   0.902   2.913
 4776TIP3    H214335   4.585   0.908   2.781
 4777TIP3   OH214336   2.703   0.256   4.018
 4777TIP3    H114337   2.679   0.303   4.098
 4777TIP3    H214338   2.661   0.170   4.027
 4778TIP3   OH214339   5.784   5.499   0.325
 4778TIP3    H114340   5.868   5.472   0.362
 4778TIP3    H214341   5.732   5.528   0.400
 4779TIP3   OH214342   2.926   1.951   0.112
 4779TIP3    H114343   2.941   1.859   0.089
 4779TIP3    H214344   2.831   1.962   0.111
 4780TIP3   OH214345   4.569   0.482   5.067
 4780TIP3    H114346   4.573   0.423   5.143
 4780TIP3    H214347   4.633   0.550   5.087
 4781TIP3   OH214348   4.414   1.177   4.833
 4781TIP3    H114349   4.401   1.168   4.738
 4781TIP3    H214350   4.325   1.186   4.868
 4782TIP3   OH214351   3.644   3.652   4.800
 4782TIP3    H114352   3.558   3.687   4.824
 4782TIP3    H214353   3.704   3.689   4.864
 4783TIP3   OH214354   4.086   1.747   2.329
 4783TIP3    H114355   4.156   1.720   2.271
 4783TIP3    H214356   4.130   1.793   2.401
 4784TIP3   OH214357   3.836   4.958   4.172
 4784TIP3    H114358   3.836   4.986   4.080
 4784TIP3    H214359   3.893   4.880   4.172
 4785TIP3   OH214360   5.024   5.956   1.549
 4785TIP3    H114361   4.994   6.047   1.540
 4785TIP3    H214362   5.037   5.926   1.459
 4786TIP3   OH214363   2.484   4.175   3.528
 4786TIP3    H114364   2.552   4.123   3.572
 4786TIP3    H214365   2.435   4.111   3.477
 4787TIP3   OH214366   4.741   4.200   0.766
 4787TIP3    H114367   4.806   4.130   0.776
 4787TIP3    H214368   4.708   4.190   0.677
 4788TIP3   OH214369   5.073   1.509   3.694
 4788TIP3    H114370   5.088   1.603   3.704
 4788TIP3    H214371   4.995   1.503   3.639
 4789TIP3   OH214372   1.207   4.730   1.532
 4789TIP3    H114373   1.247   4.758   1.450
 4789TIP3    H214374   1.267   4.664   1.567
 4790TIP3   OH214375   6.350   4.937   2.007
 4790TIP3    H114376   6.291   5.011   2.019
 4790TIP3    H214377   6.417   4.970   1.946
 4791TIP3   OH214378   3.559   5.186   0.615
 4791TIP3    H114379   3.602   5.159   0.696
 4791TIP3    H214380   3.584   5.278   0.605
 4792TIP3   OH214381   5.138   5.112   1.185
 4792TIP3    H114382   5.126   5.185   1.125
 4792TIP3    H214383   5.152   5.154   1.271
 4793TIP3   OH214384   5.344   0.213   0.316
 4793TIP3    H114385   5.285   0.234   0.389
 4793TIP3    H214386   5.289   0.221   0.238
 4794TIP3   OH214387   0.409   4.827   0.869
 4794TIP3    H114388   0.324   4.787   0.885
 4794TIP3    H214389   0.472   4.765   0.907
 4795TIP3   OH214390   6.208   2.649   3.902
 4795TIP3    H114391   6.132   2.640   3.960
 4795TIP3    H214392   6.276   2.688   3.956
 4796TIP3   OH214393   2.353   3.957   3.860
 4796TIP3    H114394   2.355   4.040   3.908
 4796TIP3    H214395   2.406   3.897   3.912
 4797TIP3   OH214396   4.890   0.457   3.636
 4797TIP3    H114397   4.831   0.416   3.573
 4797TIP3    H214398   4.926   0.532   3.589
 4798TIP3   OH214399   1.061   4.848   0.838
 4798TIP3    H114400   1.038   4.916   0.901
 4798TIP3    H214401   0.980   4.797   0.827
 4799TIP3   OH214402   1.354   4.936   0.093
 4799TIP3    H114403   1.289   4.889   0.144
 4799TIP3    H214404   1.375   4.877   0.020
 4800TIP3   OH214405   1.574   5.128   1.082
 4800TIP3    H114406   1.649   5.078   1.050
 4800TIP3    H214407   1.547   5.083   1.162
 4801TIP3   OH214408   4.331   3.461   0.158
 4801TIP3    H114409   4.331   3.495   0.247
 4801TIP3    H214410   4.373   3.529   0.106
 4802TIP3   OH214411   0.362   2.971   0.535
 4802TIP3    H114412   0.313   2.917   0.596
 4802TIP3    H214413   0.392   2.910   0.468
 4803TIP3   OH214414   3.856   1.647   2.864
 4803TIP3    H114415   3.927   1.626   2.803
 4803TIP3    H214416   3.809   1.719   2.821
 4804TIP3   OH214417   4.819   1.379   3.757
 4804TIP3    H114418   4.764   1.303   3.737
 4804TIP3    H214419   4.821   1.430   3.676
 4805TIP3   OH214420   2.878   2.724   1.489
 4805TIP3    H114421   2.971   2.706   1.478
 4805TIP3    H214422   2.850   2.668   1.561
 4806TIP3   OH214423   1.305   4.392   3.085
 4806TIP3    H114424   1.336   4.480   3.065
 4806TIP3    H214425   1.249   4.369   3.011
 4807TIP3   OH214426   2.853   5.530   2.152
 4807TIP3    H114427   2.911   5.539   2.076
 4807TIP3    H214428   2.811   5.616   2.159
 4808TIP3   OH214429   1.075   5.222   4.270
 4808TIP3    H114430   1.074   5.132   4.239
 4808TIP3    H214431   1.097   5.274   4.193
 4809TIP3   OH214432   3.599   5.460   4.265
 4809TIP3    H114433   3.651   5.528   4.222
 4809TIP3    H214434   3.606   5.480   4.359
 4810TIP3   OH214435   6.315   0.147   2.889
 4810TIP3    H114436   6.396   0.199   2.890
 4810TIP3    H214437   6.259   0.191   2.952
 4811TIP3   OH214438   2.372   3.951   2.446
 4811TIP3    H114439   2.406   3.991   2.366
 4811TIP3    H214440   2.446   3.950   2.506
 4812TIP3   OH214441   4.847   2.514   1.009
 4812TIP3    H114442   4.858   2.499   0.915
 4812TIP3    H214443   4.884   2.601   1.023
 4813TIP3   OH214444   0.356   5.225   2.245
 4813TIP3    H114445   0.365   5.309   2.201
 4813TIP3    H214446   0.279   5.185   2.205
 4814TIP3   OH214447   3.382   4.230   2.198
 4814TIP3    H114448   3.336   4.257   2.119
 4814TIP3    H214449   3.335   4.273   2.269
 4815TIP3   OH214450   5.540   1.056   5.152
 4815TIP3    H114451   5.507   1.115   5.085
 4815TIP3    H214452   5.537   0.969   5.111
 4816TIP3   OH214453   0.912   0.153   0.793
 4816TIP3    H114454   0.930   0.114   0.879
 4816TIP3    H214455   0.829   0.199   0.804
 4817TIP3   OH214456   4.215   2.351   1.945
 4817TIP3    H114457   4.295   2.363   1.996
 4817TIP3    H214458   4.155   2.306   2.005
 4818TIP3   OH214459   0.484   0.591   1.604
 4818TIP3    H114460   0.545   0.622   1.537
 4818TIP3    H214461   0.412   0.551   1.554
 4819TIP3   OH214462   5.858   4.551   3.293
 4819TIP3    H114463   5.885   4.470   3.336
 4819TIP3    H214464   5.923   4.564   3.224
 4820TIP3   OH214465   5.801   5.066   4.649
 4820TIP3    H114466   5.773   5.066   4.740
 4820TIP3    H214467   5.775   4.980   4.616
 4821TIP3   OH214468   6.026   0.777   1.906
 4821TIP3    H114469   6.059   0.814   1.825
 4821TIP3    H214470   6.039   0.683   1.897
 4822TIP3   OH214471   0.590   3.693   3.946
 4822TIP3    H114472   0.501   3.709   3.914
 4822TIP3    H214473   0.642   3.764   3.910
 4823TIP3   OH214474   3.287   0.391   0.384
 4823TIP3    H114475   3.382   0.387   0.400
 4823TIP3    H214476   3.278   0.455   0.313
 4824TIP3   OH214477   2.945   1.807   5.066
 4824TIP3    H114478   2.942   1.711   5.071
 4824TIP3    H214479   2.854   1.834   5.078
 4825TIP3   OH214480   3.173   1.252   2.065
 4825TIP3    H114481   3.235   1.281   1.998
 4825TIP3    H214482   3.178   1.157   2.063
 4826TIP3   OH214483   4.829   5.403   2.456
 4826TIP3    H114484   4.808   5.480   2.507
 4826TIP3    H214485   4.878   5.346   2.516
 4827TIP3   OH214486   5.050   4.977   1.836
 4827TIP3    H114487   4.990   4.996   1.908
 4827TIP3    H214488   5.072   5.063   1.800
 4828TIP3   OH214489   2.816   3.358   4.782
 4828TIP3    H114490   2.893   3.416   4.783
 4828TIP3    H214491   2.799   3.341   4.874
 4829TIP3   OH214492   0.672   2.365   2.807
 4829TIP3    H114493   0.597   2.417   2.777
 4829TIP3    H214494   0.703   2.321   2.728
 4830TIP3   OH214495   1.649   5.182   2.957
 4830TIP3    H114496   1.590   5.175   2.882
 4830TIP3    H214497   1.594   5.164   3.033
 4831TIP3   OH214498   3.279   5.223   1.080
 4831TIP3    H114499   3.341   5.295   1.092
 4831TIP3    H214500   3.295   5.192   0.991
 4832TIP3   OH214501   2.152   4.316   3.754
 4832TIP3    H114502   2.171   4.390   3.812
 4832TIP3    H214503   2.065   4.287   3.780
 4833TIP3   OH214504   4.086   5.665   1.509
 4833TIP3    H114505   4.119   5.699   1.425
 4833TIP3    H214506   4.118   5.727   1.574
 4834TIP3   OH214507   2.363   4.857   2.675
 4834TIP3    H114508   2.423   4.803   2.623
 4834TIP3    H214509   2.292   4.879   2.615
 4835TIP3   OH214510   4.497   2.198   4.332
 4835TIP3    H114511   4.462   2.162   4.250
 4835TIP3    H214512   4.591   2.207   4.317
 4836TIP3   OH214513   4.652   3.445   3.778
 4836TIP3    H114514   4.696   3.462   3.862
 4836TIP3    H214515   4.576   3.503   3.779
 4837TIP3   OH214516   3.123   3.713   2.182
 4837TIP3    H114517   3.218   3.708   2.170
 4837TIP3    H214518   3.086   3.683   2.100
 4838TIP3   OH214519   2.665   3.383   3.451
 4838TIP3    H114520   2.700   3.438   3.521
 4838TIP3    H214521   2.743   3.347   3.408
 4839TIP3   OH214522   2.736   3.056   1.140
 4839TIP3    H114523   2.707   3.142   1.168
 4839TIP3    H214524   2.797   3.027   1.208
 4840TIP3   OH214525   5.920   4.566   4.997
 4840TIP3    H114526   6.011   4.571   4.967
 4840TIP3    H214527   5.924   4.592   5.089
 4841TIP3   OH214528   3.884   5.843   3.082
 4841TIP3    H114529   3.957   5.840   3.145
 4841TIP3    H214530   3.857   5.935   3.082
 4842TIP3   OH214531   5.368   2.695   2.204
 4842TIP3    H114532   5.335   2.693   2.294
 4842TIP3    H214533   5.312   2.634   2.157
 4843TIP3   OH214534   4.789   1.762   3.900
 4843TIP3    H114535   4.818   1.819   3.971
 4843TIP3    H214536   4.859   1.767   3.835
 4844TIP3   OH214537   1.049   5.090   1.899
 4844TIP3    H114538   1.036   5.145   1.822
 4844TIP3    H214539   1.139   5.060   1.893
 4845TIP3   OH214540   5.319   3.506   1.733
 4845TIP3    H114541   5.336   3.600   1.742
 4845TIP3    H214542   5.267   3.483   1.810
 4846TIP3   OH214543   3.075   1.424   2.693
 4846TIP3    H114544   3.031   1.466   2.619
 4846TIP3    H214545   3.016   1.354   2.719
 4847TIP3   OH214546   4.203   4.682   1.182
 4847TIP3    H114547   4.297   4.678   1.197
 4847TIP3    H214548   4.165   4.631   1.254
 4848TIP3   OH214549   2.034   4.114   2.170
 4848TIP3    H114550   1.973   4.050   2.207
 4848TIP3    H214551   2.039   4.183   2.237
 4849TIP3   OH214552   0.720   1.945   1.752
 4849TIP3    H114553   0.625   1.937   1.748
 4849TIP3    H214554   0.743   2.003   1.679
 4850TIP3   OH214555   2.117   3.892   2.465
 4850TIP3    H114556   2.092   3.958   2.529
 4850TIP3    H214557   2.212   3.902   2.456
 4851TIP3   OH214558   3.035   1.092   2.828
 4851TIP3    H114559   3.119   1.064   2.790
 4851TIP3    H214560   2.988   1.010   2.845
 4852TIP3   OH214561   2.389   5.856   1.392
 4852TIP3    H114562   2.377   5.769   1.430
 4852TIP3    H214563   2.415   5.838   1.301
 4853TIP3   OH214564   2.572   0.190   2.200
 4853TIP3    H114565   2.571   0.163   2.108
 4853TIP3    H214566   2.600   0.281   2.198
 4854TIP3   OH214567   2.733   5.540   2.417
 4854TIP3    H114568   2.759   5.542   2.324
 4854TIP3    H214569   2.775   5.461   2.451
 4855TIP3   OH214570   2.735   0.316   0.125
 4855TIP3    H114571   2.814   0.308   0.179
 4855TIP3    H214572   2.670   0.355   0.183
 4856TIP3   OH214573   3.305   5.792   2.905
 4856TIP3    H114574   3.226   5.835   2.872
 4856TIP3    H214575   3.274   5.708   2.938
 4857TIP3   OH214576   5.015   4.976   3.707
 4857TIP3    H114577   5.036   5.031   3.782
 4857TIP3    H214578   4.933   4.933   3.731
 4858TIP3   OH214579   1.857   2.797   3.057
 4858TIP3    H114580   1.817   2.734   2.997
 4858TIP3    H214581   1.951   2.792   3.038
 4859TIP3   OH214582   6.302   0.099   4.715
 4859TIP3    H114583   6.360   0.173   4.698
 4859TIP3    H214584   6.218   0.138   4.739
 4860TIP3   OH214585   3.197   0.181   0.163
 4860TIP3    H114586   3.238   0.107   0.208
 4860TIP3    H214587   3.220   0.257   0.217
 4861TIP3   OH214588   3.436   0.641   4.931
 4861TIP3    H114589   3.422   0.633   4.837
 4861TIP3    H214590   3.425   0.734   4.949
 4862TIP3   OH214591   1.286   2.738   1.872
 4862TIP3    H114592   1.350   2.783   1.817
 4862TIP3    H214593   1.227   2.807   1.903
 4863TIP3   OH214594   6.271   1.777   2.296
 4863TIP3    H114595   6.189   1.736   2.323
 4863TIP3    H214596   6.275   1.859   2.346
 4864TIP3   OH214597   5.129   2.189   0.586
 4864TIP3    H114598   5.132   2.214   0.493
 4864TIP3    H214599   5.059   2.125   0.591
 4865TIP3   OH214600   1.032   5.430   2.722
 4865TIP3    H114601   1.041   5.369   2.795
 4865TIP3    H214602   0.942   5.416   2.691
 4866TIP3   OH214603   4.918   0.957   3.074
 4866TIP3    H114604   4.839   0.913   3.106
 4866TIP3    H214605   4.931   0.922   2.985
 4867TIP3   OH214606   6.265   5.705   4.652
 4867TIP3    H114607   6.336   5.769   4.645
 4867TIP3    H214608   6.283   5.641   4.583
 4868TIP3   OH214609   6.311   1.824   0.985
 4868TIP3    H114610   6.289   1.859   0.899
 4868TIP3    H214611   6.260   1.744   0.992
 4869TIP3   OH214612   5.680   5.553   1.172
 4869TIP3    H114613   5.691   5.458   1.171
 4869TIP3    H214614   5.723   5.584   1.092
 4870TIP3   OH214615   4.864   3.344   1.143
 4870TIP3    H114616   4.955   3.363   1.120
 4870TIP3    H214617   4.863   3.339   1.238
 4871TIP3   OH214618   3.370   3.600   1.882
 4871TIP3    H114619   3.388   3.647   1.963
 4871TIP3    H214620   3.453   3.558   1.859
 4872TIP3   OH214621   1.110   2.564   1.524
 4872TIP3    H114622   1.069   2.512   1.594
 4872TIP3    H214623   1.036   2.596   1.472
 4873TIP3   OH214624   2.645   3.293   0.174
 4873TIP3    H114625   2.580   3.295   0.245
 4873TIP3    H214626   2.624   3.213   0.125
 4874TIP3   OH214627   5.647   1.154   0.188
 4874TIP3    H114628   5.631   1.232   0.241
 4874TIP3    H214629   5.664   1.085   0.252
 4875TIP3   OH214630   1.983   5.317   2.490
 4875TIP3    H114631   1.992   5.408   2.516
 4875TIP3    H214632   1.889   5.301   2.489
 4876TIP3   OH214633   1.557   0.566   0.713
 4876TIP3    H114634   1.519   0.620   0.782
 4876TIP3    H214635   1.481   0.537   0.662
 4877TIP3   OH214636   1.658   5.727   1.000
 4877TIP3    H114637   1.647   5.652   0.941
 4877TIP3    H214638   1.588   5.716   1.065
 4878TIP3   OH214639   2.773   5.080   1.320
 4878TIP3    H114640   2.814   5.166   1.331
 4878TIP3    H214641   2.729   5.084   1.236
 4879TIP3   OH214642   5.480   5.529   2.180
 4879TIP3    H114643   5.549   5.594   2.197
 4879TIP3    H214644   5.398   5.577   2.196
 4880TIP3   OH214645   0.327   1.934   3.545
 4880TIP3    H114646   0.347   1.987   3.468
 4880TIP3    H214647   0.412   1.910   3.581
 4881TIP3   OH214648   2.092   5.752   2.006
 4881TIP3    H114649   2.102   5.663   2.040
 4881TIP3    H214650   2.146   5.805   2.065
 4882TIP3   OH214651   1.023   4.797   1.699
 4882TIP3    H114652   1.086   4.774   1.630
 4882TIP3    H214653   1.011   4.717   1.749
 4883TIP3   OH214654   3.038   0.500   0.166
 4883TIP3    H114655   3.104   0.541   0.222
 4883TIP3    H214656   2.978   0.458   0.228
 4884TIP3   OH214657   4.259   5.102   1.924
 4884TIP3    H114658   4.217   5.141   1.848
 4884TIP3    H214659   4.316   5.171   1.958
 4885TIP3   OH214660   5.852   3.347   4.390
 4885TIP3    H114661   5.795   3.353   4.313
 4885TIP3    H214662   5.793   3.355   4.465
 4886TIP3   OH214663   4.652   1.290   3.123
 4886TIP3    H114664   4.639   1.384   3.136
 4886TIP3    H214665   4.744   1.275   3.145
 4887TIP3   OH214666   4.697   1.574   1.536
 4887TIP3    H114667   4.624   1.606   1.588
 4887TIP3    H214668   4.752   1.651   1.521
 4888TIP3   OH214669   1.240   0.858   4.140
 4888TIP3    H114670   1.146   0.855   4.124
 4888TIP3    H214671   1.249   0.914   4.217
 4889TIP3   OH214672   3.718   0.298   3.496
 4889TIP3    H114673   3.760   0.238   3.434
 4889TIP3    H214674   3.626   0.269   3.498
 4890TIP3   OH214675   3.221   0.524   4.268
 4890TIP3    H114676   3.302   0.474   4.260
 4890TIP3    H214677   3.162   0.486   4.203
 4891TIP3   OH214678   6.148   3.442   0.380
 4891TIP3    H114679   6.176   3.364   0.428
 4891TIP3    H214680   6.176   3.425   0.289
 4892TIP3   OH214681   4.272   4.218   2.869
 4892TIP3    H114682   4.335   4.263   2.813
 4892TIP3    H214683   4.213   4.173   2.809
 4893TIP3   OH214684   1.094   2.258   1.472
 4893TIP3    H114685   1.184   2.277   1.499
 4893TIP3    H214686   1.075   2.172   1.510
 4894TIP3   OH214687   3.823   4.701   4.874
 4894TIP3    H114688   3.889   4.646   4.916
 4894TIP3    H214689   3.868   4.783   4.855
 4895TIP3   OH214690   1.481   0.140   1.723
 4895TIP3    H114691   1.470   0.068   1.786
 4895TIP3    H214692   1.453   0.218   1.771
 4896TIP3   OH214693   2.838   0.916   4.774
 4896TIP3    H114694   2.756   0.956   4.800
 4896TIP3    H214695   2.816   0.824   4.756
 4897TIP3   OH214696   5.236   4.219   3.958
 4897TIP3    H114697   5.272   4.153   3.899
 4897TIP3    H214698   5.306   4.284   3.968
 4898TIP3   OH214699   3.519   5.664   1.049
 4898TIP3    H114700   3.593   5.725   1.051
 4898TIP3    H214701   3.441   5.720   1.055
 4899TIP3   OH214702   4.919   5.380   3.385
 4899TIP3    H114703   5.013   5.364   3.385
 4899TIP3    H214704   4.884   5.322   3.452
 4900TIP3   OH214705   5.050   1.993   3.190
 4900TIP3    H114706   5.064   1.900   3.170
 4900TIP3    H214707   5.127   2.037   3.155
 4901TIP3   OH214708   5.617   4.074   4.803
 4901TIP3    H114709   5.634   4.077   4.709
 4901TIP3    H214710   5.704   4.069   4.843
 4902TIP3   OH214711   1.778   1.376   3.763
 4902TIP3    H114712   1.802   1.340   3.848
 4902TIP3    H214713   1.859   1.414   3.730
 4903TIP3   OH214714   0.398   5.013   2.006
 4903TIP3    H114715   0.361   5.025   2.093
 4903TIP3    H214716   0.461   4.942   2.016
 4904TIP3   OH214717   4.635   4.647   1.437
 4904TIP3    H114718   4.671   4.636   1.349
 4904TIP3    H214719   4.601   4.560   1.460
 4905TIP3   OH214720   0.717   0.059   3.437
 4905TIP3    H114721   0.811   0.065   3.423
 4905TIP3    H214722   0.679   0.061   3.349
 4906TIP3   OH214723   3.388   0.616   3.963
 4906TIP3    H114724   3.299   0.606   3.929
 4906TIP3    H214725   3.392   0.555   4.037
 4907TIP3   OH214726   0.670   3.136   4.032
 4907TIP3    H114727   0.738   3.202   4.026
 4907TIP3    H214728   0.711   3.063   4.077
 4908TIP3   OH214729   0.267   0.036   3.933
 4908TIP3    H114730   0.291  -0.017   3.858
 4908TIP3    H214731   0.350   0.063   3.972
 4909TIP3   OH214732   0.497   2.444   1.215
 4909TIP3    H114733   0.404   2.451   1.195
 4909TIP3    H214734   0.541   2.466   1.133
 4910TIP3   OH214735   5.006   3.485   1.729
 4910TIP3    H114736   4.988   3.576   1.703
 4910TIP3    H214737   5.089   3.464   1.687
 4911TIP3   OH214738   2.731   5.404   0.858
 4911TIP3    H114739   2.786   5.467   0.811
 4911TIP3    H214740   2.771   5.398   0.945
 4912TIP3   OH214741   0.592   3.975   3.362
 4912TIP3    H114742   0.519   4.028   3.329
 4912TIP3    H214743   0.653   3.970   3.289
 4913TIP3   OH214744   2.337   0.940   1.522
 4913TIP3    H114745   2.370   0.887   1.595
 4913TIP3    H214746   2.295   0.876   1.464
 4914TIP3   OH214747   2.201   5.318   0.672
 4914TIP3    H114748   2.253   5.344   0.749
 4914TIP3    H214749   2.189   5.223   0.683
 4915TIP3   OH214750   1.823   0.055   0.939
 4915TIP3    H114751   1.854   0.034   0.852
 4915TIP3    H214752   1.837   0.150   0.947
 4916TIP3   OH214753   2.753   3.286   2.996
 4916TIP3    H114754   2.781   3.220   3.059
 4916TIP3    H214755   2.682   3.333   3.040
 4917TIP3   OH214756   4.936   5.923   3.845
 4917TIP3    H114757   4.923   5.934   3.751
 4917TIP3    H214758   4.952   6.012   3.877
 4918TIP3   OH214759   6.241   0.290   0.304
 4918TIP3    H114760   6.308   0.243   0.353
 4918TIP3    H214761   6.289   0.359   0.258
 4919TIP3   OH214762   0.241   1.353   3.041
 4919TIP3    H114763   0.231   1.358   2.946
 4919TIP3    H214764   0.167   1.300   3.070
 4920TIP3   OH214765   3.683   4.472   4.254
 4920TIP3    H114766   3.750   4.486   4.321
 4920TIP3    H214767   3.685   4.378   4.238
 4921TIP3   OH214768   4.001   5.332   2.736
 4921TIP3    H114769   3.921   5.358   2.692
 4921TIP3    H214770   4.007   5.237   2.721
 4922TIP3   OH214771   4.736   3.850   1.531
 4922TIP3    H114772   4.771   3.921   1.478
 4922TIP3    H214773   4.678   3.894   1.594
 4923TIP3   OH214774   5.635   5.601   0.787
 4923TIP3    H114775   5.664   5.511   0.770
 4923TIP3    H214776   5.543   5.593   0.809
 4924TIP3   OH214777   2.746   2.539   2.051
 4924TIP3    H114778   2.741   2.488   2.132
 4924TIP3    H214779   2.785   2.623   2.078
 4925TIP3   OH214780   3.586   1.657   1.132
 4925TIP3    H114781   3.505   1.642   1.182
 4925TIP3    H214782   3.642   1.583   1.155
 4926TIP3   OH214783   2.934   5.389   1.027
 4926TIP3    H114784   2.963   5.321   0.966
 4926TIP3    H214785   2.961   5.357   1.113
 4927TIP3   OH214786   4.588   3.689   3.412
 4927TIP3    H114787   4.508   3.694   3.463
 4927TIP3    H214788   4.583   3.763   3.351
 4928TIP3   OH214789   2.393   5.290   2.445
 4928TIP3    H114790   2.417   5.316   2.357
 4928TIP3    H214791   2.370   5.372   2.489
 4929TIP3   OH214792   5.116   3.996   2.006
 4929TIP3    H114793   5.046   3.975   1.944
 4929TIP3    H214794   5.197   3.982   1.956
 4930TIP3   OH214795   4.820   4.821   3.834
 4930TIP3    H114796   4.848   4.815   3.925
 4930TIP3    H214797   4.743   4.765   3.829
 4931TIP3   OH214798   2.042   3.677   3.670
 4931TIP3    H114799   2.055   3.708   3.580
 4931TIP3    H214800   2.123   3.631   3.691
 4932TIP3   OH214801   1.375   1.809   4.919
 4932TIP3    H114802   1.441   1.805   4.988
 4932TIP3    H214803   1.425   1.810   4.837
 4933TIP3   OH214804   1.158   0.924   5.209
 4933TIP3    H114805   1.167   0.899   5.117
 4933TIP3    H214806   1.119   0.848   5.251
 4934TIP3   OH214807   1.044   3.853   3.017
 4934TIP3    H114808   1.034   3.779   2.958
 4934TIP3    H214809   1.109   3.825   3.081
 4935TIP3   OH214810   0.206   5.244   2.848
 4935TIP3    H114811   0.168   5.228   2.934
 4935TIP3    H214812   0.151   5.194   2.788
 4936TIP3   OH214813   4.826   2.703   1.270
 4936TIP3    H114814   4.803   2.779   1.216
 4936TIP3    H214815   4.774   2.631   1.233
 4937TIP3   OH214816   0.991   3.285   1.336
 4937TIP3    H114817   0.913   3.262   1.386
 4937TIP3    H214818   0.992   3.222   1.263
 4938TIP3   OH214819   1.923   0.876   2.186
 4938TIP3    H114820   1.930   0.949   2.247
 4938TIP3    H214821   2.013   0.846   2.173
 4939TIP3   OH214822   0.967   5.713   3.706
 4939TIP3    H114823   0.969   5.805   3.682
 4939TIP3    H214824   0.879   5.683   3.680
 4940TIP3   OH214825   1.039   4.085   1.897
 4940TIP3    H114826   1.064   3.996   1.871
 4940TIP3    H214827   0.989   4.119   1.823
 4941TIP3   OH214828   3.428   5.550   0.385
 4941TIP3    H114829   3.397   5.640   0.375
 4941TIP3    H214830   3.498   5.556   0.450
 4942TIP3   OH214831   4.273   1.283   0.477
 4942TIP3    H114832   4.267   1.268   0.382
 4942TIP3    H214833   4.364   1.266   0.498
 4943TIP3   OH214834   5.039   1.174   2.757
 4943TIP3    H114835   4.956   1.169   2.804
 4943TIP3    H214836   5.040   1.261   2.718
 4944TIP3   OH214837   2.649   0.493   1.728
 4944TIP3    H114838   2.587   0.556   1.691
 4944TIP3    H214839   2.647   0.419   1.668
 4945TIP3   OH214840   0.509   4.493   1.482
 4945TIP3    H114841   0.470   4.409   1.505
 4945TIP3    H214842   0.537   4.530   1.565
 4946TIP3   OH214843   1.999   4.220   2.842
 4946TIP3    H114844   1.943   4.144   2.855
 4946TIP3    H214845   1.985   4.274   2.920
 4947TIP3   OH214846   2.712   1.124   5.023
 4947TIP3    H114847   2.652   1.194   5.047
 4947TIP3    H214848   2.689   1.102   4.933
 4948TIP3   OH214849   2.644   1.509   3.835
 4948TIP3    H114850   2.735   1.480   3.826
 4948TIP3    H214851   2.645   1.600   3.807
 4949TIP3   OH214852   2.987   4.128   1.830
 4949TIP3    H114853   2.988   4.157   1.739
 4949TIP3    H214854   2.949   4.040   1.827
 4950TIP3   OH214855   1.939   1.083   2.371
 4950TIP3    H114856   2.027   1.087   2.334
 4950TIP3    H214857   1.948   1.023   2.445
 4951TIP3   OH214858   5.510   4.562   3.437
 4951TIP3    H114859   5.568   4.620   3.387
 4951TIP3    H214860   5.522   4.476   3.396
 4952TIP3   OH214861   3.874   3.578   1.451
 4952TIP3    H114862   3.903   3.550   1.364
 4952TIP3    H214863   3.812   3.511   1.478
 4953TIP3   OH214864   2.351   4.545   4.541
 4953TIP3    H114865   2.281   4.567   4.602
 4953TIP3    H214866   2.310   4.485   4.478
 4954TIP3   OH214867   5.576   2.020   3.785
 4954TIP3    H114868   5.581   2.113   3.804
 4954TIP3    H214869   5.649   1.981   3.833
 4955TIP3   OH214870   5.501   1.487   4.671
 4955TIP3    H114871   5.489   1.569   4.625
 4955TIP3    H214872   5.413   1.462   4.699
 4956TIP3   OH214873   3.988   5.467   3.453
 4956TIP3    H114874   4.045   5.421   3.515
 4956TIP3    H214875   3.967   5.550   3.495
 4957TIP3   OH214876   5.824   4.905   4.094
 4957TIP3    H114877   5.826   4.820   4.138
 4957TIP3    H214878   5.875   4.962   4.151
 4958TIP3   OH214879   3.886   5.838   2.619
 4958TIP3    H114880   3.872   5.922   2.575
 4958TIP3    H214881   3.979   5.839   2.642
 4959TIP3   OH214882   0.085   0.952   4.617
 4959TIP3    H114883   0.019   1.008   4.658
 4959TIP3    H214884   0.136   0.918   4.691
 4960TIP3   OH214885   3.884   0.771   2.440
 4960TIP3    H114886   3.924   0.815   2.366
 4960TIP3    H214887   3.947   0.781   2.511
 4961TIP3   OH214888   1.522   0.399   4.018
 4961TIP3    H114889   1.554   0.385   4.107
 4961TIP3    H214890   1.442   0.348   4.013
 4962TIP3   OH214891   3.521   1.207   0.213
 4962TIP3    H114892   3.613   1.178   0.216
 4962TIP3    H214893   3.474   1.140   0.262
 4963TIP3   OH214894   0.710   5.073   3.804
 4963TIP3    H114895   0.638   5.011   3.796
 4963TIP3    H214896   0.789   5.019   3.798
 4964TIP3   OH214897   2.785   4.830   3.323
 4964TIP3    H114898   2.805   4.921   3.343
 4964TIP3    H214899   2.824   4.815   3.237
 4965TIP3   OH214900   4.824   2.318   0.049
 4965TIP3    H114901   4.815   2.261   0.125
 4965TIP3    H214902   4.744   2.371   0.048
 4966TIP3   OH214903   1.617   4.519   3.688
 4966TIP3    H114904   1.546   4.550   3.745
 4966TIP3    H214905   1.573   4.487   3.610
 4967TIP3   OH214906   6.230   2.872   0.182
 4967TIP3    H114907   6.152   2.882   0.128
 4967TIP3    H214908   6.212   2.796   0.237
 4968TIP3   OH214909   1.406   5.200   2.360
 4968TIP3    H114910   1.400   5.281   2.309
 4968TIP3    H214911   1.376   5.132   2.299
 4969TIP3   OH214912   5.021   5.613   4.525
 4969TIP3    H114913   4.983   5.662   4.452
 4969TIP3    H214914   5.088   5.558   4.484
 4970TIP3   OH214915   1.173   2.923   2.804
 4970TIP3    H114916   1.106   2.854   2.801
 4970TIP3    H214917   1.202   2.932   2.714
 4971TIP3   OH214918   5.558   4.887   1.736
 4971TIP3    H114919   5.601   4.802   1.725
 4971TIP3    H214920   5.612   4.933   1.801
 4972TIP3   OH214921   2.360   3.027   2.034
 4972TIP3    H114922   2.296   2.961   2.059
 4972TIP3    H214923   2.336   3.105   2.084
 4973TIP3   OH214924   2.262   3.482   4.477
 4973TIP3    H114925   2.224   3.395   4.490
 4973TIP3    H214926   2.194   3.543   4.509
 4974TIP3   OH214927   1.066   3.204   1.912
 4974TIP3    H114928   1.084   3.295   1.934
 4974TIP3    H214929   0.980   3.186   1.949
 4975TIP3   OH214930   3.211   5.449   1.380
 4975TIP3    H114931   3.229   5.483   1.292
 4975TIP3    H214932   3.267   5.501   1.438
 4976TIP3   OH214933   4.275   4.239   2.505
 4976TIP3    H114934   4.341   4.172   2.491
 4976TIP3    H214935   4.324   4.322   2.506
 4977TIP3   OH214936   3.299   1.390   0.952
 4977TIP3    H114937   3.243   1.327   0.907
 4977TIP3    H214938   3.332   1.343   1.029
 4978TIP3   OH214939   4.734   0.323   2.929
 4978TIP3    H114940   4.702   0.250   2.875
 4978TIP3    H214941   4.663   0.342   2.990
 4979TIP3   OH214942   1.216   2.700   2.963
 4979TIP3    H114943   1.282   2.753   2.918
 4979TIP3    H214944   1.150   2.681   2.896
 4980TIP3   OH214945   5.932   0.121   3.072
 4980TIP3    H114946   5.944   0.173   3.151
 4980TIP3    H214947   6.002   0.150   3.014
 4981TIP3   OH214948   0.906   2.947   4.523
 4981TIP3    H114949   0.979   2.996   4.485
 4981TIP3    H214950   0.828   2.990   4.487
 4982TIP3   OH214951   6.228   5.785   0.392
 4982TIP3    H114952   6.168   5.780   0.317
 4982TIP3    H214953   6.267   5.698   0.398
 4983TIP3   OH214954   0.197   3.564   1.394
 4983TIP3    H114955   0.152   3.530   1.471
 4983TIP3    H214956   0.132   3.561   1.324
 4984TIP3   OH214957   1.305   2.487   2.075
 4984TIP3    H114958   1.340   2.535   2.149
 4984TIP3    H214959   1.254   2.552   2.026
 4985TIP3   OH214960   1.379   5.214   3.529
 4985TIP3    H114961   1.398   5.258   3.611
 4985TIP3    H214962   1.452   5.240   3.471
 4986TIP3   OH214963   2.875   5.993   4.401
 4986TIP3    H114964   2.842   5.914   4.358
 4986TIP3    H214965   2.835   5.993   4.488
 4987TIP3   OH214966   1.414   0.581   2.461
 4987TIP3    H114967   1.502   0.556   2.489
 4987TIP3    H214968   1.412   0.676   2.468
 4988TIP3   OH214969   2.400   2.306   2.399
 4988TIP3    H114970   2.381   2.319   2.492
 4988TIP3    H214971   2.388   2.212   2.385
 4989TIP3   OH214972   6.003   1.253   3.179
 4989TIP3    H114973   5.919   1.253   3.133
 4989TIP3    H214974   6.053   1.183   3.136
 4990TIP3   OH214975   4.138   3.246   1.281
 4990TIP3    H114976   4.091   3.228   1.362
 4990TIP3    H214977   4.226   3.213   1.296
 4991TIP3   OH214978   4.048   4.264   4.862
 4991TIP3    H114979   4.136   4.251   4.827
 4991TIP3    H214980   4.005   4.180   4.850
 4992TIP3   OH214981   5.923   4.807   3.441
 4992TIP3    H114982   6.019   4.800   3.441
 4992TIP3    H214983   5.893   4.721   3.414
 4993TIP3   OH214984   5.698   1.559   2.757
 4993TIP3    H114985   5.730   1.565   2.667
 4993TIP3    H214986   5.648   1.477   2.760
 4994TIP3   OH214987   5.005   1.735   4.311
 4994TIP3    H114988   4.955   1.655   4.296
 4994TIP3    H214989   5.090   1.718   4.271
 4995TIP3   OH214990   4.951   0.640   1.916
 4995TIP3    H114991   4.959   0.611   2.007
 4995TIP3    H214992   4.927   0.561   1.868
 4996TIP3   OH214993   1.739   4.593   2.316
 4996TIP3    H114994   1.688   4.546   2.382
 4996TIP3    H214995   1.695   4.678   2.308
 4997TIP3   OH214996   2.116   0.233   1.724
 4997TIP3    H114997   2.054   0.304   1.740
 4997TIP3    H214998   2.193   0.277   1.687
 4998TIP3   OH214999   0.491   5.481   1.202
 4998TIP3    H115000   0.578   5.472   1.242
 4998TIP3    H215001   0.501   5.447   1.114
 4999TIP3   OH215002   2.805   5.287   2.542
 4999TIP3    H115003   2.808   5.241   2.626
 4999TIP3    H215004   2.864   5.238   2.485
 5000TIP3   OH215005   4.981   2.195   2.799
 5000TIP3    H115006   4.932   2.201   2.882
 5000TIP3    H215007   4.984   2.285   2.767
 5001TIP3   OH215008   0.909   2.617   2.359
 5001TIP3    H115009   0.908   2.528   2.395
 5001TIP3    H215010   0.965   2.611   2.282
 5002TIP3   OH215011   2.932   5.531   4.667
 5002TIP3    H115012   2.840   5.520   4.640
 5002TIP3    H215013   2.976   5.452   4.634
 5003TIP3   OH215014   4.519   5.832   4.330
 5003TIP3    H115015   4.465   5.883   4.391
 5003TIP3    H215016   4.562   5.898   4.275
 5004TIP3   OH215017   5.159   2.321   3.373
 5004TIP3    H115018   5.229   2.331   3.438
 5004TIP3    H215019   5.163   2.402   3.322
 5005TIP3   OH215020   0.558   5.495   3.437
 5005TIP3    H115021   0.470   5.528   3.418
 5005TIP3    H215022   0.546   5.401   3.449
 5006TIP3   OH215023   2.494   4.623   4.059
 5006TIP3    H115024   2.457   4.535   4.047
 5006TIP3    H215025   2.440   4.663   4.126
 5007TIP3   OH215026   0.529   1.171   0.691
 5007TIP3    H115027   0.534   1.262   0.663
 5007TIP3    H215028   0.595   1.164   0.761
 5008TIP3   OH215029   0.784   3.315   2.508
 5008TIP3    H115030   0.742   3.293   2.591
 5008TIP3    H215031   0.722   3.285   2.441
 5009TIP3   OH215032   6.219   0.357   3.659
 5009TIP3    H115033   6.126   0.379   3.647
 5009TIP3    H215034   6.256   0.433   3.704
 5010TIP3   OH215035   2.243   1.153   1.012
 5010TIP3    H115036   2.240   1.210   0.935
 5010TIP3    H215037   2.209   1.069   0.981
 5011TIP3   OH215038   0.871   3.853   3.445
 5011TIP3    H115039   0.809   3.868   3.374
 5011TIP3    H215040   0.939   3.919   3.432
 5012TIP3   OH215041   6.234   4.844   2.921
 5012TIP3    H115042   6.306   4.839   2.858
 5012TIP3    H215043   6.272   4.883   2.999
 5013TIP3   OH215044   1.769   1.751   0.925
 5013TIP3    H115045   1.819   1.829   0.949
 5013TIP3    H215046   1.687   1.785   0.889
 5014TIP3   OH215047   5.337   1.874   3.685
 5014TIP3    H115048   5.322   1.946   3.623
 5014TIP3    H215049   5.426   1.887   3.716
 5015TIP3   OH215050   2.412   3.556   1.843
 5015TIP3    H115051   2.494   3.554   1.892
 5015TIP3    H215052   2.363   3.480   1.875
 5016TIP3   OH215053   1.634   1.761   3.959
 5016TIP3    H115054   1.708   1.802   4.004
 5016TIP3    H215055   1.566   1.828   3.960
 5017TIP3   OH215056   1.954   3.278   3.703
 5017TIP3    H115057   2.012   3.220   3.752
 5017TIP3    H215058   1.866   3.248   3.726
 5018TIP3   OH215059   0.787   3.010   0.642
 5018TIP3    H115060   0.860   3.070   0.657
 5018TIP3    H215061   0.712   3.067   0.624
 5019TIP3   OH215062   5.934   3.579   0.750
 5019TIP3    H115063   5.945   3.511   0.684
 5019TIP3    H215064   5.841   3.601   0.746
 5020TIP3   OH215065   4.762   0.284   4.167
 5020TIP3    H115066   4.699   0.335   4.116
 5020TIP3    H215067   4.731   0.194   4.159
 5021TIP3   OH215068   1.353   5.614   1.876
 5021TIP3    H115069   1.292   5.544   1.852
 5021TIP3    H215070   1.298   5.692   1.881
 5022TIP3   OH215071   0.278   3.913   4.147
 5022TIP3    H115072   0.296   3.852   4.218
 5022TIP3    H215073   0.324   3.993   4.172
 5023TIP3   OH215074   2.870   4.876   3.063
 5023TIP3    H115075   2.896   4.966   3.046
 5023TIP3    H215076   2.843   4.842   2.978
 5024TIP3   OH215077   0.558   2.667   1.426
 5024TIP3    H115078   0.548   2.646   1.333
 5024TIP3    H215079   0.471   2.657   1.463
 5025TIP3   OH215080   2.181   5.720   1.197
 5025TIP3    H115081   2.119   5.792   1.205
 5025TIP3    H215082   2.263   5.763   1.172
 5026TIP3   OH215083   0.217   5.715   4.530
 5026TIP3    H115084   0.290   5.695   4.588
 5026TIP3    H215085   0.194   5.806   4.550
 5027TIP3   OH215086   2.399   4.184   0.818
 5027TIP3    H115087   2.481   4.233   0.806
 5027TIP3    H215088   2.344   4.211   0.744
 5028TIP3   OH215089   2.192   4.970   3.706
 5028TIP3    H115090   2.176   5.003   3.617
 5028TIP3    H215091   2.180   5.047   3.762
 5029TIP3   OH215092   1.651   4.453   0.455
 5029TIP3    H115093   1.662   4.358   0.464
 5029TIP3    H215094   1.558   4.469   0.472
 5030TIP3   OH215095   2.303   0.082   0.115
 5030TIP3    H115096   2.251   0.025   0.057
 5030TIP3    H215097   2.392   0.048   0.107
 5031TIP3   OH215098   3.832   3.125   0.944
 5031TIP3    H115099   3.906   3.070   0.919
 5031TIP3    H215100   3.756   3.084   0.902
 5032TIP3   OH215101   0.992   2.795   1.260
 5032TIP3    H115102   0.977   2.720   1.318
 5032TIP3    H215103   1.019   2.756   1.177
 5033TIP3   OH215104   5.234   2.593   1.092
 5033TIP3    H115105   5.231   2.652   1.016
 5033TIP3    H215106   5.230   2.652   1.168
 5034TIP3   OH215107   5.798   0.252   4.579
 5034TIP3    H115108   5.880   0.294   4.604
 5034TIP3    H215109   5.758   0.312   4.517
 5035TIP3   OH215110   0.309   5.745   1.651
 5035TIP3    H115111   0.349   5.707   1.572
 5035TIP3    H215112   0.294   5.671   1.708
 5036TIP3   OH215113   3.758   0.161   0.681
 5036TIP3    H115114   3.728   0.160   0.772
 5036TIP3    H215115   3.680   0.181   0.630
 5037TIP3   OH215116   2.266   5.393   3.135
 5037TIP3    H115117   2.324   5.317   3.129
 5037TIP3    H215118   2.184   5.363   3.095
 5038TIP3   OH215119   5.130   2.803   1.593
 5038TIP3    H115120   5.073   2.737   1.553
 5038TIP3    H215121   5.167   2.851   1.519
 5039TIP3   OH215122   2.338   2.592   4.720
 5039TIP3    H115123   2.245   2.577   4.701
 5039TIP3    H215124   2.356   2.537   4.796
 5040TIP3   OH215125   0.750   4.510   4.331
 5040TIP3    H115126   0.755   4.505   4.235
 5040TIP3    H215127   0.689   4.441   4.355
 5041TIP3   OH215128   2.486   4.787   3.438
 5041TIP3    H115129   2.429   4.842   3.492
 5041TIP3    H215130   2.540   4.740   3.501
 5042TIP3   OH215131   0.234   4.051   1.653
 5042TIP3    H115132   0.325   4.024   1.641
 5042TIP3    H215133   0.203   4.073   1.565
 5043TIP3   OH215134   2.082   2.638   4.517
 5043TIP3    H115135   2.008   2.594   4.475
 5043TIP3    H215136   2.159   2.593   4.483
 5044TIP3   OH215137   5.879   5.417   0.941
 5044TIP3    H115138   5.815   5.371   0.886
 5044TIP3    H215139   5.960   5.415   0.890
 5045TIP3   OH215140   0.176   4.836   2.437
 5045TIP3    H115141   0.174   4.745   2.407
 5045TIP3    H215142   0.266   4.850   2.466
 5046TIP3   OH215143   3.014   3.855   0.273
 5046TIP3    H115144   2.986   3.946   0.282
 5046TIP3    H215145   3.104   3.854   0.304
 5047TIP3   OH215146   1.783   3.492   1.255
 5047TIP3    H115147   1.726   3.430   1.301
 5047TIP3    H215148   1.758   3.484   1.163
 5048TIP3   OH215149   4.893   5.799   4.363
 5048TIP3    H115150   4.821   5.813   4.302
 5048TIP3    H215151   4.964   5.855   4.330
 5049TIP3   OH215152   1.523   3.533   4.226
 5049TIP3    H115153   1.614   3.507   4.211
 5049TIP3    H215154   1.507   3.513   4.318
 5050TIP3   OH215155   1.962   5.866   4.947
 5050TIP3    H115156   1.955   5.870   4.851
 5050TIP3    H215157   1.992   5.953   4.972
 5051TIP3   OH215158   3.260   1.212   1.615
 5051TIP3    H115159   3.229   1.145   1.554
 5051TIP3    H215160   3.354   1.199   1.619
 5052TIP3   OH215161   1.552   5.671   3.912
 5052TIP3    H115162   1.608   5.691   3.987
 5052TIP3    H215163   1.463   5.670   3.948
 5053TIP3   OH215164   3.804   4.570   0.736
 5053TIP3    H115165   3.710   4.583   0.750
 5053TIP3    H215166   3.831   4.647   0.686
 5054TIP3   OH215167   3.007   4.512   0.685
 5054TIP3    H115168   2.978   4.440   0.740
 5054TIP3    H215169   3.054   4.571   0.744
 5055TIP3   OH215170   1.408   3.476   1.828
 5055TIP3    H115171   1.323   3.456   1.866
 5055TIP3    H215172   1.424   3.568   1.850
 5056TIP3   OH215173   2.807   1.944   0.406
 5056TIP3    H115174   2.764   1.977   0.327
 5056TIP3    H215175   2.736   1.936   0.470
 5057TIP3   OH215176   1.396   1.988   0.413
 5057TIP3    H115177   1.340   1.978   0.490
 5057TIP3    H215178   1.449   1.908   0.412
 5058TIP3   OH215179   3.619   0.190   1.864
 5058TIP3    H115180   3.573   0.191   1.780
 5058TIP3    H215181   3.680   0.264   1.858
 5059TIP3   OH215182   5.247   5.102   3.686
 5059TIP3    H115183   5.184   5.033   3.707
 5059TIP3    H215184   5.219   5.177   3.739
 5060TIP3   OH215185   6.123   2.626   1.360
 5060TIP3    H115186   6.190   2.640   1.294
 5060TIP3    H215187   6.089   2.538   1.342
 5061TIP3   OH215188   3.223   4.688   0.799
 5061TIP3    H115189   3.237   4.723   0.887
 5061TIP3    H215190   3.197   4.763   0.747
 5062TIP3   OH215191   0.648   5.040   0.054
 5062TIP3    H115192   0.603   5.023   0.136
 5062TIP3    H215193   0.674   5.132   0.059
 5063TIP3   OH215194   0.240   5.911   3.339
 5063TIP3    H115195   0.299   5.984   3.322
 5063TIP3    H215196   0.158   5.935   3.296
 5064TIP3   OH215197   5.691   4.407   4.910
 5064TIP3    H115198   5.684   4.338   4.975
 5064TIP3    H215199   5.766   4.459   4.938
 5065TIP3   OH215200   3.977   0.606   0.843
 5065TIP3    H115201   4.030   0.586   0.765
 5065TIP3    H215202   4.023   0.561   0.914
 5066TIP3   OH215203   4.164   5.423   0.422
 5066TIP3    H115204   4.123   5.484   0.483
 5066TIP3    H215205   4.112   5.430   0.342
 5067TIP3   OH215206   0.757   3.545   2.773
 5067TIP3    H115207   0.833   3.541   2.832
 5067TIP3    H215208   0.714   3.460   2.784
 5068TIP3   OH215209   0.550   1.517   3.568
 5068TIP3    H115210   0.643   1.501   3.588
 5068TIP3    H215211   0.551   1.558   3.482
 5069TIP3   OH215212   0.043   3.014   3.400
 5069TIP3    H115213  -0.050   2.994   3.383
 5069TIP3    H215214   0.088   2.931   3.386
 5070TIP3   OH215215   0.128   5.355   4.200
 5070TIP3    H115216   0.073   5.297   4.147
 5070TIP3    H215217   0.073   5.380   4.274
 5071TIP3   OH215218   1.245   4.645   0.789
 5071TIP3    H115219   1.198   4.698   0.853
 5071TIP3    H215220   1.331   4.686   0.783
 5072TIP3   OH215221   2.321   2.157   0.175
 5072TIP3    H115222   2.263   2.159   0.098
 5072TIP3    H215223   2.394   2.215   0.152
 5073TIP3   OH215224   2.953   5.124   2.376
 5073TIP3    H115225   3.018   5.074   2.426
 5073TIP3    H215226   2.985   5.122   2.286
 5074TIP3   OH215227   4.825   0.499   4.360
 5074TIP3    H115228   4.822   0.417   4.312
 5074TIP3    H215229   4.831   0.473   4.452
 5075TIP3   OH215230   0.206   0.829   4.135
 5075TIP3    H115231   0.197   0.879   4.054
 5075TIP3    H215232   0.119   0.832   4.175
 5076TIP3   OH215233   1.468   5.912   1.909
 5076TIP3    H115234   1.383   5.897   1.867
 5076TIP3    H215235   1.491   6.002   1.884
 5077TIP3   OH215236   3.826   3.790   2.714
 5077TIP3    H115237   3.843   3.864   2.656
 5077TIP3    H215238   3.738   3.807   2.749
 5078TIP3   OH215239   3.030   1.269   3.266
 5078TIP3    H115240   3.026   1.353   3.312
 5078TIP3    H215241   3.007   1.290   3.176
 5079TIP3   OH215242   5.398   3.701   4.586
 5079TIP3    H115243   5.321   3.663   4.543
 5079TIP3    H215244   5.430   3.633   4.644
 5080TIP3   OH215245   2.904   1.516   0.551
 5080TIP3    H115246   2.834   1.553   0.605
 5080TIP3    H215247   2.942   1.447   0.604
 5081TIP3   OH215248   4.654   1.739   2.374
 5081TIP3    H115249   4.713   1.704   2.441
 5081TIP3    H215250   4.567   1.711   2.401
 5082TIP3   OH215251   2.287   4.715   1.839
 5082TIP3    H115252   2.260   4.806   1.840
 5082TIP3    H215253   2.302   4.695   1.747
 5083TIP3   OH215254   2.697   3.466   4.269
 5083TIP3    H115255   2.631   3.530   4.297
 5083TIP3    H215256   2.665   3.431   4.187
 5084TIP3   OH215257   1.442   4.426   2.798
 5084TIP3    H115258   1.367   4.400   2.745
 5084TIP3    H215259   1.515   4.373   2.764
 5085TIP3   OH215260   4.207   1.394   0.750
 5085TIP3    H115261   4.261   1.446   0.810
 5085TIP3    H215262   4.270   1.347   0.696
 5086TIP3   OH215263   3.845   2.881   1.913
 5086TIP3    H115264   3.839   2.915   2.002
 5086TIP3    H215265   3.875   2.790   1.924
 5087TIP3   OH215266   1.695   2.774   1.922
 5087TIP3    H115267   1.653   2.689   1.934
 5087TIP3    H215268   1.690   2.815   2.009
 5088TIP3   OH215269   4.767   3.552   0.638
 5088TIP3    H115270   4.746   3.565   0.730
 5088TIP3    H215271   4.811   3.467   0.635
 5089TIP3   OH215272   1.349   3.094   0.094
 5089TIP3    H115273   1.323   3.127   0.007
 5089TIP3    H215274   1.270   3.051   0.127
 5090TIP3   OH215275   6.060   5.772   3.464
 5090TIP3    H115276   6.057   5.762   3.369
 5090TIP3    H215277   5.983   5.826   3.485
 5091TIP3   OH215278   1.538   2.490   3.889
 5091TIP3    H115279   1.456   2.512   3.844
 5091TIP3    H215280   1.545   2.554   3.960
 5092TIP3   OH215281   0.768   1.163   3.133
 5092TIP3    H115282   0.699   1.229   3.136
 5092TIP3    H215283   0.726   1.087   3.092
 5093TIP3   OH215284   4.720   2.664   5.068
 5093TIP3    H115285   4.775   2.733   5.107
 5093TIP3    H215286   4.757   2.650   4.981
 5094TIP3   OH215287   2.773   3.160   4.627
 5094TIP3    H115288   2.860   3.126   4.605
 5094TIP3    H215289   2.790   3.239   4.678
 5095TIP3   OH215290   1.231   3.909   1.450
 5095TIP3    H115291   1.299   3.856   1.408
 5095TIP3    H215292   1.208   3.860   1.529
 5096TIP3   OH215293   1.942   0.336   3.519
 5096TIP3    H115294   1.921   0.428   3.532
 5096TIP3    H215295   2.035   0.335   3.495
 5097TIP3   OH215296   1.458   5.263   1.897
 5097TIP3    H115297   1.399   5.233   1.827
 5097TIP3    H215298   1.530   5.199   1.897
 5098TIP3   OH215299   4.705   2.264   0.635
 5098TIP3    H115300   4.770   2.261   0.564
 5098TIP3    H215301   4.685   2.172   0.653
 5099TIP3   OH215302   0.391   4.296   1.688
 5099TIP3    H115303   0.324   4.364   1.697
 5099TIP3    H215304   0.356   4.221   1.736
 5100TIP3   OH215305   0.314   4.380   3.753
 5100TIP3    H115306   0.305   4.286   3.765
 5100TIP3    H215307   0.377   4.390   3.682
 5101TIP3   OH215308   0.720   2.927   1.335
 5101TIP3    H115309   0.788   2.860   1.341
 5101TIP3    H215310   0.696   2.929   1.242
 5102TIP3   OH215311   4.136   4.957   3.044
 5102TIP3    H115312   4.111   5.048   3.033
 5102TIP3    H215313   4.159   4.949   3.136
 5103TIP3   OH215314   4.892   2.715   0.659
 5103TIP3    H115315   4.936   2.735   0.576
 5103TIP3    H215316   4.936   2.769   0.723
 5104TIP3   OH215317   5.343   2.827   2.463
 5104TIP3    H115318   5.383   2.893   2.407
 5104TIP3    H215319   5.412   2.804   2.525
 5105TIP3   OH215320   2.134   1.941   3.342
 5105TIP3    H115321   2.052   1.906   3.306
 5105TIP3    H215322   2.177   1.983   3.268
 5106TIP3   OH215323   2.447   4.679   0.562
 5106TIP3    H115324   2.354   4.658   0.557
 5106TIP3    H215325   2.458   4.721   0.647
 5107TIP3   OH215326   5.121   0.473   2.340
 5107TIP3    H115327   5.168   0.434   2.266
 5107TIP3    H215328   5.125   0.567   2.324
 5108TIP3   OH215329   5.627   4.844   0.856
 5108TIP3    H115330   5.697   4.873   0.915
 5108TIP3    H215331   5.607   4.755   0.885
 5109TIP3   OH215332   0.056   4.581   3.436
 5109TIP3    H115333   0.127   4.642   3.459
 5109TIP3    H215334   0.069   4.563   3.343
 5110TIP3   OH215335   0.603   1.389   2.843
 5110TIP3    H115336   0.591   1.331   2.918
 5110TIP3    H215337   0.612   1.476   2.880
 5111TIP3   OH215338   3.774   1.672   0.073
 5111TIP3    H115339   3.737   1.761   0.075
 5111TIP3    H215340   3.816   1.662   0.158
 5112TIP3   OH215341   0.189   2.719   3.104
 5112TIP3    H115342   0.142   2.672   3.173
 5112TIP3    H215343   0.132   2.792   3.081
 5113TIP3   OH215344   3.363   4.077   4.039
 5113TIP3    H115345   3.319   4.060   4.123
 5113TIP3    H215346   3.384   3.990   4.005
 5114TIP3   OH215347   0.634   5.259   4.456
 5114TIP3    H115348   0.705   5.294   4.510
 5114TIP3    H215349   0.653   5.165   4.450
 5115TIP3   OH215350   4.979   5.394   0.103
 5115TIP3    H115351   4.889   5.415   0.080
 5115TIP3    H215352   5.015   5.351   0.025
 5116TIP3   OH215353   2.632   2.355   4.580
 5116TIP3    H115354   2.706   2.413   4.561
 5116TIP3    H215355   2.664   2.267   4.559
 5117TIP3   OH215356   3.410  -0.019   2.879
 5117TIP3    H115357   3.370   0.061   2.911
 5117TIP3    H215358   3.338  -0.069   2.840
 5118TIP3   OH215359   1.550   2.455   0.978
 5118TIP3    H115360   1.560   2.539   1.023
 5118TIP3    H215361   1.585   2.470   0.891
 5119TIP3   OH215362   2.431   5.807   1.114
 5119TIP3    H115363   2.400   5.828   1.026
 5119TIP3    H215364   2.519   5.770   1.100
 5120TIP3   OH215365   4.169   1.163   4.521
 5120TIP3    H115366   4.076   1.176   4.537
 5120TIP3    H215367   4.182   1.186   4.429
 5121TIP3   OH215368   0.636   1.427   1.245
 5121TIP3    H115369   0.677   1.511   1.225
 5121TIP3    H215370   0.566   1.419   1.179
 5122TIP3   OH215371   5.019   1.124   2.200
 5122TIP3    H115372   5.102   1.137   2.154
 5122TIP3    H215373   4.980   1.048   2.157
 5123TIP3   OH215374   3.787   3.569   0.096
 5123TIP3    H115375   3.816   3.600   0.182
 5123TIP3    H215376   3.746   3.645   0.055
 5124TIP3   OH215377   4.942   1.766   5.045
 5124TIP3    H115378   4.885   1.799   4.975
 5124TIP3    H215379   4.957   1.842   5.102
 5125TIP3   OH215380   6.176   4.996   4.734
 5125TIP3    H115381   6.239   5.001   4.661
 5125TIP3    H215382   6.091   4.993   4.691
 5126TIP3   OH215383   4.097   3.844   2.774
 5126TIP3    H115384   4.111   3.931   2.737
 5126TIP3    H215385   4.004   3.828   2.764
 5127TIP3   OH215386   5.644   4.034   2.716
 5127TIP3    H115387   5.671   3.949   2.681
 5127TIP3    H215388   5.548   4.033   2.708
 5128TIP3   OH215389   3.671   0.658   2.833
 5128TIP3    H115390   3.608   0.681   2.901
 5128TIP3    H215391   3.755   0.693   2.866
 5129TIP3   OH215392   1.580   1.018   2.447
 5129TIP3    H115393   1.564   1.075   2.522
 5129TIP3    H215394   1.634   0.947   2.482
 5130TIP3   OH215395   0.333   4.909   2.752
 5130TIP3    H115396   0.374   4.981   2.800
 5130TIP3    H215397   0.405   4.865   2.708
 5131TIP3   OH215398   1.904   0.731   1.616
 5131TIP3    H115399   1.842   0.660   1.628
 5131TIP3    H215400   1.948   0.711   1.533
 5132TIP3   OH215401   1.818   1.508   0.734
 5132TIP3    H115402   1.751   1.442   0.715
 5132TIP3    H215403   1.770   1.590   0.737
 5133TIP3   OH215404   5.317   1.399   0.202
 5133TIP3    H115405   5.269   1.375   0.281
 5133TIP3    H215406   5.408   1.407   0.230
 5134TIP3   OH215407   1.764   5.066   2.177
 5134TIP3    H115408   1.799   4.979   2.192
 5134TIP3    H215409   1.747   5.100   2.265
 5135TIP3   OH215410   2.866   0.885   2.838
 5135TIP3    H115411   2.813   0.908   2.762
 5135TIP3    H215412   2.803   0.871   2.909
 5136TIP3   OH215413   3.863   1.691   3.804
 5136TIP3    H115414   3.889   1.718   3.892
 5136TIP3    H215415   3.860   1.596   3.807
 5137TIP3   OH215416   3.627   2.327   0.724
 5137TIP3    H115417   3.705   2.315   0.671
 5137TIP3    H215418   3.646   2.282   0.806
 5138TIP3   OH215419   3.624   2.973   3.915
 5138TIP3    H115420   3.545   3.008   3.875
 5138TIP3    H215421   3.632   3.021   3.997
 5139TIP3   OH215422   2.445   2.874   0.529
 5139TIP3    H115423   2.537   2.900   0.540
 5139TIP3    H215424   2.396   2.953   0.553
 5140TIP3   OH215425   6.307   4.658   5.112
 5140TIP3    H115426   6.285   4.736   5.061
 5140TIP3    H215427   6.402   4.651   5.106
 5141TIP3   OH215428   0.929   1.180   3.400
 5141TIP3    H115429   0.882   1.148   3.323
 5141TIP3    H215430   0.937   1.275   3.387
 5142TIP3   OH215431   2.681   3.098   2.285
 5142TIP3    H115432   2.634   3.141   2.213
 5142TIP3    H215433   2.618   3.098   2.357
 5143TIP3   OH215434   5.795   1.324   2.338
 5143TIP3    H115435   5.886   1.345   2.320
 5143TIP3    H215436   5.782   1.237   2.299
 5144TIP3   OH215437   6.340   2.050   0.187
 5144TIP3    H115438   6.325   2.105   0.263
 5144TIP3    H215439   6.275   1.979   0.195
 5145TIP3   OH215440   5.785   5.946   1.544
 5145TIP3    H115441   5.722   5.906   1.485
 5145TIP3    H215442   5.738   6.021   1.581
 5146TIP3   OH215443   5.631   2.408   0.447
 5146TIP3    H115444   5.607   2.500   0.461
 5146TIP3    H215445   5.696   2.390   0.515
 5147TIP3   OH215446   4.848   2.789   3.827
 5147TIP3    H115447   4.840   2.862   3.767
 5147TIP3    H215448   4.802   2.717   3.784
 5148TIP3   OH215449   4.356   1.477   3.337
 5148TIP3    H115450   4.360   1.386   3.308
 5148TIP3    H215451   4.267   1.487   3.370
 5149TIP3   OH215452   1.438   0.679   1.876
 5149TIP3    H115453   1.404   0.753   1.926
 5149TIP3    H215454   1.495   0.719   1.811
 5150TIP3   OH215455   0.648   2.120   2.180
 5150TIP3    H115456   0.562   2.092   2.147
 5150TIP3    H215457   0.653   2.083   2.268
 5151TIP3   OH215458   3.533   0.162   0.274
 5151TIP3    H115459   3.617   0.208   0.270
 5151TIP3    H215460   3.501   0.163   0.184
 5152TIP3   OH215461   1.134   0.079   1.343
 5152TIP3    H115462   1.216   0.029   1.340
 5152TIP3    H215463   1.090   0.057   1.261
 5153TIP3   OH215464   4.217   2.428   1.327
 5153TIP3    H115465   4.265   2.347   1.309
 5153TIP3    H215466   4.254   2.460   1.410
 5154TIP3   OH215467   3.543   2.471   1.112
 5154TIP3    H115468   3.537   2.524   1.032
 5154TIP3    H215469   3.462   2.420   1.112
 5155TIP3   OH215470   4.466   5.174   4.081
 5155TIP3    H115471   4.464   5.122   4.162
 5155TIP3    H215472   4.543   5.142   4.034
 5156TIP3   OH215473   2.249   3.097   0.848
 5156TIP3    H115474   2.294   3.084   0.931
 5156TIP3    H215475   2.224   3.190   0.849
 5157TIP3   OH215476   6.087   0.756   1.305
 5157TIP3    H115477   6.041   0.699   1.243
 5157TIP3    H215478   6.166   0.783   1.258
 5158TIP3   OH215479   5.209   3.265   4.113
 5158TIP3    H115480   5.131   3.319   4.105
 5158TIP3    H215481   5.195   3.192   4.052
 5159TIP3   OH215482   1.503   1.169   2.644
 5159TIP3    H115483   1.525   1.133   2.730
 5159TIP3    H215484   1.408   1.156   2.636
 5160TIP3   OH215485   0.459   5.246   3.501
 5160TIP3    H115486   0.376   5.293   3.514
 5160TIP3    H215487   0.459   5.223   3.408
 5161TIP3   OH215488   5.498   1.692   3.380
 5161TIP3    H115489   5.423   1.749   3.363
 5161TIP3    H215490   5.476   1.648   3.463
 5162TIP3   OH215491   3.289   1.112   2.347
 5162TIP3    H115492   3.232   1.051   2.394
 5162TIP3    H215493   3.230   1.183   2.320
 5163TIP3   OH215494   2.679   4.714   1.513
 5163TIP3    H115495   2.734   4.659   1.457
 5163TIP3    H215496   2.657   4.658   1.588
 5164TIP3   OH215497   0.685   1.974   3.851
 5164TIP3    H115498   0.666   1.931   3.934
 5164TIP3    H215499   0.647   2.061   3.860
 5165TIP3   OH215500   4.505   4.482   4.799
 5165TIP3    H115501   4.549   4.428   4.864
 5165TIP3    H215502   4.546   4.458   4.716
 5166TIP3   OH215503   0.214   5.576   0.511
 5166TIP3    H115504   0.185   5.641   0.446
 5166TIP3    H215505   0.261   5.511   0.461
 5167TIP3   OH215506   3.151   4.623   4.499
 5167TIP3    H115507   3.173   4.708   4.538
 5167TIP3    H215508   3.185   4.559   4.561
 5168TIP3   OH215509   4.342   4.175   0.801
 5168TIP3    H115510   4.396   4.254   0.811
 5168TIP3    H215511   4.281   4.178   0.875
 5169TIP3   OH215512   4.181   3.220   4.236
 5169TIP3    H115513   4.098   3.252   4.271
 5169TIP3    H215514   4.162   3.201   4.144
 5170TIP3   OH215515   4.268   1.428   1.035
 5170TIP3    H115516   4.276   1.394   1.124
 5170TIP3    H215517   4.325   1.505   1.033
 5171TIP3   OH215518   1.056   0.112   4.370
 5171TIP3    H115519   1.117   0.134   4.299
 5171TIP3    H215520   0.969   0.117   4.330
 5172TIP3   OH215521   0.181   0.142   2.001
 5172TIP3    H115522   0.261   0.098   1.971
 5172TIP3    H215523   0.205   0.235   2.003
 5173TIP3   OH215524   5.606   1.558   1.360
 5173TIP3    H115525   5.676   1.540   1.298
 5173TIP3    H215526   5.550   1.480   1.357
 5174TIP3   OH215527   1.521   1.690   3.302
 5174TIP3    H115528   1.558   1.672   3.388
 5174TIP3    H215529   1.588   1.743   3.258
 5175TIP3   OH215530   3.421   4.242   1.148
 5175TIP3    H115531   3.478   4.284   1.212
 5175TIP3    H215532   3.477   4.177   1.105
 5176TIP3   OH215533   5.008   4.990   2.954
 5176TIP3    H115534   5.019   4.900   2.986
 5176TIP3    H215535   5.094   5.030   2.968
 5177TIP3   OH215536   5.713   0.395   4.360
 5177TIP3    H115537   5.748   0.371   4.275
 5177TIP3    H215538   5.618   0.391   4.349
 5178TIP3   OH215539   2.358   1.179   2.026
 5178TIP3    H115540   2.291   1.206   1.963
 5178TIP3    H215541   2.333   1.090   2.050
 5179TIP3   OH215542   5.510   3.351   2.140
 5179TIP3    H115543   5.493   3.274   2.085
 5179TIP3    H215544   5.598   3.337   2.174
 5180TIP3   OH215545   4.683   5.361   2.226
 5180TIP3    H115546   4.761   5.362   2.280
 5180TIP3    H215547   4.658   5.453   2.217
 5181TIP3   OH215548   4.419   0.987   3.453
 5181TIP3    H115549   4.502   0.993   3.404
 5181TIP3    H215550   4.384   1.076   3.451
 5182TIP3   OH215551   1.820   4.004   2.845
 5182TIP3    H115552   1.736   3.965   2.824
 5182TIP3    H215553   1.800   4.072   2.910
 5183TIP3   OH215554   4.430   4.633   4.024
 5183TIP3    H115555   4.409   4.597   4.110
 5183TIP3    H215556   4.445   4.726   4.040
 5184TIP3   OH215557   0.577   2.657   1.019
 5184TIP3    H115558   0.672   2.645   1.017
 5184TIP3    H215559   0.565   2.744   1.057
 5185TIP3   OH215560   5.451   5.804   4.942
 5185TIP3    H115561   5.376   5.821   4.886
 5185TIP3    H215562   5.413   5.779   5.026
 5186TIP3   OH215563   2.732   1.647   3.047
 5186TIP3    H115564   2.789   1.643   2.971
 5186TIP3    H215565   2.651   1.603   3.019
 5187TIP3   OH215566   5.327   3.997   1.789
 5187TIP3    H115567   5.298   4.016   1.700
 5187TIP3    H215568   5.350   4.082   1.826
 5188TIP3   OH215569   5.771   5.627   3.483
 5188TIP3    H115570   5.757   5.720   3.465
 5188TIP3    H215571   5.858   5.623   3.523
 5189TIP3   OH215572   5.793   3.836   2.984
 5189TIP3    H115573   5.834   3.769   2.930
 5189TIP3    H215574   5.831   3.918   2.954
 5190TIP3   OH215575   6.066   2.592   4.570
 5190TIP3    H115576   6.051   2.601   4.476
 5190TIP3    H215577   6.120   2.513   4.578
 5191TIP3   OH215578   3.938   4.351   3.583
 5191TIP3    H115579   3.935   4.262   3.549
 5191TIP3    H215580   3.847   4.375   3.597
 5192TIP3   OH215581   5.721   3.830   5.123
 5192TIP3    H115582   5.689   3.742   5.103
 5192TIP3    H215583   5.772   3.855   5.046
 5193TIP3   OH215584   2.501   3.164   0.425
 5193TIP3    H115585   2.413   3.138   0.453
 5193TIP3    H215586   2.518   3.245   0.474
 5194TIP3   OH215587   2.492   1.307   0.126
 5194TIP3    H115588   2.581   1.309   0.092
 5194TIP3    H215589   2.445   1.249   0.066
 5195TIP3   OH215590   0.499   2.961   1.517
 5195TIP3    H115591   0.569   2.918   1.469
 5195TIP3    H215592   0.494   2.914   1.600
 5196TIP3   OH215593   1.941   3.673   3.146
 5196TIP3    H115594   1.983   3.588   3.141
 5196TIP3    H215595   1.922   3.697   3.055
 5197TIP3   OH215596   1.129   2.838   4.253
 5197TIP3    H115597   1.033   2.838   4.251
 5197TIP3    H215598   1.153   2.758   4.205
 5198TIP3   OH215599   5.255   1.716   2.799
 5198TIP3    H115600   5.167   1.688   2.772
 5198TIP3    H215601   5.312   1.644   2.772
 5199TIP3   OH215602   1.134   0.818   1.390
 5199TIP3    H115603   1.095   0.830   1.476
 5199TIP3    H215604   1.227   0.837   1.404
 5200TIP3   OH215605   2.420   1.138   3.080
 5200TIP3    H115606   2.437   1.209   3.141
 5200TIP3    H215607   2.413   1.060   3.135
 5201TIP3   OH215608   2.713   5.577   4.971
 5201TIP3    H115609   2.632   5.625   4.987
 5201TIP3    H215610   2.719   5.574   4.875
 5202TIP3   OH215611   2.010   5.483   2.072
 5202TIP3    H115612   1.946   5.481   2.001
 5202TIP3    H215613   1.961   5.519   2.146
 5203TIP3   OH215614   3.306   0.992   3.037
 5203TIP3    H115615   3.264   1.055   2.979
 5203TIP3    H215616   3.377   0.954   2.985
 5204TIP3   OH215617   1.449   1.400   4.126
 5204TIP3    H115618   1.365   1.375   4.087
 5204TIP3    H215619   1.493   1.451   4.057
 5205TIP3   OH215620   1.284   4.359   2.596
 5205TIP3    H115621   1.260   4.267   2.598
 5205TIP3    H215622   1.209   4.403   2.556
 5206TIP3   OH215623   4.031   0.067   2.693
 5206TIP3    H115624   3.984  -0.013   2.717
 5206TIP3    H215625   3.975   0.109   2.629
 5207TIP3   OH215626   0.089   3.877   2.538
 5207TIP3    H115627   0.139   3.850   2.461
 5207TIP3    H215628   0.132   3.832   2.611
 5208TIP3   OH215629   3.085   5.485   3.647
 5208TIP3    H115630   3.069   5.448   3.734
 5208TIP3    H215631   3.008   5.540   3.630
 5209TIP3   OH215632   2.929   0.082   1.535
 5209TIP3    H115633   2.893   0.019   1.473
 5209TIP3    H215634   2.904   0.048   1.621
 5210TIP3   OH215635   4.967   4.217   3.023
 5210TIP3    H115636   5.000   4.279   3.088
 5210TIP3    H215637   4.978   4.131   3.065
 5211TIP3   OH215638   2.362   4.340   4.976
 5211TIP3    H115639   2.288   4.294   4.937
 5211TIP3    H215640   2.430   4.337   4.909
 5212TIP3   OH215641   0.324   3.818   1.344
 5212TIP3    H115642   0.403   3.765   1.347
 5212TIP3    H215643   0.255   3.761   1.379
 5213TIP3   OH215644   3.959   0.710   4.416
 5213TIP3    H115645   4.007   0.728   4.335
 5213TIP3    H215646   4.023   0.728   4.485
 5214TIP3   OH215647   1.698   5.114   1.921
 5214TIP3    H115648   1.725   5.095   2.011
 5214TIP3    H215649   1.729   5.204   1.907
 5215TIP3   OH215650   2.744   0.681   1.108
 5215TIP3    H115651   2.752   0.668   1.014
 5215TIP3    H215652   2.703   0.600   1.140
 5216TIP3   OH215653   0.780   4.277   0.706
 5216TIP3    H115654   0.803   4.258   0.797
 5216TIP3    H215655   0.728   4.357   0.711
 5217TIP3   OH215656   6.212   1.555   2.062
 5217TIP3    H115657   6.248   1.620   2.002
 5217TIP3    H215658   6.285   1.533   2.120
 5218TIP3   OH215659   0.866   0.318   2.305
 5218TIP3    H115660   0.924   0.280   2.371
 5218TIP3    H215661   0.780   0.279   2.323
 5219TIP3   OH215662   2.793   5.446   2.836
 5219TIP3    H115663   2.756   5.463   2.923
 5219TIP3    H215664   2.793   5.351   2.829
 5220TIP3   OH215665   5.286   3.564   2.672
 5220TIP3    H115666   5.293   3.581   2.765
 5220TIP3    H215667   5.372   3.532   2.646
 5221TIP3   OH215668   4.656   5.570   4.001
 5221TIP3    H115669   4.573   5.564   4.049
 5221TIP3    H215670   4.700   5.646   4.039
 5222TIP3   OH215671   1.351   3.647   0.133
 5222TIP3    H115672   1.321   3.693   0.054
 5222TIP3    H215673   1.284   3.580   0.149
 5223TIP3   OH215674   6.317   2.812   4.970
 5223TIP3    H115675   6.404   2.791   4.936
 5223TIP3    H215676   6.257   2.787   4.900
 5224TIP3   OH215677   3.635   5.809   0.398
 5224TIP3    H115678   3.686   5.875   0.350
 5224TIP3    H215679   3.569   5.859   0.446
 5225TIP3   OH215680   3.285   0.933   0.369
 5225TIP3    H115681   3.361   0.948   0.426
 5225TIP3    H215682   3.281   1.012   0.314
 5226TIP3   OH215683   4.602   2.470   4.096
 5226TIP3    H115684   4.674   2.421   4.057
 5226TIP3    H215685   4.628   2.562   4.087
 5227TIP3   OH215686   1.020   1.388   0.463
 5227TIP3    H115687   0.962   1.442   0.410
 5227TIP3    H215688   0.963   1.321   0.501
 5228TIP3   OH215689   1.355   0.659   5.191
 5228TIP3    H115690   1.387   0.588   5.135
 5228TIP3    H215691   1.392   0.738   5.153
 5229TIP3   OH215692   0.243   0.157   0.287
 5229TIP3    H115693   0.299   0.096   0.237
 5229TIP3    H215694   0.286   0.242   0.277
 5230TIP3   OH215695   0.208   0.203   1.022
 5230TIP3    H115696   0.159   0.198   0.940
 5230TIP3    H215697   0.299   0.186   0.997
 5231TIP3   OH215698   3.601   5.793   4.281
 5231TIP3    H115699   3.565   5.814   4.366
 5231TIP3    H215700   3.541   5.834   4.218
 5232TIP3   OH215701   1.095   1.586   5.157
 5232TIP3    H115702   1.000   1.596   5.154
 5232TIP3    H215703   1.115   1.580   5.251
 5233TIP3   OH215704   2.850   4.129   1.102
 5233TIP3    H115705   2.816   4.041   1.084
 5233TIP3    H215706   2.774   4.186   1.095
 5234TIP3   OH215707   2.993   0.468   2.118
 5234TIP3    H115708   3.015   0.467   2.212
 5234TIP3    H215709   2.945   0.387   2.104
 5235TIP3   OH215710   0.868   4.867   0.131
 5235TIP3    H115711   0.935   4.896   0.192
 5235TIP3    H215712   0.874   4.928   0.058
 5236TIP3   OH215713   2.693   0.446   4.219
 5236TIP3    H115714   2.608   0.451   4.262
 5236TIP3    H215715   2.745   0.388   4.274
 5237TIP3   OH215716   1.732   0.956   1.297
 5237TIP3    H115717   1.777   1.030   1.257
 5237TIP3    H215718   1.746   0.883   1.237
 5238TIP3   OH215719   5.444   4.439   1.658
 5238TIP3    H115720   5.490   4.512   1.617
 5238TIP3    H215721   5.508   4.402   1.719
 5239TIP3   OH215722   4.677   0.701   4.821
 5239TIP3    H115723   4.760   0.655   4.826
 5239TIP3    H215724   4.663   0.735   4.910
 5240TIP3   OH215725   4.122   2.819   4.778
 5240TIP3    H115726   4.028   2.800   4.778
 5240TIP3    H215727   4.162   2.734   4.797
 5241TIP3   OH215728   2.157   2.532   4.262
 5241TIP3    H115729   2.122   2.444   4.272
 5241TIP3    H215730   2.236   2.521   4.209
 5242TIP3   OH215731   4.542   0.149   0.042
 5242TIP3    H115732   4.637   0.136   0.039
 5242TIP3    H215733   4.523   0.161   0.135
 5243TIP3   OH215734   5.199   0.402   3.694
 5243TIP3    H115735   5.147   0.447   3.628
 5243TIP3    H215736   5.176   0.310   3.685
 5244TIP3   OH215737   5.634   3.105   1.770
 5244TIP3    H115738   5.637   3.195   1.736
 5244TIP3    H215739   5.644   3.050   1.692
 5245TIP3   OH215740   1.466   2.058   1.616
 5245TIP3    H115741   1.406   1.987   1.594
 5245TIP3    H215742   1.414   2.117   1.671
 5246TIP3   OH215743   3.482   5.702   0.108
 5246TIP3    H115744   3.547   5.765   0.077
 5246TIP3    H215745   3.503   5.689   0.200
 5247TIP3   OH215746   4.063   2.788   4.365
 5247TIP3    H115747   4.010   2.866   4.384
 5247TIP3    H215748   4.046   2.729   4.438
 5248TIP3   OH215749   5.381   1.448   4.335
 5248TIP3    H115750   5.426   1.529   4.357
 5248TIP3    H215751   5.356   1.458   4.244
 5249TIP3   OH215752   5.322   2.750   0.870
 5249TIP3    H115753   5.253   2.764   0.805
 5249TIP3    H215754   5.328   2.833   0.918
 5250TIP3   OH215755   5.255   2.234   4.890
 5250TIP3    H115756   5.269   2.299   4.821
 5250TIP3    H215757   5.232   2.286   4.967
 5251TIP3   OH215758   5.815   0.426   2.152
 5251TIP3    H115759   5.905   0.459   2.154
 5251TIP3    H215760   5.823   0.333   2.175
 5252TIP3   OH215761   5.013   3.146   3.454
 5252TIP3    H115762   5.067   3.100   3.518
 5252TIP3    H215763   4.968   3.214   3.505
 5253TIP3   OH215764   5.243   1.120   2.050
 5253TIP3    H115765   5.223   1.169   1.970
 5253TIP3    H215766   5.243   1.029   2.023
 5254TIP3   OH215767   2.553   0.098   3.193
 5254TIP3    H115768   2.587   0.015   3.161
 5254TIP3    H215769   2.523   0.144   3.115
 5255TIP3   OH215770  -0.007   2.132   2.997
 5255TIP3    H115771   0.054   2.078   2.946
 5255TIP3    H215772   0.018   2.116   3.088
 5256TIP3   OH215773   6.202   0.735   0.413
 5256TIP3    H115774   6.255   0.684   0.475
 5256TIP3    H215775   6.134   0.775   0.467
 5257TIP3   OH215776   5.663   1.386   3.628
 5257TIP3    H115777   5.752   1.355   3.648
 5257TIP3    H215778   5.676   1.455   3.562
 5258TIP3   OH215779   2.732   3.064   3.206
 5258TIP3    H115780   2.645   3.065   3.244
 5258TIP3    H215781   2.791   3.044   3.279
 5259TIP3   OH215782   6.054   0.565   2.171
 5259TIP3    H115783   6.116   0.603   2.233
 5259TIP3    H215784   6.110   0.522   2.105
 5260TIP3   OH215785   3.598   0.303   1.582
 5260TIP3    H115786   3.555   0.248   1.516
 5260TIP3    H215787   3.527   0.342   1.632
 5261TIP3   OH215788   5.352   0.775   4.211
 5261TIP3    H115789   5.277   0.825   4.243
 5261TIP3    H215790   5.319   0.685   4.201
 5262TIP3   OH215791   4.838   3.655   3.748
 5262TIP3    H115792   4.840   3.629   3.656
 5262TIP3    H215793   4.745   3.662   3.770
 5263TIP3   OH215794   2.195   1.042   2.305
 5263TIP3    H115795   2.265   1.022   2.368
 5263TIP3    H215796   2.226   1.006   2.222
 5264TIP3   OH215797   1.558   4.165   3.577
 5264TIP3    H115798   1.564   4.111   3.498
 5264TIP3    H215799   1.531   4.105   3.646
 5265TIP3   OH215800   4.638   5.863   3.275
 5265TIP3    H115801   4.617   5.849   3.368
 5265TIP3    H215802   4.654   5.775   3.241
 5266TIP3   OH215803   0.726   3.398   2.195
 5266TIP3    H115804   0.713   3.478   2.246
 5266TIP3    H215805   0.653   3.341   2.222
 5267TIP3   OH215806   1.120   2.937   1.947
 5267TIP3    H115807   1.087   3.027   1.946
 5267TIP3    H215808   1.043   2.882   1.934
 5268TIP3   OH215809   0.058   0.280   4.990
 5268TIP3    H115810   0.028   0.367   4.966
 5268TIP3    H215811   0.090   0.289   5.080
 5269TIP3   OH215812   2.515   1.396   2.175
 5269TIP3    H115813   2.459   1.333   2.127
 5269TIP3    H215814   2.598   1.350   2.186
 5270TIP3   OH215815   5.064   3.018   3.948
 5270TIP3    H115816   5.023   3.092   3.903
 5270TIP3    H215817   4.991   2.959   3.967
 5271TIP3   OH215818   2.821   5.844   0.060
 5271TIP3    H115819   2.798   5.751   0.058
 5271TIP3    H215820   2.828   5.865   0.153
 5272TIP3   OH215821   0.463   2.572   0.636
 5272TIP3    H115822   0.549   2.595   0.600
 5272TIP3    H215823   0.405   2.567   0.560
 5273TIP3   OH215824   5.517   1.866   4.140
 5273TIP3    H115825   5.604   1.828   4.128
 5273TIP3    H215826   5.484   1.825   4.221
 5274TIP3   OH215827   4.726   5.198   2.013
 5274TIP3    H115828   4.789   5.135   2.048
 5274TIP3    H215829   4.686   5.238   2.091
 5275TIP3   OH215830   2.285   4.308   0.590
 5275TIP3    H115831   2.199   4.270   0.573
 5275TIP3    H215832   2.293   4.379   0.527
 5276TIP3   OH215833   4.092   4.880   1.957
 5276TIP3    H115834   4.150   4.835   2.018
 5276TIP3    H215835   4.132   4.966   1.945
 5277TIP3   OH215836   2.300   1.701   4.764
 5277TIP3    H115837   2.266   1.768   4.705
 5277TIP3    H215838   2.248   1.623   4.745
 5278TIP3   OH215839   0.905   5.874   1.159
 5278TIP3    H115840   0.972   5.941   1.168
 5278TIP3    H215841   0.944   5.809   1.100
 5279TIP3   OH215842   1.337   4.055   0.415
 5279TIP3    H115843   1.255   4.021   0.451
 5279TIP3    H215844   1.387   3.976   0.393
 5280TIP3   OH215845   6.195   4.434   1.098
 5280TIP3    H115846   6.285   4.405   1.083
 5280TIP3    H215847   6.142   4.373   1.045
 5281TIP3   OH215848   2.554   1.986   0.816
 5281TIP3    H115849   2.503   2.054   0.772
 5281TIP3    H215850   2.496   1.910   0.818
 5282TIP3   OH215851   2.724   5.789   1.094
 5282TIP3    H115852   2.743   5.830   1.178
 5282TIP3    H215853   2.740   5.696   1.107
 5283TIP3   OH215854   6.268   5.911   5.020
 5283TIP3    H115855   6.227   5.826   5.004
 5283TIP3    H215856   6.215   5.951   5.089
 5284TIP3   OH215857   1.091   2.959   5.118
 5284TIP3    H115858   1.043   3.024   5.171
 5284TIP3    H215859   1.170   3.005   5.090
 5285TIP3   OH215860   0.839   3.456   3.105
 5285TIP3    H115861   0.745   3.469   3.117
 5285TIP3    H215862   0.845   3.407   3.023
 5286TIP3   OH215863   4.288   5.827   3.056
 5286TIP3    H115864   4.364   5.773   3.032
 5286TIP3    H215865   4.216   5.765   3.063
 5287TIP3   OH215866   5.321   5.068   2.638
 5287TIP3    H115867   5.333   5.116   2.721
 5287TIP3    H215868   5.236   5.025   2.647
 5288TIP3   OH215869   1.350   5.577   4.051
 5288TIP3    H115870   1.349   5.482   4.065
 5288TIP3    H215871   1.297   5.612   4.123
 5289TIP3   OH215872   1.631   2.803   4.300
 5289TIP3    H115873   1.553   2.858   4.307
 5289TIP3    H215874   1.699   2.851   4.347
 5290TIP3   OH215875   0.436   4.368   2.382
 5290TIP3    H115876   0.412   4.293   2.327
 5290TIP3    H215877   0.494   4.331   2.448
 5291TIP3   OH215878   5.089   1.475   1.717
 5291TIP3    H115879   5.043   1.558   1.731
 5291TIP3    H215880   5.173   1.501   1.679
 5292TIP3   OH215881   5.836   2.314   4.076
 5292TIP3    H115882   5.874   2.351   3.996
 5292TIP3    H215883   5.877   2.228   4.085
 5293TIP3   OH215884   3.383   2.236   2.460
 5293TIP3    H115885   3.464   2.285   2.468
 5293TIP3    H215886   3.408   2.145   2.474
 5294TIP3   OH215887   3.804   3.625   1.013
 5294TIP3    H115888   3.832   3.671   1.092
 5294TIP3    H215889   3.811   3.532   1.035
 5295TIP3   OH215890   0.049   4.848   1.401
 5295TIP3    H115891  -0.013   4.808   1.340
 5295TIP3    H215892   0.005   4.928   1.431
 5296TIP3   OH215893   3.965   0.848   3.464
 5296TIP3    H115894   3.926   0.761   3.458
 5296TIP3    H215895   4.043   0.844   3.409
 5297TIP3   OH215896   4.583   4.277   3.605
 5297TIP3    H115897   4.581   4.187   3.573
 5297TIP3    H215898   4.498   4.291   3.645
 5298TIP3   OH215899   4.561   0.814   1.588
 5298TIP3    H115900   4.592   0.740   1.639
 5298TIP3    H215901   4.589   0.891   1.637
 5299TIP3   OH215902   2.250   0.405   2.447
 5299TIP3    H115903   2.195   0.483   2.448
 5299TIP3    H215904   2.203   0.342   2.501
 5300TIP3   OH215905   1.590   4.864   4.198
 5300TIP3    H115906   1.620   4.894   4.284
 5300TIP3    H215907   1.499   4.893   4.192
 5301TIP3   OH215908   1.351   0.422   1.766
 5301TIP3    H115909   1.407   0.488   1.808
 5301TIP3    H215910   1.302   0.383   1.838
 5302TIP3   OH215911   2.478   3.648   3.630
 5302TIP3    H115912   2.479   3.650   3.726
 5302TIP3    H215913   2.557   3.598   3.607
 5303TIP3   OH215914   5.083   0.605   3.467
 5303TIP3    H115915   5.100   0.695   3.495
 5303TIP3    H215916   5.148   0.589   3.398
 5304TIP3   OH215917   2.593   5.770   3.471
 5304TIP3    H115918   2.656   5.842   3.470
 5304TIP3    H215919   2.536   5.787   3.395
 5305TIP3   OH215920   4.220   2.217   3.485
 5305TIP3    H115921   4.249   2.213   3.576
 5305TIP3    H215922   4.205   2.310   3.469
 5306TIP3   OH215923   5.370   3.752   1.818
 5306TIP3    H115924   5.391   3.744   1.911
 5306TIP3    H215925   5.355   3.846   1.805
 5307TIP3   OH215926   4.177   3.054   1.075
 5307TIP3    H115927   4.133   3.105   1.142
 5307TIP3    H215928   4.241   3.114   1.037
 5308TIP3   OH215929   4.466   5.800   1.002
 5308TIP3    H115930   4.389   5.821   1.055
 5308TIP3    H215931   4.540   5.828   1.055
 5309TIP3   OH215932   2.199   5.903   0.894
 5309TIP3    H115933   2.136   5.842   0.854
 5309TIP3    H215934   2.149   5.948   0.962
 5310TIP3   OH215935   2.712   3.342   1.241
 5310TIP3    H115936   2.682   3.391   1.164
 5310TIP3    H215937   2.803   3.369   1.252
 5311TIP3   OH215938   3.682   1.138   4.783
 5311TIP3    H115939   3.751   1.102   4.838
 5311TIP3    H215940   3.618   1.173   4.846
 5312TIP3   OH215941   0.927   3.257   4.920
 5312TIP3    H115942   0.937   3.193   4.848
 5312TIP3    H215943   1.014   3.295   4.930
 5313TIP3   OH215944   4.168   5.512   2.078
 5313TIP3    H115945   4.133   5.596   2.048
 5313TIP3    H215946   4.263   5.522   2.070
 5314TIP3   OH215947   2.678   5.500   4.536
 5314TIP3    H115948   2.615   5.560   4.575
 5314TIP3    H215949   2.626   5.446   4.476
 5315TIP3   OH215950   2.509   0.155   1.478
 5315TIP3    H115951   2.463   0.217   1.534
 5315TIP3    H215952   2.457   0.152   1.397
 5316TIP3   OH215953   0.435   3.746   0.497
 5316TIP3    H115954   0.460   3.686   0.567
 5316TIP3    H215955   0.363   3.797   0.534
 5317TIP3   OH215956   4.884   2.440   0.729
 5317TIP3    H115957   4.805   2.396   0.698
 5317TIP3    H215958   4.871   2.532   0.705
 5318TIP3   OH215959   1.976   0.027   3.756
 5318TIP3    H115960   2.019   0.112   3.742
 5318TIP3    H215961   1.889   0.050   3.789
 5319TIP3   OH215962   2.263   5.049   1.542
 5319TIP3    H115963   2.252   5.072   1.634
 5319TIP3    H215964   2.343   5.096   1.515
 5320TIP3   OH215965   5.884   0.312   1.877
 5320TIP3    H115966   5.799   0.284   1.842
 5320TIP3    H215967   5.881   0.288   1.969
 5321TIP3   OH215968   0.271   2.254   1.122
 5321TIP3    H115969   0.309   2.225   1.039
 5321TIP3    H215970   0.338   2.232   1.187
 5322TIP3   OH215971   3.417   4.332   1.726
 5322TIP3    H115972   3.502   4.372   1.743
 5322TIP3    H215973   3.381   4.383   1.653
 5323TIP3   OH215974   4.458   4.767   0.315
 5323TIP3    H115975   4.433   4.806   0.399
 5323TIP3    H215976   4.385   4.790   0.256
 5324TIP3   OH215977   4.485   2.019   1.925
 5324TIP3    H115978   4.442   2.018   1.839
 5324TIP3    H215979   4.540   2.097   1.923
 5325TIP3   OH215980   5.325   2.052   4.551
 5325TIP3    H115981   5.322   1.989   4.479
 5325TIP3    H215982   5.235   2.054   4.584
 5326TIP3   OH215983   4.115   2.623   5.106
 5326TIP3    H115984   4.166   2.559   5.156
 5326TIP3    H215985   4.179   2.660   5.044
 5327TIP3   OH215986   5.972   4.441   4.627
 5327TIP3    H115987   5.885   4.470   4.600
 5327TIP3    H215988   5.963   4.421   4.720
 5328TIP3   OH215989   5.623   3.103   1.013
 5328TIP3    H115990   5.684   3.113   0.940
 5328TIP3    H215991   5.588   3.191   1.027
 5329TIP3   OH215992   2.221   5.466   4.457
 5329TIP3    H115993   2.271   5.385   4.453
 5329TIP3    H215994   2.129   5.438   4.460
 5330TIP3   OH215995   1.842   2.305   3.736
 5330TIP3    H115996   1.827   2.374   3.800
 5330TIP3    H215997   1.841   2.350   3.651
 5331TIP3   OH215998   3.445   2.024   3.845
 5331TIP3    H115999   3.387   2.001   3.772
 5331TIP3    H216000   3.443   1.948   3.902
 5332TIP3   OH216001   4.632   0.867   5.028
 5332TIP3    H116002   4.637   0.847   5.122
 5332TIP3    H216003   4.600   0.957   5.024
 5333TIP3   OH216004   2.560   2.365   3.398
 5333TIP3    H116005   2.632   2.416   3.361
 5333TIP3    H216006   2.493   2.365   3.329
 5334TIP3   OH216007   2.501   2.279   4.149
 5334TIP3    H116008   2.463   2.293   4.236
 5334TIP3    H216009   2.434   2.231   4.101
 5335TIP3   OH216010   2.354   0.143   1.258
 5335TIP3    H116011   2.261   0.163   1.265
 5335TIP3    H216012   2.381   0.184   1.176
 5336TIP3   OH216013   0.698   1.660   4.997
 5336TIP3    H116014   0.695   1.587   4.935
 5336TIP3    H216015   0.737   1.622   5.076
 5337TIP3   OH216016   3.431   3.570   1.113
 5337TIP3    H116017   3.395   3.502   1.169
 5337TIP3    H216018   3.488   3.621   1.171
 5338TIP3   OH216019   5.902   0.666   1.070
 5338TIP3    H116020   5.856   0.749   1.055
 5338TIP3    H216021   5.990   0.681   1.036
 5339TIP3   OH216022   3.100   3.076   4.963
 5339TIP3    H116023   3.106   3.037   5.050
 5339TIP3    H216024   3.127   3.006   4.904
 5340TIP3   OH216025   1.484   1.585   1.724
 5340TIP3    H116026   1.557   1.530   1.753
 5340TIP3    H216027   1.441   1.533   1.656
 5341TIP3   OH216028  -0.056   4.437   4.268
 5341TIP3    H116029  -0.061   4.466   4.358
 5341TIP3    H216030   0.033   4.405   4.257
 5342TIP3   OH216031   6.297   5.226   2.529
 5342TIP3    H116032   6.289   5.136   2.496
 5342TIP3    H216033   6.237   5.228   2.603
 5343TIP3   OH216034   5.852   3.363   1.191
 5343TIP3    H116035   5.900   3.345   1.110
 5343TIP3    H216036   5.882   3.450   1.218
 5344TIP3   OH216037   3.644   4.661   1.824
 5344TIP3    H116038   3.607   4.720   1.890
 5344TIP3    H216039   3.620   4.700   1.740
 5345TIP3   OH216040   1.481   1.225   3.290
 5345TIP3    H116041   1.538   1.219   3.367
 5345TIP3    H216042   1.406   1.169   3.312
 5346TIP3   OH216043   2.022   3.687   0.692
 5346TIP3    H116044   2.072   3.694   0.773
 5346TIP3    H216045   1.999   3.778   0.671
 5347TIP3   OH216046   3.717   1.262   1.029
 5347TIP3    H116047   3.809   1.256   1.003
 5347TIP3    H216048   3.692   1.172   1.049
 5348TIP3   OH216049   0.572   5.791   4.522
 5348TIP3    H116050   0.529   5.793   4.607
 5348TIP3    H216051   0.576   5.883   4.496
 5349TIP3   OH216052   2.452   2.591   3.227
 5349TIP3    H116053   2.500   2.671   3.249
 5349TIP3    H216054   2.379   2.589   3.288
 5350TIP3   OH216055   2.245   1.322   0.770
 5350TIP3    H116056   2.184   1.373   0.716
 5350TIP3    H216057   2.276   1.253   0.711
 5351TIP3   OH216058   3.310   0.273   3.851
 5351TIP3    H116059   3.260   0.341   3.895
 5351TIP3    H216060   3.402   0.298   3.863
 5352TIP3   OH216061   1.472   0.784   4.365
 5352TIP3    H116062   1.442   0.874   4.367
 5352TIP3    H216063   1.560   0.787   4.401
 5353TIP3   OH216064   0.180   5.828   4.958
 5353TIP3    H116065   0.168   5.733   4.960
 5353TIP3    H216066   0.096   5.863   4.988
 5354TIP3   OH216067   3.736   5.713   2.403
 5354TIP3    H116068   3.769   5.774   2.337
 5354TIP3    H216069   3.787   5.733   2.481
 5355TIP3   OH216070   1.842   5.411   3.178
 5355TIP3    H116071   1.894   5.489   3.197
 5355TIP3    H216072   1.858   5.394   3.085
 5356TIP3   OH216073   1.321   4.055   5.124
 5356TIP3    H116074   1.327   4.107   5.205
 5356TIP3    H216075   1.397   4.082   5.073
 5357TIP3   OH216076   0.637   2.949   1.077
 5357TIP3    H116077   0.718   2.947   1.027
 5357TIP3    H216078   0.580   3.010   1.030
 5358TIP3   OH216079   3.097   3.947   4.503
 5358TIP3    H116080   3.061   3.893   4.433
 5358TIP3    H216081   3.083   4.037   4.474
 5359TIP3   OH216082   4.775   1.144   2.352
 5359TIP3    H116083   4.852   1.105   2.309
 5359TIP3    H216084   4.726   1.183   2.280
 5360TIP3   OH216085   3.634   3.122   2.380
 5360TIP3    H116086   3.555   3.133   2.326
 5360TIP3    H216087   3.601   3.120   2.470
 5361TIP3   OH216088   3.950   3.718   0.306
 5361TIP3    H116089   3.879   3.770   0.266
 5361TIP3    H216090   4.024   3.730   0.248
 5362TIP3   OH216091   1.436   1.358   1.558
 5362TIP3    H116092   1.470   1.380   1.471
 5362TIP3    H216093   1.395   1.272   1.547
 5363TIP3   OH216094   2.094   3.451   3.157
 5363TIP3    H116095   2.127   3.417   3.241
 5363TIP3    H216096   2.157   3.419   3.092
 5364TIP3   OH216097   6.071   2.205   2.963
 5364TIP3    H116098   6.055   2.143   3.034
 5364TIP3    H216099   6.166   2.214   2.960
 5365TIP3   OH216100   5.514   3.354   1.044
 5365TIP3    H116101   5.511   3.432   1.100
 5365TIP3    H216102   5.456   3.375   0.972
 5366TIP3   OH216103   3.730   0.336   3.088
 5366TIP3    H116104   3.669   0.380   3.029
 5366TIP3    H216105   3.744   0.398   3.160
 5367TIP3   OH216106   5.507   1.602   2.501
 5367TIP3    H116107   5.495   1.617   2.407
 5367TIP3    H216108   5.450   1.527   2.521
 5368TIP3   OH216109   0.146   4.791   0.317
 5368TIP3    H116110   0.058   4.817   0.290
 5368TIP3    H216111   0.178   4.735   0.245
 5369TIP3   OH216112   5.306   0.523   4.986
 5369TIP3    H116113   5.265   0.577   5.054
 5369TIP3    H216114   5.333   0.443   5.031
 5370TIP3   OH216115   3.384   3.230   1.986
 5370TIP3    H116116   3.396   3.325   1.976
 5370TIP3    H216117   3.315   3.208   1.925
 5371TIP3   OH216118   5.952   4.016   4.461
 5371TIP3    H116119   6.024   3.998   4.522
 5371TIP3    H216120   5.977   3.970   4.381
 5372TIP3   OH216121   6.199   2.605   3.140
 5372TIP3    H116122   6.168   2.695   3.144
 5372TIP3    H216123   6.121   2.553   3.117
 5373TIP3   OH216124   1.365   4.075   3.010
 5373TIP3    H116125   1.372   4.110   2.921
 5373TIP3    H216126   1.358   3.980   2.998
 5374TIP3   OH216127   1.252   2.973   4.614
 5374TIP3    H116128   1.212   3.044   4.664
 5374TIP3    H216129   1.217   2.893   4.652
 5375TIP3   OH216130   4.459   5.633   4.165
 5375TIP3    H116131   4.443   5.560   4.224
 5375TIP3    H216132   4.483   5.706   4.222
 5376TIP3   OH216133   5.846   0.814   3.463
 5376TIP3    H116134   5.940   0.804   3.471
 5376TIP3    H216135   5.813   0.725   3.455
 5377TIP3   OH216136   3.208   0.654   0.301
 5377TIP3    H116137   3.243   0.743   0.311
 5377TIP3    H216138   3.173   0.633   0.388
 5378TIP3   OH216139   0.980   5.176   4.875
 5378TIP3    H116140   0.886   5.164   4.889
 5378TIP3    H216141   0.993   5.152   4.783
 5379TIP3   OH216142   4.867   2.295   2.398
 5379TIP3    H116143   4.804   2.318   2.465
 5379TIP3    H216144   4.951   2.290   2.444
 5380TIP3   OH216145   4.668   0.060   2.844
 5380TIP3    H116146   4.578   0.054   2.877
 5380TIP3    H216147   4.721   0.017   2.911
 5381TIP3   OH216148   4.128   2.375   1.041
 5381TIP3    H116149   4.036   2.387   1.064
 5381TIP3    H216150   4.170   2.458   1.066
 5382TIP3   OH216151   5.898   3.388   1.798
 5382TIP3    H116152   5.965   3.376   1.730
 5382TIP3    H216153   5.902   3.306   1.848
 5383TIP3   OH216154   5.494   5.280   2.012
 5383TIP3    H116155   5.556   5.212   2.035
 5383TIP3    H216156   5.531   5.360   2.049
 5384TIP3   OH216157   1.450   5.059   2.817
 5384TIP3    H116158   1.380   5.076   2.754
 5384TIP3    H216159   1.405   5.024   2.894
 5385TIP3   OH216160   4.367   0.123   3.212
 5385TIP3    H116161   4.374   0.091   3.122
 5385TIP3    H216162   4.277   0.155   3.219
 5386TIP3   OH216163   4.374   4.576   1.954
 5386TIP3    H116164   4.301   4.528   1.992
 5386TIP3    H216165   4.370   4.662   1.995
 5387TIP3   OH216166   4.033   0.929   1.550
 5387TIP3    H116167   4.117   0.888   1.572
 5387TIP3    H216168   3.989   0.864   1.495
 5388TIP3   OH216169   5.234   3.933   1.004
 5388TIP3    H116170   5.228   3.952   0.910
 5388TIP3    H216171   5.328   3.928   1.021
 5389TIP3   OH216172   5.326   3.385   3.628
 5389TIP3    H116173   5.254   3.416   3.683
 5389TIP3    H216174   5.287   3.377   3.541
 5390TIP3   OH216175   3.961   4.697   1.827
 5390TIP3    H116176   3.995   4.776   1.869
 5390TIP3    H216177   3.881   4.676   1.875
 5391TIP3   OH216178   4.670   5.531   0.675
 5391TIP3    H116179   4.604   5.598   0.653
 5391TIP3    H216180   4.708   5.506   0.591
 5392TIP3   OH216181   1.830   4.786   4.522
 5392TIP3    H116182   1.776   4.865   4.520
 5392TIP3    H216183   1.774   4.719   4.561
 5393TIP3   OH216184   1.430   1.517   4.458
 5393TIP3    H116185   1.465   1.433   4.487
 5393TIP3    H216186   1.365   1.495   4.392
 5394TIP3   OH216187   5.533   0.110   0.899
 5394TIP3    H116188   5.594   0.045   0.933
 5394TIP3    H216189   5.513   0.165   0.974
 5395TIP3   OH216190   4.588   4.901   1.023
 5395TIP3    H116191   4.525   4.950   0.971
 5395TIP3    H216192   4.671   4.912   0.978
 5396TIP3   OH216193   0.314   1.660   0.891
 5396TIP3    H116194   0.375   1.691   0.958
 5396TIP3    H216195   0.289   1.738   0.842
 5397TIP3   OH216196   3.566   5.073   3.347
 5397TIP3    H116197   3.654   5.041   3.324
 5397TIP3    H216198   3.519   5.074   3.264
 5398TIP3   OH216199   2.676   2.065   4.601
 5398TIP3    H116200   2.661   2.005   4.528
 5398TIP3    H216201   2.769   2.056   4.620
 5399TIP3   OH216202   5.964   3.924   0.765
 5399TIP3    H116203   5.936   3.877   0.844
 5399TIP3    H216204   5.929   3.872   0.692
 5400TIP3   OH216205   5.155   1.402   1.052
 5400TIP3    H116206   5.091   1.470   1.029
 5400TIP3    H216207   5.136   1.382   1.143
 5401TIP3   OH216208   3.878   2.603   3.789
 5401TIP3    H116209   3.950   2.539   3.792
 5401TIP3    H216210   3.876   2.633   3.698
 5402TIP3   OH216211   3.748   2.412   2.964
 5402TIP3    H116212   3.765   2.433   3.056
 5402TIP3    H216213   3.688   2.481   2.935
 5403TIP3   OH216214   4.308   3.949   3.287
 5403TIP3    H116215   4.244   4.006   3.243
 5403TIP3    H216216   4.304   3.867   3.237
 5404TIP3   OH216217   4.916   1.384   1.518
 5404TIP3    H116218   4.986   1.410   1.578
 5404TIP3    H216219   4.836   1.418   1.558
 5405TIP3   OH216220   1.737   0.755   4.845
 5405TIP3    H116221   1.708   0.704   4.920
 5405TIP3    H216222   1.831   0.767   4.858
 5406TIP3   OH216223   2.504   0.111   1.035
 5406TIP3    H116224   2.581   0.058   1.013
 5406TIP3    H216225   2.443   0.094   0.963
 5407TIP3   OH216226   4.729   5.751   1.955
 5407TIP3    H116227   4.785   5.739   1.878
 5407TIP3    H216228   4.716   5.663   1.989
 5408TIP3   OH216229   2.744   2.856   0.566
 5408TIP3    H116230   2.707   2.768   0.560
 5408TIP3    H216231   2.810   2.850   0.635
 5409TIP3   OH216232   4.716   4.819   2.382
 5409TIP3    H116233   4.678   4.731   2.381
 5409TIP3    H216234   4.800   4.809   2.338
 5410TIP3   OH216235   2.648   3.627   1.317
 5410TIP3    H116236   2.721   3.567   1.330
 5410TIP3    H216237   2.606   3.596   1.237
 5411TIP3   OH216238   2.290   2.077   4.122
 5411TIP3    H116239   2.263   2.041   4.207
 5411TIP3    H216240   2.208   2.103   4.080
 5412TIP3   OH216241   2.353   0.041   0.837
 5412TIP3    H116242   2.337  -0.013   0.760
 5412TIP3    H216243   2.292   0.115   0.828
 5413TIP3   OH216244   1.675   4.448   3.118
 5413TIP3    H116245   1.660   4.533   3.077
 5413TIP3    H216246   1.643   4.458   3.208
 5414TIP3   OH216247   4.576   0.277   4.827
 5414TIP3    H116248   4.559   0.284   4.921
 5414TIP3    H216249   4.522   0.346   4.788
 5415TIP3   OH216250   5.771   4.022   0.175
 5415TIP3    H116251   5.788   3.934   0.142
 5415TIP3    H216252   5.848   4.073   0.148
 5416TIP3   OH216253   4.839   4.473   0.411
 5416TIP3    H116254   4.895   4.535   0.365
 5416TIP3    H216255   4.797   4.525   0.480
 5417TIP3   OH216256   4.267   4.256   3.636
 5417TIP3    H116257   4.284   4.206   3.716
 5417TIP3    H216258   4.187   4.217   3.600
 5418TIP3   OH216259   2.231   5.831   0.119
 5418TIP3    H116260   2.191   5.918   0.108
 5418TIP3    H216261   2.259   5.830   0.210
 5419TIP3   OH216262   5.644   2.979   2.404
 5419TIP3    H116263   5.579   2.981   2.334
 5419TIP3    H216264   5.725   2.955   2.360
 5420TIP3   OH216265   4.446   2.329   2.056
 5420TIP3    H116266   4.517   2.300   1.999
 5420TIP3    H216267   4.490   2.349   2.139
 5421TIP3   OH216268   0.654   3.780   1.443
 5421TIP3    H116269   0.608   3.696   1.436
 5421TIP3    H216270   0.599   3.833   1.501
 5422TIP3   OH216271   4.150   2.531   0.273
 5422TIP3    H116272   4.239   2.546   0.305
 5422TIP3    H216273   4.100   2.510   0.351
 5423TIP3   OH216274   1.524   3.314   0.256
 5423TIP3    H116275   1.607   3.281   0.223
 5423TIP3    H216276   1.458   3.256   0.218
 5424TIP3   OH216277   3.243   2.235   0.296
 5424TIP3    H116278   3.166   2.281   0.263
 5424TIP3    H216279   3.234   2.239   0.391
 5425TIP3   OH216280   4.506   1.489   1.980
 5425TIP3    H116281   4.558   1.565   2.007
 5425TIP3    H216282   4.466   1.515   1.898
 5426TIP3   OH216283   0.188   1.649   0.191
 5426TIP3    H116284   0.278   1.660   0.221
 5426TIP3    H216285   0.138   1.712   0.242
 5427TIP3   OH216286   4.297   2.078   2.362
 5427TIP3    H116287   4.267   2.010   2.422
 5427TIP3    H216288   4.392   2.083   2.377
 5428TIP3   OH216289   1.567   4.008   3.878
 5428TIP3    H116290   1.631   3.963   3.934
 5428TIP3    H216291   1.539   4.084   3.930
 5429TIP3   OH216292   2.713   0.885   2.152
 5429TIP3    H116293   2.741   0.973   2.127
 5429TIP3    H216294   2.794   0.837   2.166
 5430TIP3   OH216295   6.118   3.359   3.853
 5430TIP3    H116296   6.162   3.327   3.931
 5430TIP3    H216297   6.029   3.326   3.861
 5431TIP3   OH216298   4.843   2.390   4.905
 5431TIP3    H116299   4.849   2.482   4.879
 5431TIP3    H216300   4.898   2.383   4.982
 5432TIP3   OH216301   0.525   5.039   4.172
 5432TIP3    H116302   0.469   5.035   4.094
 5432TIP3    H216303   0.465   5.039   4.245
 5433TIP3   OH216304   6.162   4.948   1.007
 5433TIP3    H116305   6.157   5.039   0.976
 5433TIP3    H216306   6.095   4.943   1.076
 5434TIP3   OH216307   4.887   1.103   1.438
 5434TIP3    H116308   4.804   1.056   1.428
 5434TIP3    H216309   4.862   1.190   1.471
 5435TIP3   OH216310   6.145   1.314   2.509
 5435TIP3    H116311   6.194   1.232   2.519
 5435TIP3    H216312   6.121   1.316   2.417
 5436TIP3   OH216313   4.613   3.889   1.057
 5436TIP3    H116314   4.638   3.976   1.028
 5436TIP3    H216315   4.524   3.899   1.089
 5437TIP3   OH216316   1.422   0.073   4.510
 5437TIP3    H116317   1.468   0.079   4.594
 5437TIP3    H216318   1.398   0.163   4.489
 5438TIP3   OH216319   5.075   5.283   1.848
 5438TIP3    H116320   5.067   5.311   1.939
 5438TIP3    H216321   5.170   5.273   1.835
 5439TIP3   OH216322   1.709   1.255   1.631
 5439TIP3    H116323   1.689   1.328   1.689
 5439TIP3    H216324   1.780   1.286   1.575
 5440TIP3   OH216325   3.787   0.054   0.968
 5440TIP3    H116326   3.866   0.104   0.949
 5440TIP3    H216327   3.802   0.016   1.054
 5441TIP3   OH216328   2.704   4.766   4.190
 5441TIP3    H116329   2.680   4.684   4.234
 5441TIP3    H216330   2.651   4.765   4.109
 5442TIP3   OH216331   1.826   0.406   0.425
 5442TIP3    H116332   1.749   0.459   0.400
 5442TIP3    H216333   1.849   0.359   0.345
 5443TIP3   OH216334   4.511   2.957   3.582
 5443TIP3    H116335   4.474   2.993   3.501
 5443TIP3    H216336   4.449   2.889   3.608
 5444TIP3   OH216337   3.994   0.012   4.698
 5444TIP3    H116338   4.052   0.029   4.624
 5444TIP3    H216339   3.986   0.096   4.742
 5445TIP3   OH216340   1.713   3.614   1.910
 5445TIP3    H116341   1.676   3.555   1.976
 5445TIP3    H216342   1.713   3.700   1.953
 5446TIP3   OH216343   4.793   4.857   1.594
 5446TIP3    H116344   4.886   4.877   1.589
 5446TIP3    H216345   4.754   4.933   1.637
 5447TIP3   OH216346   3.156   5.054   4.928
 5447TIP3    H116347   3.104   4.979   4.900
 5447TIP3    H216348   3.152   5.052   5.023
 5448TIP3   OH216349   2.147   1.137   1.264
 5448TIP3    H116350   2.204   1.161   1.191
 5448TIP3    H216351   2.140   1.041   1.259
 5449TIP3   OH216352   3.192   3.810   5.010
 5449TIP3    H116353   3.164   3.721   5.032
 5449TIP3    H216354   3.110   3.859   5.001
 5450TIP3   OH216355   3.540   1.610   2.940
 5450TIP3    H116356   3.629   1.601   2.907
 5450TIP3    H216357   3.489   1.547   2.889
 5451TIP3   OH216358   4.810   1.359   4.940
 5451TIP3    H116359   4.834   1.424   4.874
 5451TIP3    H216360   4.870   1.286   4.925
 5452TIP3   OH216361   3.824   0.100   3.352
 5452TIP3    H116362   3.888   0.030   3.343
 5452TIP3    H216363   3.763   0.087   3.279
 5453TIP3   OH216364   5.968   2.598   4.896
 5453TIP3    H116365   5.886   2.611   4.850
 5453TIP3    H216366   6.017   2.679   4.881
 5454TIP3   OH216367   1.885   3.033   4.630
 5454TIP3    H116368   1.839   2.950   4.615
 5454TIP3    H216369   1.978   3.009   4.624
 5455TIP3   OH216370   3.645   2.299   0.375
 5455TIP3    H116371   3.550   2.301   0.385
 5455TIP3    H216372   3.673   2.218   0.418
 5456TIP3   OH216373   6.034   0.200   4.742
 5456TIP3    H116374   6.046   0.293   4.723
 5456TIP3    H216375   5.984   0.199   4.824
 5457TIP3   OH216376   5.602   4.329   0.049
 5457TIP3    H116377   5.625   4.285   0.130
 5457TIP3    H216378   5.518   4.371   0.066
 5458TIP3   OH216379   1.121   5.227   2.162
 5458TIP3    H116380   1.056   5.230   2.092
 5458TIP3    H216381   1.071   5.207   2.241
 5459TIP3   OH216382   0.667   2.582   1.761
 5459TIP3    H116383   0.589   2.582   1.817
 5459TIP3    H216384   0.681   2.674   1.739
 5460TIP3   OH216385   0.540   0.133   3.996
 5460TIP3    H116386   0.582   0.182   3.924
 5460TIP3    H216387   0.574   0.175   4.076
 5461TIP3   OH216388   0.488   0.545   4.274
 5461TIP3    H116389   0.442   0.597   4.340
 5461TIP3    H216390   0.460   0.583   4.191
 5462TIP3   OH216391   5.158   4.278   1.980
 5462TIP3    H116392   5.141   4.193   2.022
 5462TIP3    H216393   5.178   4.337   2.052
 5463TIP3   OH216394   1.762   3.570   3.556
 5463TIP3    H116395   1.854   3.561   3.581
 5463TIP3    H216396   1.738   3.659   3.582
 5464TIP3   OH216397   1.602   3.759   2.344
 5464TIP3    H116398   1.516   3.718   2.341
 5464TIP3    H216399   1.651   3.709   2.409
 5465TIP3   OH216400   6.052   3.627   4.476
 5465TIP3    H116401   6.056   3.560   4.408
 5465TIP3    H216402   6.057   3.710   4.428
 5466TIP3   OH216403   0.170   1.464   1.746
 5466TIP3    H116404   0.265   1.478   1.736
 5466TIP3    H216405   0.163   1.397   1.814
 5467TIP3   OH216406   2.423   3.641   2.428
 5467TIP3    H116407   2.498   3.699   2.421
 5467TIP3    H216408   2.394   3.628   2.338
 5468TIP3   OH216409   4.059   5.419   4.732
 5468TIP3    H116410   4.045   5.490   4.795
 5468TIP3    H216411   4.124   5.362   4.773
 5469TIP3   OH216412   4.949   1.977   4.064
 5469TIP3    H116413   4.996   2.030   4.129
 5469TIP3    H216414   5.005   1.901   4.051
 5470TIP3   OH216415   1.694   5.811   1.631
 5470TIP3    H116416   1.766   5.801   1.693
 5470TIP3    H216417   1.687   5.906   1.618
 5471TIP3   OH216418   1.457   5.666   2.776
 5471TIP3    H116419   1.379   5.698   2.821
 5471TIP3    H216420   1.426   5.638   2.690
 5472TIP3   OH216421   1.820   4.593   0.624
 5472TIP3    H116422   1.884   4.624   0.559
 5472TIP3    H216423   1.761   4.537   0.574
 5473TIP3   OH216424   2.624   5.629   3.857
 5473TIP3    H116425   2.620   5.570   3.782
 5473TIP3    H216426   2.705   5.679   3.843
 5474TIP3   OH216427   4.675   4.489   4.553
 5474TIP3    H116428   4.726   4.427   4.605
 5474TIP3    H216429   4.739   4.550   4.518
 5475TIP3   OH216430   5.336   1.128   3.167
 5475TIP3    H116431   5.362   1.161   3.081
 5475TIP3    H216432   5.275   1.193   3.202
 5476TIP3   OH216433   3.811   1.061   2.623
 5476TIP3    H116434   3.901   1.033   2.641
 5476TIP3    H216435   3.799   1.045   2.529
 5477TIP3   OH216436   1.195   5.970   4.040
 5477TIP3    H116437   1.142   5.894   4.015
 5477TIP3    H216438   1.173   5.985   4.132
 5478TIP3   OH216439   0.084   1.409   3.309
 5478TIP3    H116440   0.062   1.370   3.393
 5478TIP3    H216441   0.091   1.334   3.249
 5479TIP3   OH216442   4.695   1.093   1.695
 5479TIP3    H116443   4.745   1.015   1.718
 5479TIP3    H216444   4.729   1.161   1.752
 5480TIP3   OH216445   4.808   2.175   1.625
 5480TIP3    H116446   4.741   2.235   1.593
 5480TIP3    H216447   4.881   2.187   1.565
 5481TIP3   OH216448   2.932   2.583   3.176
 5481TIP3    H116449   2.927   2.505   3.231
 5481TIP3    H216450   2.963   2.652   3.234
 5482TIP3   OH216451   1.129   3.164   2.945
 5482TIP3    H116452   1.113   3.133   3.035
 5482TIP3    H216453   1.143   3.083   2.895
 5483TIP3   OH216454   5.132   1.907   0.205
 5483TIP3    H116455   5.188   1.867   0.272
 5483TIP3    H216456   5.159   1.864   0.123
 5484TIP3   OH216457   0.547   2.650   0.130
 5484TIP3    H116458   0.598   2.685   0.057
 5484TIP3    H216459   0.576   2.559   0.139
 5485TIP3   OH216460   3.459   2.456   0.154
 5485TIP3    H116461   3.408   2.375   0.158
 5485TIP3    H216462   3.492   2.459   0.064
 5486TIP3   OH216463   0.983   2.891   0.427
 5486TIP3    H116464   0.935   2.862   0.505
 5486TIP3    H216465   1.074   2.865   0.444
 5487TIP3   OH216466   4.160   0.141   4.533
 5487TIP3    H116467   4.256   0.138   4.538
 5487TIP3    H216468   4.138   0.233   4.546
 5488TIP3   OH216469   2.959   2.406   3.938
 5488TIP3    H116470   2.979   2.376   4.027
 5488TIP3    H216471   3.011   2.486   3.928
 5489TIP3   OH216472   1.168   2.291   2.453
 5489TIP3    H116473   1.157   2.242   2.535
 5489TIP3    H216474   1.255   2.329   2.460
 5490TIP3   OH216475   3.467   0.319   2.075
 5490TIP3    H116476   3.510   0.274   2.003
 5490TIP3    H216477   3.379   0.339   2.042
 5491TIP3   OH216478   0.442   0.584   5.136
 5491TIP3    H116479   0.485   0.626   5.061
 5491TIP3    H216480   0.514   0.553   5.190
 5492TIP3   OH216481   1.547   4.882   3.859
 5492TIP3    H116482   1.478   4.945   3.838
 5492TIP3    H216483   1.505   4.797   3.851
 5493TIP3   OH216484   2.831   0.759   2.446
 5493TIP3    H116485   2.735   0.765   2.441
 5493TIP3    H216486   2.851   0.671   2.415
 5494TIP3   OH216487   5.100   4.490   1.437
 5494TIP3    H116488   5.112   4.446   1.522
 5494TIP3    H216489   5.010   4.468   1.412
 5495TIP3   OH216490   2.699   4.339   4.549
 5495TIP3    H116491   2.715   4.258   4.597
 5495TIP3    H216492   2.779   4.351   4.497
 5496TIP3   OH216493   3.032   1.581   1.496
 5496TIP3    H116494   2.955   1.638   1.495
 5496TIP3    H216495   3.086   1.611   1.423
 5497TIP3   OH216496   4.865   4.664   5.198
 5497TIP3    H116497   4.953   4.674   5.160
 5497TIP3    H216498   4.812   4.729   5.151
 5498TIP3   OH216499   6.019   3.972   1.207
 5498TIP3    H116500   6.008   4.004   1.296
 5498TIP3    H216501   6.055   3.883   1.218
 5499TIP3   OH216502   0.686   3.690   2.354
 5499TIP3    H116503   0.670   3.719   2.444
 5499TIP3    H216504   0.687   3.770   2.302
 5500TIP3   OH216505   3.722   3.859   0.180
 5500TIP3    H116506   3.629   3.847   0.201
 5500TIP3    H216507   3.730   3.951   0.159
 5501TIP3   OH216508   3.527   1.951   0.780
 5501TIP3    H116509   3.563   1.869   0.746
 5501TIP3    H216510   3.434   1.948   0.757
 5502TIP3   OH216511   5.815   1.942   3.915
 5502TIP3    H116512   5.868   1.977   3.987
 5502TIP3    H216513   5.803   1.850   3.937
 5503TIP3   OH216514   4.865   2.266   2.124
 5503TIP3    H116515   4.933   2.205   2.096
 5503TIP3    H216516   4.852   2.246   2.217
 5504TIP3   OH216517   5.348   5.508   3.365
 5504TIP3    H116518   5.321   5.423   3.330
 5504TIP3    H216519   5.337   5.569   3.292
 5505TIP3   OH216520   0.080   4.846   2.742
 5505TIP3    H116521   0.151   4.875   2.799
 5505TIP3    H216522   0.120   4.836   2.656
 5506TIP3   OH216523   0.037   2.980   4.222
 5506TIP3    H116524   0.098   2.965   4.294
 5506TIP3    H216525   0.060   2.913   4.157
 5507TIP3   OH216526   4.026   4.092   3.564
 5507TIP3    H116527   3.954   4.030   3.575
 5507TIP3    H216528   4.043   4.092   3.469
 5508TIP3   OH216529   5.588   5.366   1.512
 5508TIP3    H116530   5.512   5.320   1.475
 5508TIP3    H216531   5.613   5.314   1.588
 5509TIP3   OH216532   6.138   3.320   1.282
 5509TIP3    H116533   6.065   3.276   1.325
 5509TIP3    H216534   6.198   3.249   1.260
 5510TIP3   OH216535   2.696   5.877   2.406
 5510TIP3    H116536   2.787   5.905   2.395
 5510TIP3    H216537   2.701   5.802   2.466
 5511TIP3   OH216538   5.628   1.185   1.000
 5511TIP3    H116539   5.690   1.143   1.058
 5511TIP3    H216540   5.647   1.278   1.007
 5512TIP3   OH216541   4.277   5.711   2.540
 5512TIP3    H116542   4.272   5.652   2.466
 5512TIP3    H216543   4.236   5.664   2.612
 5513TIP3   OH216544   3.157   3.255   4.734
 5513TIP3    H116545   3.243   3.237   4.772
 5513TIP3    H216546   3.096   3.204   4.788
 5514TIP3   OH216547   0.695   1.094   4.988
 5514TIP3    H116548   0.774   1.058   5.029
 5514TIP3    H216549   0.685   1.044   4.907
 5515TIP3   OH216550   3.141   0.671   3.410
 5515TIP3    H116551   3.145   0.584   3.369
 5515TIP3    H216552   3.138   0.731   3.336
 5516TIP3   OH216553   2.943   0.274   1.861
 5516TIP3    H116554   2.882   0.206   1.833
 5516TIP3    H216555   2.925   0.347   1.803
 5517TIP3   OH216556   4.536   3.057   1.686
 5517TIP3    H116557   4.576   3.050   1.599
 5517TIP3    H216558   4.599   3.107   1.737
 5518TIP3   OH216559   5.379   3.743   3.547
 5518TIP3    H116560   5.355   3.656   3.515
 5518TIP3    H216561   5.368   3.738   3.642
 5519TIP3   OH216562   2.179   0.263   0.784
 5519TIP3    H116563   2.158   0.298   0.698
 5519TIP3    H216564   2.100   0.279   0.836
 5520TIP3   OH216565   1.975   4.215   4.393
 5520TIP3    H116566   1.902   4.271   4.365
 5520TIP3    H216567   2.006   4.255   4.474
 5521TIP3   OH216568   5.764   3.622   1.778
 5521TIP3    H116569   5.691   3.605   1.838
 5521TIP3    H216570   5.825   3.550   1.794
 5522TIP3   OH216571   4.003   3.465   1.213
 5522TIP3    H116572   3.922   3.437   1.170
 5522TIP3    H216573   4.054   3.385   1.224
 5523TIP3   OH216574   5.039   2.820   1.119
 5523TIP3    H116575   5.058   2.900   1.169
 5523TIP3    H216576   5.001   2.760   1.183
 5524TIP3   OH216577   4.296   3.079   1.832
 5524TIP3    H116578   4.284   3.174   1.829
 5524TIP3    H216579   4.350   3.059   1.755
 5525TIP3   OH216580   0.180   3.682   0.022
 5525TIP3    H116581   0.247   3.720   0.079
 5525TIP3    H216582   0.227   3.622  -0.035
 5526TIP3   OH216583   0.716   1.564   3.095
 5526TIP3    H116584   0.650   1.555   3.164
 5526TIP3    H216585   0.731   1.658   3.087
 5527TIP3   OH216586   1.606   1.246   0.259
 5527TIP3    H116587   1.597   1.244   0.164
 5527TIP3    H216588   1.571   1.161   0.288
 5528TIP3   OH216589   1.193   5.431   4.691
 5528TIP3    H116590   1.115   5.436   4.637
 5528TIP3    H216591   1.263   5.465   4.636
 5529TIP3   OH216592   2.614   3.002   1.921
 5529TIP3    H116593   2.523   3.015   1.947
 5529TIP3    H216594   2.609   2.968   1.831
 5530TIP3   OH216595   3.359   3.200   2.251
 5530TIP3    H116596   3.363   3.217   2.157
 5530TIP3    H216597   3.345   3.286   2.290
 5531TIP3   OH216598   2.465   4.941   1.166
 5531TIP3    H116599   2.529   5.002   1.131
 5531TIP3    H216600   2.381   4.972   1.134
 5532TIP3   OH216601   4.611   1.910   4.871
 5532TIP3    H116602   4.698   1.903   4.831
 5532TIP3    H216603   4.587   1.820   4.892
 5533TIP3   OH216604   0.571   4.129   0.276
 5533TIP3    H116605   0.626   4.205   0.294
 5533TIP3    H216606   0.496   4.138   0.335
 5534TIP3   OH216607   0.245   2.719   2.560
 5534TIP3    H116608   0.216   2.677   2.479
 5534TIP3    H216609   0.340   2.717   2.556
 5535TIP3   OH216610   0.919   1.588   1.858
 5535TIP3    H116611   0.917   1.499   1.893
 5535TIP3    H216612   0.919   1.576   1.763
 5536TIP3   OH216613   5.723   1.752   3.643
 5536TIP3    H116614   5.690   1.841   3.637
 5536TIP3    H216615   5.672   1.711   3.713
 5537TIP3   OH216616   0.436   1.038   5.063
 5537TIP3    H116617   0.439   0.955   5.017
 5537TIP3    H216618   0.524   1.075   5.052
 5538TIP3   OH216619   6.051   2.743   0.362
 5538TIP3    H116620   6.000   2.821   0.382
 5538TIP3    H216621   6.001   2.697   0.294
 5539TIP3   OH216622   5.333   3.844   4.073
 5539TIP3    H116623   5.335   3.782   4.146
 5539TIP3    H216624   5.289   3.921   4.108
 5540TIP3   OH216625   1.144   1.691   0.116
 5540TIP3    H116626   1.126   1.696   0.022
 5540TIP3    H216627   1.064   1.720   0.159
 5541TIP3   OH216628   5.865   0.295   1.371
 5541TIP3    H116629   5.849   0.310   1.278
 5541TIP3    H216630   5.956   0.322   1.384
 5542TIP3   OH216631   0.564   5.791   2.763
 5542TIP3    H116632   0.553   5.701   2.734
 5542TIP3    H216633   0.606   5.784   2.849
 5543TIP3   OH216634   0.180   1.925   1.112
 5543TIP3    H116635   0.100   1.878   1.088
 5543TIP3    H216636   0.155   2.018   1.111
 5544TIP3   OH216637   1.754   2.094   3.970
 5544TIP3    H116638   1.691   2.052   4.029
 5544TIP3    H216639   1.699   2.134   3.902
 5545TIP3   OH216640   4.435   4.109   1.183
 5545TIP3    H116641   4.522   4.131   1.150
 5545TIP3    H216642   4.451   4.066   1.267
 5546TIP3   OH216643   0.891   2.990   3.023
 5546TIP3    H116644   0.899   2.952   2.935
 5546TIP3    H216645   0.967   2.956   3.071
 5547TIP3   OH216646   0.908   5.513   5.021
 5547TIP3    H116647   0.897   5.418   5.023
 5547TIP3    H216648   0.874   5.542   5.106
 5548TIP3   OH216649   4.147   3.156   3.514
 5548TIP3    H116650   4.122   3.173   3.424
 5548TIP3    H216651   4.240   3.133   3.510
 5549TIP3   OH216652   2.291   3.547   2.637
 5549TIP3    H116653   2.320   3.595   2.560
 5549TIP3    H216654   2.208   3.588   2.661
 5550TIP3   OH216655   1.870   1.525   4.892
 5550TIP3    H116656   1.910   1.472   4.961
 5550TIP3    H216657   1.941   1.539   4.829
 5551TIP3   OH216658   3.669   4.671   1.234
 5551TIP3    H116659   3.599   4.615   1.267
 5551TIP3    H216660   3.744   4.613   1.226
 5552TIP3   OH216661   4.967   5.853   4.672
 5552TIP3    H116662   4.995   5.776   4.622
 5552TIP3    H216663   4.872   5.854   4.665
 5553TIP3   OH216664   4.067   2.856   2.587
 5553TIP3    H116665   4.099   2.909   2.660
 5553TIP3    H216666   3.972   2.859   2.595
 5554TIP3   OH216667   3.662   0.450   2.222
 5554TIP3    H116668   3.632   0.454   2.313
 5554TIP3    H216669   3.591   0.406   2.175
 5555TIP3   OH216670   1.124   4.339   2.892
 5555TIP3    H116671   1.044   4.358   2.843
 5555TIP3    H216672   1.159   4.260   2.851
 5556TIP3   OH216673   4.465   3.392   0.585
 5556TIP3    H116674   4.434   3.418   0.672
 5556TIP3    H216675   4.511   3.309   0.600
 5557TIP3   OH216676   0.724   5.148   2.465
 5557TIP3    H116677   0.630   5.166   2.457
 5557TIP3    H216678   0.741   5.082   2.397
 5558TIP3   OH216679   4.204   3.891   3.671
 5558TIP3    H116680   4.160   3.967   3.632
 5558TIP3    H216681   4.283   3.928   3.710
 5559TIP3   OH216682   0.333   2.078   0.918
 5559TIP3    H116683   0.410   2.073   0.862
 5559TIP3    H216684   0.270   2.018   0.879
 5560TIP3   OH216685   2.150   3.651   2.325
 5560TIP3    H116686   2.104   3.727   2.360
 5560TIP3    H216687   2.081   3.598   2.286
 5561TIP3   OH216688   2.401   2.422   2.815
 5561TIP3    H116689   2.451   2.351   2.774
 5561TIP3    H216690   2.430   2.422   2.907
 5562TIP3   OH216691   5.381   3.136   2.027
 5562TIP3    H116692   5.287   3.138   2.009
 5562TIP3    H216693   5.416   3.075   1.962
 5563TIP3   OH216694   1.515   4.731   1.360
 5563TIP3    H116695   1.452   4.676   1.314
 5563TIP3    H216696   1.597   4.716   1.314
 5564TIP3   OH216697   4.205   3.051   2.452
 5564TIP3    H116698   4.157   3.073   2.372
 5564TIP3    H216699   4.148   2.988   2.497
 5565TIP3   OH216700   4.428   1.132   1.576
 5565TIP3    H116701   4.483   1.142   1.498
 5565TIP3    H216702   4.491   1.127   1.649
 5566TIP3   OH216703   0.735   4.449   0.352
 5566TIP3    H116704   0.645   4.463   0.381
 5566TIP3    H216705   0.741   4.492   0.267
 5567TIP3   OH216706   1.887   1.175   4.279
 5567TIP3    H116707   1.969   1.135   4.250
 5567TIP3    H216708   1.853   1.115   4.345
 5568TIP3   OH216709   2.536   1.709   3.454
 5568TIP3    H116710   2.456   1.684   3.500
 5568TIP3    H216711   2.552   1.799   3.483
 5569TIP3   OH216712   4.836   1.593   0.074
 5569TIP3    H116713   4.931   1.580   0.080
 5569TIP3    H216714   4.799   1.506   0.092
 5570TIP3   OH216715   1.611   5.710   4.326
 5570TIP3    H116716   1.642   5.731   4.238
 5570TIP3    H216717   1.558   5.785   4.352
 5571TIP3   OH216718   2.099   2.839   4.992
 5571TIP3    H116719   2.070   2.782   4.921
 5571TIP3    H216720   2.184   2.804   5.017
 5572TIP3   OH216721   6.269   3.291   0.630
 5572TIP3    H116722   6.191   3.241   0.607
 5572TIP3    H216723   6.339   3.226   0.631
 5573TIP3   OH216724   4.345   0.516   3.568
 5573TIP3    H116725   4.410   0.586   3.575
 5573TIP3    H216726   4.373   0.464   3.492
 5574TIP3   OH216727   1.983   5.653   0.528
 5574TIP3    H116728   1.948   5.564   0.536
 5574TIP3    H216729   1.908   5.706   0.500
 5575TIP3   OH216730   5.369   5.281   1.792
 5575TIP3    H116731   5.419   5.257   1.870
 5575TIP3    H216732   5.356   5.376   1.800
 5576TIP3   OH216733   6.207   1.565   1.056
 5576TIP3    H116734   6.243   1.529   1.137
 5576TIP3    H216735   6.178   1.489   1.007
 5577TIP3   OH216736   5.465   1.070   0.815
 5577TIP3    H116737   5.515   1.114   0.883
 5577TIP3    H216738   5.420   1.140   0.768
 5578TIP3   OH216739   4.119   1.393   4.052
 5578TIP3    H116740   4.134   1.485   4.027
 5578TIP3    H216741   4.025   1.382   4.044
 5579TIP3   OH216742   1.820   1.067   1.825
 5579TIP3    H116743   1.766   1.146   1.819
 5579TIP3    H216744   1.840   1.046   1.734
 5580TIP3   OH216745   6.393   5.580   2.883
 5580TIP3    H116746   6.408   5.655   2.941
 5580TIP3    H216747   6.481   5.544   2.868
 5581TIP3   OH216748   0.511   2.870   4.190
 5581TIP3    H116749   0.492   2.815   4.115
 5581TIP3    H216750   0.571   2.818   4.244
 5582TIP3   OH216751   1.733   4.475   3.939
 5582TIP3    H116752   1.818   4.502   3.973
 5582TIP3    H216753   1.739   4.491   3.845
 5583TIP3   OH216754   2.649   3.987   0.793
 5583TIP3    H116755   2.606   3.918   0.843
 5583TIP3    H216756   2.676   4.051   0.858
 5584TIP3   OH216757   2.758   3.057   0.388
 5584TIP3    H116758   2.687   3.120   0.380
 5584TIP3    H216759   2.727   2.995   0.454
 5585TIP3   OH216760   5.874   1.867   2.035
 5585TIP3    H116761   5.900   1.953   2.000
 5585TIP3    H216762   5.870   1.880   2.129
 5586TIP3   OH216763   4.824   3.801   4.815
 5586TIP3    H116764   4.848   3.751   4.737
 5586TIP3    H216765   4.907   3.828   4.854
 5587TIP3   OH216766   2.432   4.410   3.339
 5587TIP3    H116767   2.448   4.350   3.266
 5587TIP3    H216768   2.369   4.474   3.304
 5588TIP3   OH216769   1.779   2.459   2.076
 5588TIP3    H116770   1.722   2.445   2.001
 5588TIP3    H216771   1.732   2.420   2.150
 5589TIP3   OH216772   1.306   4.947   1.903
 5589TIP3    H116773   1.265   4.863   1.926
 5589TIP3    H216774   1.399   4.935   1.923
 5590TIP3   OH216775   0.595   0.667   3.255
 5590TIP3    H116776   0.614   0.599   3.191
 5590TIP3    H216777   0.680   0.707   3.274
 5591TIP3   OH216778   5.875   2.483   1.028
 5591TIP3    H116779   5.794   2.432   1.013
 5591TIP3    H216780   5.877   2.545   0.955
 5592TIP3   OH216781   4.440   0.545   2.511
 5592TIP3    H116782   4.496   0.469   2.497
 5592TIP3    H216783   4.369   0.512   2.566
 5593TIP3   OH216784   0.955   5.267   1.207
 5593TIP3    H116785   1.023   5.203   1.224
 5593TIP3    H216786   0.987   5.318   1.133
 5594TIP3   OH216787   6.003   1.465   2.693
 5594TIP3    H116788   5.909   1.465   2.675
 5594TIP3    H216789   6.039   1.400   2.634
 5595TIP3   OH216790   0.091   4.624   4.674
 5595TIP3    H116791   0.022   4.605   4.611
 5595TIP3    H216792   0.128   4.539   4.696
 5596TIP3   OH216793   1.150   5.537   3.844
 5596TIP3    H116794   1.100   5.568   3.768
 5596TIP3    H216795   1.223   5.599   3.852
 5597TIP3   OH216796   5.552   0.671   0.472
 5597TIP3    H116797   5.583   0.753   0.432
 5597TIP3    H216798   5.477   0.645   0.418
 5598TIP3   OH216799   4.020   4.522   4.869
 5598TIP3    H116800   3.986   4.435   4.846
 5598TIP3    H216801   4.101   4.530   4.818
 5599TIP3   OH216802   4.645   4.248   0.415
 5599TIP3    H116803   4.721   4.306   0.418
 5599TIP3    H216804   4.573   4.304   0.388
 5600TIP3   OH216805   1.066   4.820   3.021
 5600TIP3    H116806   1.078   4.782   3.108
 5600TIP3    H216807   1.153   4.850   2.995
 5601TIP3   OH216808   1.853   3.033   2.902
 5601TIP3    H116809   1.779   3.016   2.843
 5601TIP3    H216810   1.865   2.950   2.949
 5602TIP3   OH216811   2.565   4.109   2.295
 5602TIP3    H116812   2.608   4.107   2.210
 5602TIP3    H216813   2.636   4.107   2.359
 5603TIP3   OH216814   5.068   3.683   2.531
 5603TIP3    H116815   5.140   3.638   2.575
 5603TIP3    H216816   5.036   3.620   2.467
 5604TIP3   OH216817   2.663   5.123   2.298
 5604TIP3    H116818   2.632   5.157   2.382
 5604TIP3    H216819   2.757   5.137   2.299
 5605TIP3   OH216820   0.441   4.586   3.905
 5605TIP3    H116821   0.395   4.504   3.888
 5605TIP3    H216822   0.534   4.564   3.894
 5606TIP3   OH216823   1.848   2.029   3.688
 5606TIP3    H116824   1.856   2.115   3.729
 5606TIP3    H216825   1.915   1.976   3.731
 5607TIP3   OH216826   1.560   4.599   0.751
 5607TIP3    H116827   1.549   4.533   0.819
 5607TIP3    H216828   1.651   4.627   0.761
 5608TIP3   OH216829   5.658   5.784   0.275
 5608TIP3    H116830   5.647   5.877   0.259
 5608TIP3    H216831   5.620   5.770   0.362
 5609TIP3   OH216832   1.135   0.288   3.340
 5609TIP3    H116833   1.129   0.377   3.306
 5609TIP3    H216834   1.113   0.297   3.433
 5610TIP3   OH216835   3.364   5.252   4.560
 5610TIP3    H116836   3.373   5.217   4.649
 5610TIP3    H216837   3.435   5.316   4.553
 5611TIP3   OH216838   1.436   0.167   1.090
 5611TIP3    H116839   1.450   0.224   1.166
 5611TIP3    H216840   1.509   0.106   1.093
 5612TIP3   OH216841   1.249   1.992   3.422
 5612TIP3    H116842   1.283   2.070   3.379
 5612TIP3    H216843   1.158   2.014   3.443
 5613TIP3   OH216844   1.495   2.352   4.884
 5613TIP3    H116845   1.407   2.374   4.853
 5613TIP3    H216846   1.526   2.433   4.924
 5614TIP3   OH216847   1.913   3.340   1.747
 5614TIP3    H116848   1.897   3.337   1.652
 5614TIP3    H216849   1.979   3.272   1.762
 5615TIP3   OH216850   3.827   2.251   1.739
 5615TIP3    H116851   3.771   2.231   1.664
 5615TIP3    H216852   3.792   2.333   1.773
 5616TIP3   OH216853   5.466   4.046   2.452
 5616TIP3    H116854   5.420   4.057   2.369
 5616TIP3    H216855   5.396   4.034   2.516
 5617TIP3   OH216856   3.250   0.412   3.580
 5617TIP3    H116857   3.247   0.504   3.555
 5617TIP3    H216858   3.343   0.389   3.573
 5618TIP3   OH216859   3.705   3.170   3.062
 5618TIP3    H116860   3.788   3.182   3.109
 5618TIP3    H216861   3.660   3.254   3.072
 5619TIP3   OH216862   6.196   3.292   1.784
 5619TIP3    H116863   6.289   3.311   1.772
 5619TIP3    H216864   6.181   3.216   1.728
 5620TIP3   OH216865   3.653   5.299   1.426
 5620TIP3    H116866   3.707   5.221   1.415
 5620TIP3    H216867   3.714   5.372   1.418
 5621TIP3   OH216868   0.175   2.776   3.463
 5621TIP3    H116869   0.180   2.682   3.477
 5621TIP3    H216870   0.215   2.814   3.542
 5622TIP3   OH216871   1.025   5.770   3.987
 5622TIP3    H116872   0.940   5.748   4.026
 5622TIP3    H216873   1.028   5.720   3.906
 5623TIP3   OH216874   0.937   3.253   4.007
 5623TIP3    H116875   0.987   3.313   3.950
 5623TIP3    H216876   0.987   3.172   4.007
 5624TIP3   OH216877   4.649   4.396   4.055
 5624TIP3    H116878   4.676   4.378   3.965
 5624TIP3    H216879   4.604   4.481   4.049
 5625TIP3   OH216880   6.180   2.100   4.283
 5625TIP3    H116881   6.265   2.134   4.311
 5625TIP3    H216882   6.136   2.076   4.365
 5626TIP3   OH216883   5.105   0.893   3.521
 5626TIP3    H116884   5.110   0.911   3.427
 5626TIP3    H216885   5.151   0.967   3.561
 5627TIP3   OH216886   2.804   5.191   0.529
 5627TIP3    H116887   2.884   5.229   0.492
 5627TIP3    H216888   2.742   5.189   0.456
 5628TIP3   OH216889   5.209   0.887   4.909
 5628TIP3    H116890   5.132   0.847   4.867
 5628TIP3    H216891   5.257   0.928   4.837
 5629TIP3   OH216892   3.305   4.272   3.833
 5629TIP3    H116893   3.310   4.239   3.923
 5629TIP3    H216894   3.217   4.309   3.826
 5630TIP3   OH216895   3.373   2.736   2.482
 5630TIP3    H116896   3.348   2.824   2.451
 5630TIP3    H216897   3.465   2.728   2.456
 5631TIP3   OH216898   1.920   0.974   0.312
 5631TIP3    H116899   1.965   1.039   0.366
 5631TIP3    H216900   1.932   1.006   0.222
 5632TIP3   OH216901   5.594   5.050   4.025
 5632TIP3    H116902   5.538   4.977   4.001
 5632TIP3    H216903   5.676   5.010   4.053
 5633TIP3   OH216904   1.583   3.196   3.666
 5633TIP3    H116905   1.610   3.263   3.730
 5633TIP3    H216906   1.645   3.125   3.679
 5634TIP3   OH216907   3.981   0.385   3.498
 5634TIP3    H116908   3.904   0.331   3.480
 5634TIP3    H216909   4.037   0.330   3.552
 5635TIP3   OH216910   4.065   3.006   1.468
 5635TIP3    H116911   4.060   2.977   1.559
 5635TIP3    H216912   3.974   3.014   1.440
 5636TIP3   OH216913   0.616   4.901   2.639
 5636TIP3    H116914   0.699   4.942   2.614
 5636TIP3    H216915   0.641   4.814   2.670
 5637TIP3   OH216916   5.499   4.685   4.292
 5637TIP3    H116917   5.579   4.664   4.243
 5637TIP3    H216918   5.517   4.656   4.381
 5638TIP3   OH216919   5.846   5.485   2.765
 5638TIP3    H116920   5.800   5.551   2.818
 5638TIP3    H216921   5.868   5.531   2.684
 5639TIP3   OH216922   2.951   5.933   2.335
 5639TIP3    H116923   3.012   5.868   2.302
 5639TIP3    H216924   3.007   6.004   2.368
 5640TIP3   OH216925   2.285   4.574   3.159
 5640TIP3    H116926   2.220   4.588   3.090
 5640TIP3    H216927   2.273   4.648   3.219
 5641TIP3   OH216928   3.577   2.033   2.268
 5641TIP3    H116929   3.624   1.950   2.259
 5641TIP3    H216930   3.567   2.044   2.363
 5642TIP3   OH216931   4.774   1.584   2.895
 5642TIP3    H116932   4.726   1.589   2.978
 5642TIP3    H216933   4.719   1.632   2.833
 5643TIP3   OH216934   3.244   2.303   3.878
 5643TIP3    H116935   3.305   2.373   3.854
 5643TIP3    H216936   3.210   2.329   3.964
 5644TIP3   OH216937   4.869   1.647   2.211
 5644TIP3    H116938   4.794   1.682   2.259
 5644TIP3    H216939   4.842   1.558   2.187
 5645TIP3   OH216940   2.374   0.962   3.282
 5645TIP3    H116941   2.284   0.988   3.263
 5645TIP3    H216942   2.377   0.954   3.378
 5646TIP3   OH216943   2.942   1.155   1.529
 5646TIP3    H116944   2.885   1.079   1.543
 5646TIP3    H216945   3.026   1.118   1.503
 5647TIP3   OH216946   5.703   3.138   4.550
 5647TIP3    H116947   5.676   3.084   4.624
 5647TIP3    H216948   5.798   3.128   4.547
 5648TIP3   OH216949   4.234   2.644   2.742
 5648TIP3    H116950   4.211   2.669   2.652
 5648TIP3    H216951   4.152   2.609   2.778
 5649TIP3   OH216952   5.005   4.544  -0.038
 5649TIP3    H116953   4.958   4.515   0.041
 5649TIP3    H216954   4.979   4.482  -0.105
 5650TIP3   OH216955   1.804   1.990   1.092
 5650TIP3    H116956   1.864   1.945   1.151
 5650TIP3    H216957   1.717   1.959   1.118
 5651TIP3   OH216958   0.408   4.166   3.505
 5651TIP3    H116959   0.450   4.245   3.540
 5651TIP3    H216960   0.359   4.197   3.429
 5652TIP3   OH216961   2.720   0.891   3.112
 5652TIP3    H116962   2.723   0.980   3.148
 5652TIP3    H216963   2.631   0.861   3.129
 5653TIP3   OH216964   5.335   2.905   1.867
 5653TIP3    H116965   5.252   2.859   1.860
 5653TIP3    H216966   5.340   2.958   1.787
 5654TIP3   OH216967   3.614   5.924   1.056
 5654TIP3    H116968   3.672   5.956   0.987
 5654TIP3    H216969   3.666   5.935   1.136
 5655TIP3   OH216970   5.134   4.707   5.140
 5655TIP3    H116971   5.158   4.656   5.062
 5655TIP3    H216972   5.208   4.698   5.199
 5656TIP3   OH216973   1.518   2.998   0.548
 5656TIP3    H116974   1.539   2.946   0.470
 5656TIP3    H216975   1.437   3.043   0.525
 5657TIP3   OH216976   0.659   5.419   0.661
 5657TIP3    H116977   0.668   5.509   0.630
 5657TIP3    H216978   0.589   5.382   0.606
 5658TIP3   OH216979   5.385   2.097   1.381
 5658TIP3    H116980   5.460   2.072   1.435
 5658TIP3    H216981   5.422   2.154   1.313
 5659TIP3   OH216982   6.063   2.727   1.948
 5659TIP3    H116983   6.139   2.670   1.959
 5659TIP3    H216984   6.095   2.801   1.896
 5660TIP3   OH216985   6.069   0.684   2.451
 5660TIP3    H116986   6.111   0.706   2.535
 5660TIP3    H216987   6.085   0.590   2.440
 5661TIP3   OH216988   4.555   2.084   2.460
 5661TIP3    H116989   4.597   2.141   2.524
 5661TIP3    H216990   4.627   2.052   2.405
 5662TIP3   OH216991   5.570   0.906   2.136
 5662TIP3    H116992   5.521   0.907   2.219
 5662TIP3    H216993   5.658   0.934   2.160
 5663TIP3   OH216994   2.478   1.361   3.217
 5663TIP3    H116995   2.453   1.452   3.200
 5663TIP3    H216996   2.555   1.368   3.273
 5664TIP3   OH216997   2.372   0.984   3.761
 5664TIP3    H116998   2.383   1.062   3.706
 5664TIP3    H216999   2.436   0.922   3.727
 5665TIP3   OH217000   1.478   0.636   1.462
 5665TIP3    H117001   1.448   0.722   1.431
 5665TIP3    H217002   1.400   0.595   1.498
 5666TIP3   OH217003   4.877   0.898   3.717
 5666TIP3    H117004   4.925   0.855   3.788
 5666TIP3    H217005   4.943   0.910   3.648
 5667TIP3   OH217006   3.425   1.232   1.151
 5667TIP3    H117007   3.457   1.283   1.226
 5667TIP3    H217008   3.503   1.190   1.116
 5668TIP3   OH217009   1.698   3.760   3.944
 5668TIP3    H117010   1.782   3.715   3.941
 5668TIP3    H217011   1.642   3.703   3.998
 5669TIP3   OH217012   6.239   5.813   2.398
 5669TIP3    H117013   6.279   5.825   2.485
 5669TIP3    H217014   6.290   5.869   2.340
 5670TIP3   OH217015   2.258   2.488   1.440
 5670TIP3    H117016   2.166   2.464   1.449
 5670TIP3    H217017   2.259   2.558   1.375
 5671TIP3   OH217018   0.212   3.543   2.647
 5671TIP3    H117019   0.164   3.602   2.706
 5671TIP3    H217020   0.156   3.537   2.570
 5672TIP3   OH217021   0.438   4.642   1.813
 5672TIP3    H117022   0.531   4.633   1.793
 5672TIP3    H217023   0.422   4.580   1.884
 5673TIP3   OH217024   3.036   3.627   1.928
 5673TIP3    H117025   2.956   3.638   1.877
 5673TIP3    H217026   3.106   3.652   1.869
 5674TIP3   OH217027   2.950   1.301   3.001
 5674TIP3    H117028   2.859   1.312   2.975
 5674TIP3    H217029   2.983   1.230   2.946
 5675TIP3   OH217030   4.806   4.761   0.909
 5675TIP3    H117031   4.795   4.811   0.828
 5675TIP3    H217032   4.768   4.676   0.890
 5676TIP3   OH217033   4.747   5.454   1.923
 5676TIP3    H117034   4.723   5.447   1.830
 5676TIP3    H217035   4.741   5.365   1.956
 5677TIP3   OH217036   3.389   5.257   4.198
 5677TIP3    H117037   3.426   5.242   4.112
 5677TIP3    H217038   3.447   5.322   4.238
 5678TIP3   OH217039   4.999   1.627   0.986
 5678TIP3    H117040   5.032   1.716   1.000
 5678TIP3    H217041   4.988   1.619   0.892
 5679TIP3   OH217042   5.967   2.408   3.353
 5679TIP3    H117043   6.003   2.439   3.270
 5679TIP3    H217044   6.013   2.325   3.368
 5680TIP3   OH217045   2.982   2.570   0.162
 5680TIP3    H117046   2.896   2.593   0.196
 5680TIP3    H217047   3.043   2.619   0.218
 5681TIP3   OH217048   2.580   0.960   0.769
 5681TIP3    H117049   2.508   0.897   0.765
 5681TIP3    H217050   2.613   0.964   0.679
 5682TIP3   OH217051   5.582   1.567   1.721
 5682TIP3    H117052   5.668   1.586   1.756
 5682TIP3    H217053   5.546   1.501   1.779
 5683TIP3   OH217054   3.061   0.420   2.775
 5683TIP3    H117055   3.013   0.362   2.834
 5683TIP3    H217056   3.005   0.426   2.697
 5684TIP3   OH217057   0.179   1.360   0.179
 5684TIP3    H117058   0.198   1.452   0.200
 5684TIP3    H217059   0.086   1.360   0.155
 5685TIP3   OH217060   0.838   4.162   1.272
 5685TIP3    H117061   0.861   4.069   1.266
 5685TIP3    H217062   0.906   4.199   1.328
 5686TIP3   OH217063   3.790   3.361   1.066
 5686TIP3    H117064   3.746   3.328   1.145
 5686TIP3    H217065   3.792   3.287   1.006
 5687TIP3   OH217066   5.870   0.152   3.588
 5687TIP3    H117067   5.877   0.194   3.674
 5687TIP3    H217068   5.888   0.060   3.604
 5688TIP3   OH217069   4.239   3.598   3.623
 5688TIP3    H117070   4.249   3.570   3.532
 5688TIP3    H217071   4.201   3.686   3.618
 5689TIP3   OH217072   5.805   2.085   0.626
 5689TIP3    H117073   5.745   2.094   0.552
 5689TIP3    H217074   5.777   2.004   0.670
 5690TIP3   OH217075   0.776   1.829   0.836
 5690TIP3    H117076   0.715   1.884   0.787
 5690TIP3    H217077   0.827   1.889   0.889
 5691TIP3   OH217078   5.810   5.624   1.987
 5691TIP3    H117079   5.796   5.531   2.007
 5691TIP3    H217080   5.792   5.669   2.070
 5692TIP3   OH217081   0.742   0.208   4.905
 5692TIP3    H117082   0.793   0.171   4.978
 5692TIP3    H217083   0.784   0.292   4.886
 5693TIP3   OH217084   1.654   2.155   2.137
 5693TIP3    H117085   1.694   2.114   2.061
 5693TIP3    H217086   1.563   2.171   2.111
 5694TIP3   OH217087   1.876   2.420   0.822
 5694TIP3    H117088   1.871   2.348   0.758
 5694TIP3    H217089   1.948   2.474   0.791
 5695TIP3   OH217090   4.661   0.657   3.509
 5695TIP3    H117091   4.719   0.705   3.451
 5695TIP3    H217092   4.599   0.722   3.541
 5696TIP3   OH217093   4.124   4.009   3.984
 5696TIP3    H117094   4.073   4.081   3.948
 5696TIP3    H217095   4.132   4.030   4.077
 5697TIP3   OH217096   1.917   4.824   2.187
 5697TIP3    H117097   1.963   4.876   2.121
 5697TIP3    H217098   1.971   4.746   2.199
 5698TIP3   OH217099   3.819   5.607   0.308
 5698TIP3    H117100   3.755   5.674   0.332
 5698TIP3    H217101   3.824   5.550   0.385
 5699TIP3   OH217102   5.066   5.095   2.319
 5699TIP3    H117103   5.143   5.119   2.267
 5699TIP3    H217104   5.063   5.161   2.389
 5700TIP3   OH217105   3.497   3.797   3.016
 5700TIP3    H117106   3.453   3.748   3.086
 5700TIP3    H217107   3.587   3.806   3.047
 5701TIP3   OH217108   5.537   5.872  -0.031
 5701TIP3    H117109   5.575   5.874   0.057
 5701TIP3    H217110   5.536   5.780  -0.055
 5702TIP3   OH217111   3.335   1.351   0.596
 5702TIP3    H117112   3.247   1.329   0.626
 5702TIP3    H217113   3.379   1.387   0.673
 5703TIP3   OH217114   6.087   0.545   0.748
 5703TIP3    H117115   6.131   0.541   0.663
 5703TIP3    H217116   6.146   0.596   0.803
 5704TIP3   OH217117   0.164   4.661   0.077
 5704TIP3    H117118   0.197   4.733   0.022
 5704TIP3    H217119   0.084   4.632   0.034
 5705TIP3   OH217120   4.819   5.549   0.421
 5705TIP3    H117121   4.808   5.636   0.383
 5705TIP3    H217122   4.805   5.488   0.349
 5706TIP3   OH217123   5.738   3.471   0.462
 5706TIP3    H117124   5.792   3.539   0.422
 5706TIP3    H217125   5.800   3.406   0.493
 5707TIP3   OH217126   4.294   4.983   3.696
 5707TIP3    H117127   4.201   4.977   3.721
 5707TIP3    H217128   4.325   4.893   3.698
 5708TIP3   OH217129   2.706   3.504   3.698
 5708TIP3    H117130   2.762   3.547   3.763
 5708TIP3    H217131   2.687   3.418   3.736
 5709TIP3   OH217132   5.558   4.577   3.870
 5709TIP3    H117133   5.549   4.637   3.796
 5709TIP3    H217134   5.651   4.581   3.892
 5710TIP3   OH217135   0.847   5.705   1.469
 5710TIP3    H117136   0.789   5.767   1.424
 5710TIP3    H217137   0.789   5.637   1.503
 5711TIP3   OH217138   5.427   2.768   3.143
 5711TIP3    H117139   5.495   2.700   3.144
 5711TIP3    H217140   5.442   2.818   3.222
 5712TIP3   OH217141   2.046   4.653   0.133
 5712TIP3    H117142   1.993   4.683   0.059
 5712TIP3    H217143   1.986   4.603   0.187
 5713TIP3   OH217144   5.029   3.862   4.590
 5713TIP3    H117145   5.045   3.839   4.498
 5713TIP3    H217146   5.063   3.951   4.598
 5714TIP3   OH217147   2.206   0.392   2.045
 5714TIP3    H117148   2.159   0.311   2.024
 5714TIP3    H217149   2.223   0.386   2.139
 5715TIP3   OH217150   4.066   2.787   3.941
 5715TIP3    H117151   4.052   2.876   3.909
 5715TIP3    H217152   4.009   2.733   3.886
 5716TIP3   OH217153   3.098   0.467   2.398
 5716TIP3    H117154   3.163   0.397   2.408
 5716TIP3    H217155   3.148   0.540   2.361
 5717TIP3   OH217156   1.823   5.385   2.903
 5717TIP3    H117157   1.766   5.312   2.927
 5717TIP3    H217158   1.763   5.456   2.881
 5718TIP3   OH217159   2.356   3.394   0.027
 5718TIP3    H117160   2.436   3.415  -0.021
 5718TIP3    H217161   2.364   3.300   0.046
 5719TIP3   OH217162   4.123   2.082   1.794
 5719TIP3    H117163   4.036   2.111   1.766
 5719TIP3    H217164   4.146   2.141   1.866
 5720TIP3   OH217165   3.535   1.448   0.076
 5720TIP3    H117166   3.615   1.471   0.123
 5720TIP3    H217167   3.528   1.353   0.085
 5721TIP3   OH217168   3.872   4.315   2.791
 5721TIP3    H117169   3.786   4.351   2.811
 5721TIP3    H217170   3.933   4.371   2.839
 5722TIP3   OH217171   5.054   4.724   1.725
 5722TIP3    H117172   5.139   4.687   1.749
 5722TIP3    H217173   5.051   4.809   1.770
 5723TIP3   OH217174   5.616   3.142   2.865
 5723TIP3    H117175   5.520   3.142   2.866
 5723TIP3    H217176   5.639   3.096   2.784
 5724TIP3   OH217177   3.145   4.272   1.004
 5724TIP3    H117178   3.178   4.298   0.918
 5724TIP3    H217179   3.222   4.274   1.061
 5725TIP3   OH217180   1.213   2.987   3.428
 5725TIP3    H117181   1.286   3.045   3.451
 5725TIP3    H217182   1.140   3.047   3.414
 5726TIP3   OH217183   5.380   4.361   2.467
 5726TIP3    H117184   5.322   4.315   2.528
 5726TIP3    H217185   5.321   4.401   2.403
 5727TIP3   OH217186   0.402   5.117   1.338
 5727TIP3    H117187   0.385   5.170   1.260
 5727TIP3    H217188   0.319   5.116   1.385
 5728TIP3   OH217189   2.316   2.101   3.168
 5728TIP3    H117190   2.281   2.148   3.092
 5728TIP3    H217191   2.328   2.169   3.235
 5729TIP3   OH217192   1.226   2.741   0.422
 5729TIP3    H117193   1.268   2.725   0.337
 5729TIP3    H217194   1.269   2.679   0.481
 5730TIP3   OH217195   1.269   0.735   3.134
 5730TIP3    H117196   1.297   0.769   3.219
 5730TIP3    H217197   1.245   0.813   3.085
 5731TIP3   OH217198   0.391   4.195   4.868
 5731TIP3    H117199   0.465   4.177   4.926
 5731TIP3    H217200   0.405   4.136   4.793
 5732TIP3   OH217201   2.301   3.586   3.429
 5732TIP3    H117202   2.232   3.525   3.458
 5732TIP3    H217203   2.342   3.615   3.511
 5733TIP3   OH217204   5.464   4.165   1.517
 5733TIP3    H117205   5.492   4.199   1.602
 5733TIP3    H217206   5.520   4.209   1.454
 5734TIP3   OH217207   4.523   2.728   2.328
 5734TIP3    H117208   4.452   2.665   2.314
 5734TIP3    H217209   4.569   2.733   2.244
 5735TIP3   OH217210   2.315   5.637   1.850
 5735TIP3    H117211   2.319   5.683   1.934
 5735TIP3    H217212   2.311   5.544   1.874
 5736TIP3   OH217213   2.620   4.480   5.060
 5736TIP3    H117214   2.570   4.553   5.096
 5736TIP3    H217215   2.581   4.464   4.974
 5737TIP3   OH217216   1.852   2.811   5.125
 5737TIP3    H117217   1.939   2.831   5.090
 5737TIP3    H217218   1.869   2.771   5.210
 5738TIP3   OH217219   0.822   5.035   1.029
 5738TIP3    H117220   0.734   5.070   1.041
 5738TIP3    H217221   0.867   5.102   0.977
 5739TIP3   OH217222   4.517   0.631   0.415
 5739TIP3    H117223   4.454   0.623   0.344
 5739TIP3    H217224   4.468   0.670   0.487
 5740TIP3   OH217225   5.516   3.858   1.364
 5740TIP3    H117226   5.585   3.818   1.312
 5740TIP3    H217227   5.532   3.827   1.453
 5741TIP3   OH217228   1.177   5.378   0.479
 5741TIP3    H117229   1.250   5.417   0.431
 5741TIP3    H217230   1.150   5.303   0.425
 5742TIP3   OH217231   2.968   2.911   4.572
 5742TIP3    H117232   3.015   2.883   4.650
 5742TIP3    H217233   3.019   2.876   4.499
 5743TIP3   OH217234   0.263   3.725   1.647
 5743TIP3    H117235   0.348   3.715   1.690
 5743TIP3    H217236   0.251   3.820   1.641
 5744TIP3   OH217237   5.762   1.717   4.070
 5744TIP3    H117238   5.747   1.625   4.092
 5744TIP3    H217239   5.846   1.738   4.110
 5745TIP3   OH217240   0.957   0.894   4.126
 5745TIP3    H117241   0.914   0.910   4.210
 5745TIP3    H217242   0.886   0.884   4.064
 5746TIP3   OH217243   6.296   1.917   3.227
 5746TIP3    H117244   6.269   1.829   3.202
 5746TIP3    H217245   6.218   1.971   3.211
 5747TIP3   OH217246   3.201   0.449   4.980
 5747TIP3    H117247   3.148   0.527   4.968
 5747TIP3    H217248   3.283   0.468   4.935
 5748TIP3   OH217249   4.800   3.558   3.509
 5748TIP3    H117250   4.748   3.635   3.488
 5748TIP3    H217251   4.767   3.490   3.451
 5749TIP3   OH217252   4.792   4.733   1.911
 5749TIP3    H117253   4.767   4.805   1.853
 5749TIP3    H217254   4.857   4.684   1.860
 5750TIP3   OH217255   1.234   0.944   4.730
 5750TIP3    H117256   1.218   1.016   4.668
 5750TIP3    H217257   1.321   0.962   4.766
 5751TIP3   OH217258   2.638   5.115   1.064
 5751TIP3    H117259   2.602   5.204   1.075
 5751TIP3    H217260   2.668   5.113   0.973
 5752TIP3   OH217261   4.423   4.294   1.806
 5752TIP3    H117262   4.515   4.274   1.826
 5752TIP3    H217263   4.411   4.384   1.838
 5753TIP3   OH217264   1.983   4.781   2.902
 5753TIP3    H117265   1.962   4.703   2.850
 5753TIP3    H217266   1.949   4.854   2.850
 5754TIP3   OH217267   1.224   4.320   4.068
 5754TIP3    H117268   1.151   4.363   4.112
 5754TIP3    H217269   1.253   4.253   4.129
 5755TIP3   OH217270   1.219   1.065   3.290
 5755TIP3    H117271   1.201   1.136   3.351
 5755TIP3    H217272   1.147   1.069   3.227
 5756TIP3   OH217273   0.512   2.841   0.337
 5756TIP3    H117274   0.595   2.856   0.382
 5756TIP3    H217275   0.535   2.792   0.259
 5757TIP3   OH217276   0.198   1.487   2.104
 5757TIP3    H117277   0.283   1.463   2.142
 5757TIP3    H217278   0.216   1.562   2.048
 5758TIP3   OH217279   0.257   2.679   0.173
 5758TIP3    H117280   0.347   2.683   0.141
 5758TIP3    H217281   0.214   2.616   0.115
 5759TIP3   OH217282   0.789   4.008   2.491
 5759TIP3    H117283   0.820   4.069   2.558
 5759TIP3    H217284   0.744   3.939   2.540
 5760TIP3   OH217285   5.197   1.895   1.513
 5760TIP3    H117286   5.245   1.977   1.501
 5760TIP3    H217287   5.203   1.851   1.428
 5761TIP3   OH217288   6.215   1.827   3.735
 5761TIP3    H117289   6.133   1.789   3.764
 5761TIP3    H217290   6.275   1.816   3.809
 5762TIP3   OH217291   4.537   1.859   1.577
 5762TIP3    H117292   4.482   1.937   1.567
 5762TIP3    H217293   4.614   1.878   1.523
 5763TIP3   OH217294   2.046   5.600   4.695
 5763TIP3    H117295   1.971   5.652   4.668
 5763TIP3    H217296   2.117   5.663   4.704
 5764TIP3   OH217297   2.863   5.119   3.362
 5764TIP3    H117298   2.782   5.163   3.338
 5764TIP3    H217299   2.866   5.125   3.458
 5765TIP3   OH217300   2.094   3.925   1.572
 5765TIP3    H117301   2.186   3.944   1.594
 5765TIP3    H217302   2.095   3.832   1.547
 5766TIP3   OH217303   1.342   3.654   2.301
 5766TIP3    H117304   1.370   3.574   2.256
 5766TIP3    H217305   1.285   3.623   2.371
 5767TIP3   OH217306   1.125   3.484   1.885
 5767TIP3    H117307   1.096   3.538   1.958
 5767TIP3    H217308   1.071   3.511   1.811
 5768TIP3   OH217309   3.347   4.476   2.591
 5768TIP3    H117310   3.307   4.456   2.506
 5768TIP3    H217311   3.404   4.551   2.574
 5769TIP3   OH217312   3.118   0.481   1.335
 5769TIP3    H117313   3.153   0.462   1.248
 5769TIP3    H217314   3.120   0.397   1.381
 5770TIP3   OH217315   6.038   1.664   2.453
 5770TIP3    H117316   6.105   1.658   2.521
 5770TIP3    H217317   5.968   1.606   2.483
 5771TIP3   OH217318   1.804   1.343   2.685
 5771TIP3    H117319   1.734   1.371   2.745
 5771TIP3    H217320   1.757   1.297   2.615
 5772TIP3   OH217321   4.625   5.845   0.368
 5772TIP3    H117322   4.561   5.792   0.320
 5772TIP3    H217323   4.646   5.917   0.308
 5773TIP3   OH217324   2.351   5.894   0.421
 5773TIP3    H117325   2.368   5.987   0.433
 5773TIP3    H217326   2.432   5.859   0.384
 5774TIP3   OH217327   5.781   1.542   2.497
 5774TIP3    H117328   5.689   1.562   2.481
 5774TIP3    H217329   5.796   1.459   2.452
 5775TIP3   OH217330   1.782   5.827   0.446
 5775TIP3    H117331   1.775   5.915   0.409
 5775TIP3    H217332   1.743   5.834   0.533
 5776TIP3   OH217333   3.035   3.335   2.905
 5776TIP3    H117334   2.942   3.311   2.910
 5776TIP3    H217335   3.076   3.265   2.854
 5777TIP3   OH217336   5.654   5.365   4.766
 5777TIP3    H117337   5.694   5.380   4.851
 5777TIP3    H217338   5.561   5.384   4.779
 5778TIP3   OH217339   2.515   3.226   4.603
 5778TIP3    H117340   2.494   3.229   4.510
 5778TIP3    H217341   2.608   3.206   4.607
 5779TIP3   OH217342   0.377   4.030   1.915
 5779TIP3    H117343   0.427   3.994   1.842
 5779TIP3    H217344   0.407   3.981   1.991
 5780TIP3   OH217345   4.768   0.249   1.025
 5780TIP3    H117346   4.733   0.177   0.972
 5780TIP3    H217347   4.692   0.306   1.040
 5781TIP3   OH217348   1.898   0.132   4.467
 5781TIP3    H117349   1.985   0.170   4.456
 5781TIP3    H217350   1.865   0.170   4.549
 5782TIP3   OH217351   3.230   5.395   2.101
 5782TIP3    H117352   3.267   5.454   2.034
 5782TIP3    H217353   3.282   5.414   2.180
 5783TIP3   OH217354   1.814   2.632   4.178
 5783TIP3    H117355   1.834   2.586   4.259
 5783TIP3    H217356   1.740   2.689   4.201
 5784TIP3   OH217357   2.960   3.579   0.274
 5784TIP3    H117358   3.039   3.542   0.313
 5784TIP3    H217359   2.983   3.671   0.258
 5785TIP3   OH217360   2.915   1.763   1.793
 5785TIP3    H117361   2.988   1.791   1.848
 5785TIP3    H217362   2.949   1.689   1.743
 5786TIP3   OH217363   4.634   4.757   4.804
 5786TIP3    H117364   4.586   4.677   4.786
 5786TIP3    H217365   4.628   4.808   4.723
 5787TIP3   OH217366   4.338   5.200   3.321
 5787TIP3    H117367   4.332   5.211   3.226
 5787TIP3    H217368   4.362   5.109   3.334
 5788TIP3   OH217369   1.316   4.559   1.236
 5788TIP3    H117370   1.255   4.632   1.247
 5788TIP3    H217371   1.259   4.482   1.230
 5789TIP3   OH217372   3.708   5.015   3.650
 5789TIP3    H117373   3.662   4.934   3.674
 5789TIP3    H217374   3.696   5.023   3.555
 5790TIP3   OH217375   6.294   2.031   2.400
 5790TIP3    H117376   6.318   2.092   2.470
 5790TIP3    H217377   6.211   2.064   2.367
 5791TIP3   OH217378   4.552   0.063   0.880
 5791TIP3    H117379   4.463   0.030   0.865
 5791TIP3    H217380   4.569   0.121   0.806
 5792TIP3   OH217381   4.790   6.039   0.519
 5792TIP3    H117382   4.757   5.971   0.460
 5792TIP3    H217383   4.840   5.991   0.585
 5793TIP3   OH217384   1.045   2.188   4.965
 5793TIP3    H117385   0.963   2.181   4.916
 5793TIP3    H217386   1.087   2.102   4.955
 5794TIP3   OH217387   6.176   2.913   1.425
 5794TIP3    H117388   6.090   2.949   1.444
 5794TIP3    H217389   6.165   2.818   1.428
 5795TIP3   OH217390   6.180   0.308   3.041
 5795TIP3    H117391   6.131   0.385   3.013
 5795TIP3    H217392   6.236   0.340   3.112
 5796TIP3   OH217393   4.318   3.451   3.426
 5796TIP3    H117394   4.358   3.401   3.355
 5796TIP3    H217395   4.351   3.410   3.506
 5797TIP3   OH217396   1.444   5.900   2.180
 5797TIP3    H117397   1.471   5.907   2.088
 5797TIP3    H217398   1.466   5.985   2.218
 5798TIP3   OH217399   0.459   1.213   1.753
 5798TIP3    H117400   0.527   1.246   1.811
 5798TIP3    H217401   0.498   1.136   1.711
 5799TIP3   OH217402   2.211   2.823   0.818
 5799TIP3    H117403   2.298   2.800   0.786
 5799TIP3    H217404   2.214   2.918   0.828
 5800TIP3   OH217405   1.565   1.485   3.092
 5800TIP3    H117406   1.532   1.572   3.114
 5800TIP3    H217407   1.495   1.426   3.119
 5801TIP3   OH217408   2.702   4.878   5.068
 5801TIP3    H117409   2.772   4.900   5.129
 5801TIP3    H217410   2.624   4.918   5.106
 5802TIP3   OH217411   3.588   3.430   1.887
 5802TIP3    H117412   3.663   3.444   1.945
 5802TIP3    H217413   3.586   3.335   1.873
 5803TIP3   OH217414   3.836   0.458   4.366
 5803TIP3    H117415   3.747   0.481   4.343
 5803TIP3    H217416   3.884   0.541   4.367
 5804TIP3   OH217417   1.598   1.457   5.104
 5804TIP3    H117418   1.595   1.367   5.072
 5804TIP3    H217419   1.643   1.451   5.188
 5805TIP3   OH217420   0.667   3.590   1.976
 5805TIP3    H117421   0.710   3.516   2.017
 5805TIP3    H217422   0.726   3.664   1.990
 5806TIP3   OH217423   4.237   1.352   3.783
 5806TIP3    H117424   4.158   1.378   3.734
 5806TIP3    H217425   4.212   1.361   3.875
 5807TIP3   OH217426   3.008   4.453   1.140
 5807TIP3    H117427   3.058   4.375   1.114
 5807TIP3    H217428   3.075   4.520   1.156
 5808TIP3   OH217429   3.725   5.697   1.573
 5808TIP3    H117430   3.728   5.792   1.574
 5808TIP3    H217431   3.781   5.672   1.500
 5809TIP3   OH217432   3.798   4.881   0.570
 5809TIP3    H117433   3.715   4.909   0.532
 5809TIP3    H217434   3.842   4.833   0.499
 5810TIP3   OH217435   5.017   5.402   1.593
 5810TIP3    H117436   5.067   5.483   1.593
 5810TIP3    H217437   5.036   5.362   1.678
 5811TIP3   OH217438   2.145   3.234   4.530
 5811TIP3    H117439   2.163   3.142   4.511
 5811TIP3    H217440   2.120   3.235   4.623
 5812TIP3   OH217441   0.759   0.542   3.475
 5812TIP3    H117442   0.729   0.633   3.480
 5812TIP3    H217443   0.842   0.547   3.426
 5813TIP3   OH217444   4.403   3.612   5.003
 5813TIP3    H117445   4.318   3.567   5.004
 5813TIP3    H217446   4.427   3.613   4.910
 5814TIP3   OH217447   4.679   2.108   3.681
 5814TIP3    H117448   4.775   2.106   3.676
 5814TIP3    H217449   4.652   2.166   3.611
 5815TIP3   OH217450   0.083   4.064   4.245
 5815TIP3    H117451   0.163   4.012   4.237
 5815TIP3    H217452   0.054   4.077   4.155
 5816TIP3   OH217453   4.568   5.284   2.578
 5816TIP3    H117454   4.602   5.366   2.542
 5816TIP3    H217455   4.557   5.228   2.501
 5817TIP3   OH217456   0.956   4.922   3.721
 5817TIP3    H117457   1.042   4.907   3.761
 5817TIP3    H217458   0.946   5.017   3.720
 5818TIP3   OH217459   4.688   5.206   5.225
 5818TIP3    H117460   4.638   5.202   5.143
 5818TIP3    H217461   4.721   5.296   5.229
 5819TIP3   OH217462   2.626   4.504   2.769
 5819TIP3    H117463   2.595   4.576   2.824
 5819TIP3    H217464   2.632   4.542   2.681
 5820TIP3   OH217465   1.627   4.029   0.788
 5820TIP3    H117466   1.697   4.068   0.737
 5820TIP3    H217467   1.633   4.071   0.874
 5821TIP3   OH217468   3.346   3.778   3.419
 5821TIP3    H117469   3.259   3.818   3.421
 5821TIP3    H217470   3.330   3.685   3.431
 5822TIP3   OH217471   2.961   4.694   3.996
 5822TIP3    H117472   2.989   4.686   4.088
 5822TIP3    H217473   2.883   4.639   3.990
 5823TIP3   OH217474   3.430   4.736   4.698
 5823TIP3    H117475   3.380   4.660   4.727
 5823TIP3    H217476   3.373   4.780   4.635
 5824TIP3   OH217477   4.405   0.485   2.023
 5824TIP3    H117478   4.499   0.502   2.019
 5824TIP3    H217479   4.383   0.451   1.935
 5825TIP3   OH217480   0.330   4.953   3.328
 5825TIP3    H117481   0.356   5.027   3.274
 5825TIP3    H217482   0.263   4.988   3.386
 5826TIP3   OH217483   4.980   2.712   0.389
 5826TIP3    H117484   4.952   2.629   0.350
 5826TIP3    H217485   5.061   2.691   0.435
 5827TIP3   OH217486   2.142   1.008   3.158
 5827TIP3    H117487   2.087   1.085   3.164
 5827TIP3    H217488   2.160   0.999   3.064
 5828TIP3   OH217489   3.739   1.406   1.477
 5828TIP3    H117490   3.694   1.420   1.393
 5828TIP3    H217491   3.832   1.406   1.453
 5829TIP3   OH217492   4.126   0.194   4.110
 5829TIP3    H117493   4.086   0.281   4.107
 5829TIP3    H217494   4.090   0.155   4.190
 5830TIP3   OH217495   2.486   0.158   1.886
 5830TIP3    H117496   2.532   0.097   1.829
 5830TIP3    H217497   2.431   0.103   1.942
 5831TIP3   OH217498   4.499   3.582   1.203
 5831TIP3    H117499   4.587   3.612   1.182
 5831TIP3    H217500   4.510   3.525   1.279
 5832TIP3   OH217501   1.442   0.694   2.171
 5832TIP3    H117502   1.518   0.741   2.135
 5832TIP3    H217503   1.477   0.610   2.200
 5833TIP3   OH217504   1.076   5.156   4.620
 5833TIP3    H117505   1.057   5.092   4.551
 5833TIP3    H217506   1.056   5.241   4.580
 5834TIP3   OH217507   6.315   3.987   1.090
 5834TIP3    H117508   6.229   3.955   1.119
 5834TIP3    H217509   6.332   4.062   1.147
 5835TIP3   OH217510   1.142   1.860   4.672
 5835TIP3    H117511   1.125   1.773   4.707
 5835TIP3    H217512   1.120   1.920   4.744
 5836TIP3   OH217513   0.529   1.314   3.087
 5836TIP3    H117514   0.530   1.322   3.183
 5836TIP3    H217515   0.437   1.319   3.064
 5837TIP3   OH217516   1.626   2.274   1.394
 5837TIP3    H117517   1.537   2.250   1.422
 5837TIP3    H217518   1.681   2.202   1.424
 5838TIP3   OH217519   3.112   1.028   3.409
 5838TIP3    H117520   3.075   1.029   3.497
 5838TIP3    H217521   3.118   1.120   3.384
 5839TIP3   OH217522   2.237   4.687   2.878
 5839TIP3    H117523   2.258   4.742   2.803
 5839TIP3    H217524   2.154   4.720   2.910
 5840TIP3   OH217525   1.955   2.493   3.173
 5840TIP3    H117526   1.949   2.545   3.253
 5840TIP3    H217527   1.987   2.555   3.107
 5841TIP3   OH217528   6.155   1.019   3.780
 5841TIP3    H117529   6.221   0.953   3.760
 5841TIP3    H217530   6.187   1.098   3.737
 5842TIP3   OH217531   0.848   1.499   3.672
 5842TIP3    H117532   0.879   1.525   3.585
 5842TIP3    H217533   0.873   1.407   3.680
 5843TIP3   OH217534   5.987   2.995   2.567
 5843TIP3    H117535   6.045   3.065   2.597
 5843TIP3    H217536   6.012   2.982   2.475
 5844TIP3   OH217537   3.810   2.205   1.248
 5844TIP3    H117538   3.751   2.144   1.205
 5844TIP3    H217539   3.785   2.202   1.340
 5845TIP3   OH217540   3.780   0.416   1.843
 5845TIP3    H117541   3.729   0.485   1.801
 5845TIP3    H217542   3.810   0.455   1.925
 5846TIP3   OH217543   1.074   3.753   0.751
 5846TIP3    H117544   1.132   3.731   0.678
 5846TIP3    H217545   1.088   3.682   0.814
 5847TIP3   OH217546   1.156   6.058   0.621
 5847TIP3    H117547   1.150   6.010   0.538
 5847TIP3    H217548   1.077   6.034   0.668
 5848TIP3   OH217549   3.234   2.431   1.666
 5848TIP3    H117550   3.317   2.437   1.713
 5848TIP3    H217551   3.255   2.387   1.585
 5849TIP3   OH217552   0.549   4.066   3.948
 5849TIP3    H117553   0.609   4.111   3.888
 5849TIP3    H217554   0.602   4.046   4.024
 5850TIP3   OH217555   4.079   3.900   0.639
 5850TIP3    H117556   4.018   3.967   0.605
 5850TIP3    H217557   4.166   3.935   0.620
 5851TIP3   OH217558   1.801   2.372   0.091
 5851TIP3    H117559   1.851   2.444   0.054
 5851TIP3    H217560   1.724   2.415   0.131
 5852TIP3   OH217561   6.108   4.094   0.579
 5852TIP3    H117562   6.198   4.114   0.605
 5852TIP3    H217563   6.071   4.046   0.653
 5853TIP3   OH217564   0.236   3.892   0.269
 5853TIP3    H117565   0.299   3.898   0.341
 5853TIP3    H217566   0.187   3.812   0.287
 5854TIP3   OH217567   1.698   1.093   2.193
 5854TIP3    H117568   1.775   1.086   2.249
 5854TIP3    H217569   1.624   1.075   2.250
 5855TIP3   OH217570   0.133   4.155   2.966
 5855TIP3    H117571   0.128   4.059   2.970
 5855TIP3    H217572   0.043   4.184   2.981
 5856TIP3   OH217573   3.918   5.578   5.091
 5856TIP3    H117574   3.922   5.550   4.999
 5856TIP3    H217575   3.924   5.673   5.087
 5857TIP3   OH217576   6.035   3.473   1.514
 5857TIP3    H117577   6.096   3.417   1.466
 5857TIP3    H217578   6.091   3.538   1.556
 5858TIP3   OH217579   1.569   0.074   0.762
 5858TIP3    H117580   1.624   0.152   0.762
 5858TIP3    H217581   1.625   0.005   0.799
 5859TIP3   OH217582   3.529   5.000   4.584
 5859TIP3    H117583   3.476   5.026   4.659
 5859TIP3    H217584   3.580   5.078   4.562
 5860TIP3   OH217585   4.354   4.850   0.566
 5860TIP3    H117586   4.407   4.886   0.637
 5860TIP3    H217587   4.266   4.883   0.582
 5861TIP3   OH217588   4.718   5.016   4.110
 5861TIP3    H117589   4.799   5.066   4.122
 5861TIP3    H217590   4.745   4.925   4.118
 5862TIP3   OH217591   3.052   4.139   0.587
 5862TIP3    H117592   3.000   4.189   0.650
 5862TIP3    H217593   3.132   4.117   0.634
 5863TIP3   OH217594   2.653   1.416   0.923
 5863TIP3    H117595   2.571   1.417   0.971
 5863TIP3    H217596   2.662   1.325   0.892
 5864TIP3   OH217597   3.281   1.514   3.899
 5864TIP3    H117598   3.224   1.448   3.859
 5864TIP3    H217599   3.229   1.551   3.970
 5865TIP3   OH217600   3.869   2.116   4.342
 5865TIP3    H117601   3.812   2.041   4.360
 5865TIP3    H217602   3.912   2.134   4.425
 5866TIP3   OH217603   3.579   4.156   4.569
 5866TIP3    H117604   3.520   4.081   4.581
 5866TIP3    H217605   3.657   4.118   4.530
 5867TIP3   OH217606   4.320   5.278   0.613
 5867TIP3    H117607   4.262   5.319   0.549
 5867TIP3    H217608   4.314   5.334   0.691
 5868TIP3   OH217609   1.900   5.591   4.155
 5868TIP3    H117610   1.910   5.634   4.070
 5868TIP3    H217611   1.979   5.614   4.203
 5869TIP3   OH217612   2.399   5.264   1.428
 5869TIP3    H117613   2.456   5.337   1.404
 5869TIP3    H217614   2.327   5.305   1.477
 5870TIP3   OH217615   0.932   2.049   1.382
 5870TIP3    H117616   0.922   1.957   1.360
 5870TIP3    H217617   1.003   2.080   1.326
 5871TIP3   OH217618   0.415   0.343   0.439
 5871TIP3    H117619   0.398   0.300   0.523
 5871TIP3    H217620   0.492   0.298   0.405
 5872TIP3   OH217621   2.136   1.556   3.148
 5872TIP3    H117622   2.232   1.554   3.152
 5872TIP3    H217623   2.112   1.472   3.110
 5873TIP3   OH217624   3.585   3.046   2.014
 5873TIP3    H117625   3.588   2.997   1.932
 5873TIP3    H217626   3.511   3.106   2.003
 5874TIP3   OH217627   0.464   3.555   1.159
 5874TIP3    H117628   0.461   3.623   1.226
 5874TIP3    H217629   0.476   3.602   1.077
 5875TIP3   OH217630   0.865   3.120   2.090
 5875TIP3    H117631   0.813   3.195   2.118
 5875TIP3    H217632   0.869   3.063   2.167
 5876TIP3   OH217633   0.450   4.904   2.428
 5876TIP3    H117634   0.539   4.899   2.462
 5876TIP3    H217635   0.439   4.823   2.379
 5877TIP3   OH217636   5.234   5.694   2.210
 5877TIP3    H117637   5.180   5.641   2.153
 5877TIP3    H217638   5.186   5.776   2.221
 5878TIP3   OH217639   4.301   2.656   3.310
 5878TIP3    H117640   4.247   2.734   3.322
 5878TIP3    H217641   4.251   2.585   3.351
 5879TIP3   OH217642   3.749   3.945   1.435
 5879TIP3    H117643   3.824   3.958   1.492
 5879TIP3    H217644   3.673   3.957   1.493
 5880TIP3   OH217645   2.966   3.753   0.899
 5880TIP3    H117646   2.996   3.746   0.809
 5880TIP3    H217647   3.010   3.681   0.944
 5881TIP3   OH217648   3.467   2.808   3.514
 5881TIP3    H117649   3.426   2.722   3.519
 5881TIP3    H217650   3.535   2.807   3.581
 5882TIP3   OH217651   4.681   2.314   2.604
 5882TIP3    H117652   4.602   2.353   2.568
 5882TIP3    H217653   4.666   2.314   2.699
 5883TIP3   OH217654   2.310   5.150   4.919
 5883TIP3    H117655   2.403   5.170   4.926
 5883TIP3    H217656   2.303   5.056   4.939
 5884TIP3   OH217657   5.703   4.936   3.568
 5884TIP3    H117658   5.643   4.871   3.605
 5884TIP3    H217659   5.766   4.885   3.518
 5885TIP3   OH217660   3.493   1.995   2.548
 5885TIP3    H117661   3.453   1.919   2.507
 5885TIP3    H217662   3.464   1.992   2.639
 5886TIP3   OH217663   4.120   4.829   4.129
 5886TIP3    H117664   4.172   4.810   4.207
 5886TIP3    H217665   4.066   4.752   4.117
 5887TIP3   OH217666   5.207   2.721   1.352
 5887TIP3    H117667   5.232   2.811   1.332
 5887TIP3    H217668   5.279   2.687   1.405
 5888TIP3   OH217669   2.877   2.000   1.540
 5888TIP3    H117670   2.929   1.945   1.598
 5888TIP3    H217671   2.818   1.940   1.495
 5889TIP3   OH217672   2.606   4.543   1.725
 5889TIP3    H117673   2.550   4.618   1.743
 5889TIP3    H217674   2.617   4.500   1.810
 5890TIP3   OH217675   2.183   3.818   5.051
 5890TIP3    H117676   2.212   3.902   5.015
 5890TIP3    H217677   2.262   3.765   5.056
 5891TIP3   OH217678   0.019   4.605   0.555
 5891TIP3    H117679   0.077   4.531   0.573
 5891TIP3    H217680   0.076   4.673   0.521
 5892TIP3   OH217681   3.311   5.711   3.597
 5892TIP3    H117682   3.373   5.727   3.525
 5892TIP3    H217683   3.262   5.633   3.569
 5893TIP3   OH217684   2.395   5.453   0.475
 5893TIP3    H117685   2.335   5.512   0.431
 5893TIP3    H217686   2.343   5.414   0.545
 5894TIP3   OH217687   2.311   3.674   0.026
 5894TIP3    H117688   2.302   3.586   0.062
 5894TIP3    H217689   2.403   3.680  -0.002
 5895TIP3   OH217690   3.474   4.000   2.470
 5895TIP3    H117691   3.513   4.010   2.383
 5895TIP3    H217692   3.493   3.910   2.494
 5896TIP3   OH217693   3.901   2.858   0.293
 5896TIP3    H117694   3.828   2.920   0.292
 5896TIP3    H217695   3.965   2.896   0.233
 5897TIP3   OH217696   1.483   3.515   3.180
 5897TIP3    H117697   1.493   3.553   3.092
 5897TIP3    H217698   1.564   3.538   3.225
 5898TIP3   OH217699   3.484   4.243   1.452
 5898TIP3    H117700   3.530   4.215   1.531
 5898TIP3    H217701   3.498   4.172   1.390
 5899TIP3   OH217702   5.881   2.273   2.784
 5899TIP3    H117703   5.858   2.191   2.741
 5899TIP3    H217704   5.944   2.248   2.851
 5900TIP3   OH217705   5.763   2.035   4.722
 5900TIP3    H117706   5.818   2.113   4.731
 5900TIP3    H217707   5.676   2.064   4.752
 5901TIP3   OH217708   2.666   0.705   4.714
 5901TIP3    H117709   2.677   0.612   4.695
 5901TIP3    H217710   2.611   0.707   4.792
 5902TIP3   OH217711   5.218   4.729   2.597
 5902TIP3    H117712   5.195   4.643   2.562
 5902TIP3    H217713   5.312   4.737   2.581
 5903TIP3   OH217714   6.166   3.805   3.103
 5903TIP3    H117715   6.128   3.794   3.190
 5903TIP3    H217716   6.124   3.738   3.049
 5904TIP3   OH217717   5.042   3.106   2.976
 5904TIP3    H117718   5.068   3.175   3.037
 5904TIP3    H217719   4.990   3.150   2.910
 5905TIP3   OH217720   3.864   0.288   1.312
 5905TIP3    H117721   3.957   0.307   1.321
 5905TIP3    H217722   3.832   0.355   1.251
 5906TIP3   OH217723   2.264   5.934   4.116
 5906TIP3    H117724   2.239   5.950   4.025
 5906TIP3    H217725   2.338   5.873   4.110
 5907TIP3   OH217726   4.214   3.576   1.901
 5907TIP3    H117727   4.194   3.663   1.936
 5907TIP3    H217728   4.310   3.575   1.894
 5908TIP3   OH217729   2.460   3.860   4.586
 5908TIP3    H117730   2.545   3.876   4.628
 5908TIP3    H217731   2.479   3.794   4.519
 5909TIP3   OH217732   3.893   2.434   1.146
 5909TIP3    H117733   3.818   2.485   1.115
 5909TIP3    H217734   3.854   2.357   1.187
 5910TIP3   OH217735   0.910   1.010   1.454
 5910TIP3    H117736   0.828   0.962   1.446
 5910TIP3    H217737   0.883   1.100   1.474
 5911TIP3   OH217738   1.415   4.604   0.257
 5911TIP3    H117739   1.401   4.511   0.273
 5911TIP3    H217740   1.455   4.637   0.337
 5912TIP3   OH217741   2.450   2.074   4.774
 5912TIP3    H117742   2.519   2.063   4.708
 5912TIP3    H217743   2.442   2.168   4.784
 5913TIP3   OH217744   2.593   0.893   4.531
 5913TIP3    H117745   2.607   0.823   4.595
 5913TIP3    H217746   2.597   0.849   4.446
 5914TIP3   OH217747   1.317   5.792   3.317
 5914TIP3    H117748   1.401   5.766   3.279
 5914TIP3    H217749   1.297   5.875   3.274
 5915TIP3   OH217750   0.028   1.449   2.550
 5915TIP3    H117751  -0.059   1.424   2.580
 5915TIP3    H217752   0.026   1.435   2.456
 5916TIP3   OH217753   0.649   1.584   0.097
 5916TIP3    H117754   0.713   1.527   0.139
 5916TIP3    H217755   0.632   1.542   0.013
 5917TIP3   OH217756   0.928   0.942   0.866
 5917TIP3    H117757   1.011   0.906   0.895
 5917TIP3    H217758   0.940   0.958   0.772
 5918TIP3   OH217759   0.857   2.862   3.871
 5918TIP3    H117760   0.865   2.928   3.801
 5918TIP3    H217761   0.901   2.785   3.835
 5919TIP3   OH217762   2.201   3.974   0.669
 5919TIP3    H117763   2.122   3.998   0.620
 5919TIP3    H217764   2.273   4.006   0.614
 5920TIP3   OH217765   1.816   4.125   4.716
 5920TIP3    H117766   1.797   4.210   4.676
 5920TIP3    H217767   1.814   4.142   4.810
 5921TIP3   OH217768   0.316   2.335   2.138
 5921TIP3    H117769   0.234   2.312   2.093
 5921TIP3    H217770   0.368   2.255   2.136
 5922TIP3   OH217771   1.090   0.721   3.845
 5922TIP3    H117772   1.104   0.815   3.856
 5922TIP3    H217773   1.079   0.687   3.934
 5923TIP3   OH217774   4.982   4.114   3.565
 5923TIP3    H117775   5.057   4.056   3.547
 5923TIP3    H217776   5.021   4.197   3.592
 5924TIP3   OH217777   3.079   2.985   1.798
 5924TIP3    H117778   3.057   3.010   1.709
 5924TIP3    H217779   3.161   2.935   1.790
 5925TIP3   OH217780   5.184   0.550   0.178
 5925TIP3    H117781   5.159   0.458   0.184
 5925TIP3    H217782   5.179   0.570   0.084
 5926TIP3   OH217783   3.994   2.231   2.152
 5926TIP3    H117784   3.969   2.140   2.142
 5926TIP3    H217785   3.924   2.281   2.109
 5927TIP3   OH217786   4.247   1.659   4.051
 5927TIP3    H117787   4.321   1.704   4.009
 5927TIP3    H217788   4.188   1.729   4.078
 5928TIP3   OH217789   1.275   3.050   0.437
 5928TIP3    H117790   1.249   2.987   0.369
 5928TIP3    H217791   1.200   3.110   0.443
 5929TIP3   OH217792   2.088   4.523   1.903
 5929TIP3    H117793   2.148   4.462   1.948
 5929TIP3    H217794   2.129   4.609   1.914
 5930TIP3   OH217795   4.362   3.048   3.353
 5930TIP3    H117796   4.309   2.970   3.335
 5930TIP3    H217797   4.378   3.086   3.266
 5931TIP3   OH217798   4.742   0.152   3.316
 5931TIP3    H117799   4.732   0.233   3.366
 5931TIP3    H217800   4.802   0.175   3.245
 5932TIP3   OH217801   1.810   0.717   4.139
 5932TIP3    H117802   1.826   0.741   4.048
 5932TIP3    H217803   1.716   0.727   4.150
 5933TIP3   OH217804  -0.028   5.709   0.885
 5933TIP3    H117805  -0.005   5.710   0.978
 5933TIP3    H217806   0.056   5.716   0.839
 5934TIP3   OH217807   5.825   3.821   4.199
 5934TIP3    H117808   5.807   3.908   4.164
 5934TIP3    H217809   5.813   3.829   4.293
 5935TIP3   OH217810   2.549   3.952   1.934
 5935TIP3    H117811   2.461   3.916   1.922
 5935TIP3    H217812   2.605   3.901   1.876
 5936TIP3   OH217813   2.520   5.531   4.093
 5936TIP3    H117814   2.542   5.567   4.007
 5936TIP3    H217815   2.507   5.607   4.149
 5937TIP3   OH217816   4.948   1.373   2.311
 5937TIP3    H117817   4.981   1.287   2.287
 5937TIP3    H217818   4.874   1.355   2.369
 5938TIP3   OH217819   2.355   1.330   2.806
 5938TIP3    H117820   2.423   1.280   2.761
 5938TIP3    H217821   2.281   1.330   2.746
 5939TIP3   OH217822   5.523   2.708   4.530
 5939TIP3    H117823   5.496   2.656   4.454
 5939TIP3    H217824   5.517   2.647   4.604
 5940TIP3   OH217825   0.069   1.822   2.078
 5940TIP3    H117826   0.020   1.809   1.996
 5940TIP3    H217827   0.008   1.794   2.147
 5941TIP3   OH217828   2.885   4.547   4.777
 5941TIP3    H117829   2.833   4.624   4.802
 5941TIP3    H217830   2.849   4.520   4.692
 5942TIP3   OH217831   5.016   3.987   3.168
 5942TIP3    H117832   5.090   3.941   3.208
 5942TIP3    H217833   4.976   3.922   3.110
 5943TIP3   OH217834   2.048   1.638   1.020
 5943TIP3    H117835   2.032   1.654   0.926
 5943TIP3    H217836   1.977   1.579   1.046
 5944TIP3   OH217837   4.262   0.637   3.136
 5944TIP3    H117838   4.213   0.589   3.070
 5944TIP3    H217839   4.354   0.618   3.118
 5945TIP3   OH217840   1.326   5.261   2.610
 5945TIP3    H117841   1.355   5.241   2.521
 5945TIP3    H217842   1.262   5.193   2.630
 5946TIP3   OH217843   2.163   3.125   4.130
 5946TIP3    H117844   2.146   3.054   4.191
 5946TIP3    H217845   2.259   3.134   4.130
 5947TIP3   OH217846   0.217   1.724   3.876
 5947TIP3    H117847   0.146   1.788   3.867
 5947TIP3    H217848   0.199   1.659   3.808
 5948TIP3   OH217849   2.755   2.198   3.155
 5948TIP3    H117850   2.746   2.125   3.093
 5948TIP3    H217851   2.725   2.275   3.106
 5949TIP3   OH217852   0.601   1.833   3.549
 5949TIP3    H117853   0.646   1.781   3.483
 5949TIP3    H217854   0.669   1.887   3.588
 5950TIP3   OH217855   3.098   3.798   3.783
 5950TIP3    H117856   3.091   3.723   3.842
 5950TIP3    H217857   3.193   3.808   3.770
 5951TIP3   OH217858   4.144   0.028   1.068
 5951TIP3    H117859   4.069  -0.021   1.103
 5951TIP3    H217860   4.194   0.055   1.145
 5952TIP3   OH217861   3.292   3.519   4.245
 5952TIP3    H117862   3.373   3.545   4.201
 5952TIP3    H217863   3.299   3.424   4.254
 5953TIP3   OH217864   2.983   1.812   3.429
 5953TIP3    H117865   2.983   1.813   3.333
 5953TIP3    H217866   3.074   1.796   3.453
 5954TIP3   OH217867   5.911   1.661   0.984
 5954TIP3    H117868   5.991   1.622   1.019
 5954TIP3    H217869   5.892   1.734   1.043
 5955TIP3   OH217870   4.190   0.556   0.650
 5955TIP3    H117871   4.122   0.532   0.588
 5955TIP3    H217872   4.263   0.497   0.630
 5956TIP3   OH217873   2.165   1.286   4.673
 5956TIP3    H117874   2.157   1.192   4.687
 5956TIP3    H217875   2.259   1.300   4.659
 5957TIP3   OH217876   5.640   3.979   0.411
 5957TIP3    H117877   5.546   3.964   0.401
 5957TIP3    H217878   5.670   3.999   0.322
 5958TIP3   OH217879   0.977   0.589   4.107
 5958TIP3    H117880   0.911   0.656   4.124
 5958TIP3    H217881   0.977   0.534   4.186
 5959TIP3   OH217882   2.083   1.125   0.034
 5959TIP3    H117883   2.152   1.064   0.008
 5959TIP3    H217884   2.116   1.168   0.112
 5960TIP3   OH217885   3.564   5.245   2.836
 5960TIP3    H117886   3.608   5.241   2.751
 5960TIP3    H217887   3.574   5.337   2.863
 5961TIP3   OH217888   3.803   1.314   0.558
 5961TIP3    H117889   3.827   1.398   0.595
 5961TIP3    H217890   3.807   1.327   0.463
 5962TIP3   OH217891   3.149   1.905   0.508
 5962TIP3    H117892   3.128   1.941   0.422
 5962TIP3    H217893   3.160   1.811   0.493
 5963TIP3   OH217894  -0.007   2.149   0.850
 5963TIP3    H117895   0.032   2.211   0.787
 5963TIP3    H217896   0.064   2.087   0.868
 5964TIP3   OH217897   2.119   0.611   0.996
 5964TIP3    H117898   2.188   0.602   1.061
 5964TIP3    H217899   2.153   0.567   0.918
 5965TIP3   OH217900   5.930   3.611   1.288
 5965TIP3    H117901   6.010   3.635   1.242
 5965TIP3    H217902   5.961   3.561   1.364
 5966TIP3   OH217903   5.970   5.491   4.874
 5966TIP3    H117904   5.917   5.528   4.803
 5966TIP3    H217905   6.007   5.411   4.836
 5967TIP3   OH217906   3.326   0.701   0.636
 5967TIP3    H117907   3.370   0.645   0.700
 5967TIP3    H217908   3.383   0.777   0.626
 5968TIP3   OH217909   3.023   5.565   4.299
 5968TIP3    H117910   2.981   5.480   4.282
 5968TIP3    H217911   3.116   5.544   4.309
 5969TIP3   OH217912   0.967   0.996   0.602
 5969TIP3    H117913   0.988   0.904   0.584
 5969TIP3    H217914   0.875   1.004   0.578
 5970TIP3   OH217915   6.180   0.868   2.124
 5970TIP3    H117916   6.121   0.870   2.050
 5970TIP3    H217917   6.124   0.851   2.200
 5971TIP3   OH217918   3.747   4.514   3.929
 5971TIP3    H117919   3.707   4.461   3.998
 5971TIP3    H217920   3.712   4.478   3.847
 5972TIP3   OH217921   5.068   1.014   0.060
 5972TIP3    H117922   5.037   0.927   0.037
 5972TIP3    H217923   5.017   1.038   0.138
 5973TIP3   OH217924   0.831   2.155   4.786
 5973TIP3    H117925   0.833   2.148   4.690
 5973TIP3    H217926   0.796   2.071   4.815
 5974TIP3   OH217927   2.960   4.633   3.348
 5974TIP3    H117928   2.901   4.707   3.340
 5974TIP3    H217929   2.955   4.607   3.440
 5975TIP3   OH217930   4.252   3.801   0.031
 5975TIP3    H117931   4.231   3.709   0.014
 5975TIP3    H217932   4.244   3.810   0.125
 5976TIP3   OH217933   4.980   2.528   1.725
 5976TIP3    H117934   4.888   2.537   1.749
 5976TIP3    H217935   4.984   2.554   1.633
 5977TIP3   OH217936   1.030   4.196   4.480
 5977TIP3    H117937   0.986   4.112   4.471
 5977TIP3    H217938   1.118   4.181   4.445
 5978TIP3   OH217939   0.816   0.809   3.323
 5978TIP3    H117940   0.856   0.821   3.237
 5978TIP3    H217941   0.888   0.825   3.385
 5979TIP3   OH217942   1.958   5.375   0.507
 5979TIP3    H117943   2.046   5.361   0.544
 5979TIP3    H217944   1.964   5.342   0.418
 5980TIP3   OH217945   0.862   2.908   3.565
 5980TIP3    H117946   0.938   2.955   3.532
 5980TIP3    H217947   0.875   2.818   3.535
 5981TIP3   OH217948   4.238   2.299   4.850
 5981TIP3    H117949   4.168   2.268   4.792
 5981TIP3    H217950   4.288   2.221   4.872
 5982TIP3   OH217951   3.267   2.266   3.587
 5982TIP3    H117952   3.199   2.209   3.551
 5982TIP3    H217953   3.222   2.314   3.657
 5983TIP3   OH217954   1.157   3.607   2.893
 5983TIP3    H117955   1.185   3.520   2.863
 5983TIP3    H217956   1.160   3.601   2.989
 5984TIP3   OH217957   2.751   2.665   2.723
 5984TIP3    H117958   2.714   2.652   2.811
 5984TIP3    H217959   2.832   2.713   2.737
 5985TIP3   OH217960   4.481   2.870   2.815
 5985TIP3    H117961   4.521   2.954   2.791
 5985TIP3    H217962   4.390   2.891   2.833
 5986TIP3   OH217963   2.711   1.690   4.115
 5986TIP3    H117964   2.769   1.750   4.162
 5986TIP3    H217965   2.769   1.622   4.082
 5987TIP3   OH217966   5.416   2.982   3.339
 5987TIP3    H117967   5.365   2.970   3.419
 5987TIP3    H217968   5.503   3.009   3.370
 5988TIP3   OH217969   4.962   3.855   1.846
 5988TIP3    H117970   4.903   3.924   1.815
 5988TIP3    H217971   4.976   3.800   1.769
 5989TIP3   OH217972   1.384   2.684   0.198
 5989TIP3    H117973   1.450   2.734   0.245
 5989TIP3    H217974   1.361   2.739   0.123
 5990TIP3   OH217975   0.729   1.117   0.945
 5990TIP3    H117976   0.791   1.050   0.917
 5990TIP3    H217977   0.754   1.137   1.035
 5991TIP3   OH217978   2.733   1.946   2.967
 5991TIP3    H117979   2.737   1.863   3.014
 5991TIP3    H217980   2.816   1.951   2.919
 5992TIP3   OH217981   2.810   0.074   3.402
 5992TIP3    H117982   2.732   0.043   3.446
 5992TIP3    H217983   2.800   0.047   3.311
 5993TIP3   OH217984   3.424   5.226   1.561
 5993TIP3    H117985   3.369   5.305   1.561
 5993TIP3    H217986   3.501   5.251   1.510
 5994TIP3   OH217987   1.253   5.864   4.683
 5994TIP3    H117988   1.185   5.797   4.689
 5994TIP3    H217989   1.207   5.944   4.662
 5995TIP3   OH217990   1.894   1.424   4.069
 5995TIP3    H117991   1.919   1.332   4.063
 5995TIP3    H217992   1.869   1.437   4.160
 5996TIP3   OH217993   1.555   3.852   4.967
 5996TIP3    H117994   1.535   3.925   5.026
 5996TIP3    H217995   1.641   3.873   4.931
 5997TIP3   OH217996   4.395   3.213   0.972
 5997TIP3    H117997   4.459   3.171   0.913
 5997TIP3    H217998   4.386   3.302   0.938
 5998TIP3   OH217999   2.271   4.980   3.070
 5998TIP3    H118000   2.305   5.009   2.985
 5998TIP3    H218001   2.206   5.046   3.094
 5999TIP3   OH218002   6.140   0.996   4.428
 5999TIP3    H118003   6.098   1.074   4.464
 5999TIP3    H218004   6.139   0.932   4.499
 6000TIP3   OH218005   4.605   4.910   3.384
 6000TIP3    H118006   4.528   4.913   3.326
 6000TIP3    H218007   4.675   4.951   3.333
 6001TIP3   OH218008   5.278   0.709   0.726
 6001TIP3    H118009   5.206   0.693   0.664
 6001TIP3    H218010   5.253   0.790   0.771
 6002TIP3   OH218011   4.471   0.676   2.887
 6002TIP3    H118012   4.563   0.664   2.912
 6002TIP3    H218013   4.447   0.594   2.844
 6003TIP3   OH218014   1.555   4.138   4.985
 6003TIP3    H118015   1.642   4.173   5.004
 6003TIP3    H218016   1.522   4.192   4.913
 6004TIP3   OH218017   5.736   1.287   4.557
 6004TIP3    H118018   5.739   1.365   4.502
 6004TIP3    H218019   5.753   1.319   4.645
 6005TIP3   OH218020   3.632   1.723   3.670
 6005TIP3    H118021   3.628   1.793   3.605
 6005TIP3    H218022   3.715   1.737   3.715
 6006TIP3   OH218023   0.194   1.689   4.803
 6006TIP3    H118024   0.165   1.638   4.878
 6006TIP3    H218025   0.264   1.637   4.764
 6007TIP3   OH218026   2.181   0.705   2.164
 6007TIP3    H118027   2.143   0.656   2.237
 6007TIP3    H218028   2.252   0.650   2.132
 6008TIP3   OH218029   1.169   2.978   0.936
 6008TIP3    H118030   1.251   3.018   0.965
 6008TIP3    H218031   1.195   2.894   0.897
 6009TIP3   OH218032   3.995   5.426   0.190
 6009TIP3    H118033   3.922   5.478   0.223
 6009TIP3    H218034   3.981   5.423   0.095
 6010TIP3   OH218035   0.523   1.617   3.305
 6010TIP3    H118036   0.441   1.615   3.255
 6010TIP3    H218037   0.564   1.700   3.280
 6011TIP3   OH218038   4.159   1.752   1.927
 6011TIP3    H118039   4.153   1.773   1.834
 6011TIP3    H218040   4.157   1.837   1.971
 6012TIP3   OH218041   5.604   3.599   2.870
 6012TIP3    H118042   5.583   3.535   2.802
 6012TIP3    H218043   5.695   3.625   2.851
 6013TIP3   OH218044   2.618   3.041   0.043
 6013TIP3    H118045   2.682   2.970   0.042
 6013TIP3    H218046   2.638   3.092  -0.036
 6014TIP3   OH218047   2.451   5.640   2.288
 6014TIP3    H118048   2.417   5.609   2.372
 6014TIP3    H218049   2.433   5.568   2.227
 6015TIP3   OH218050   0.160   0.902   1.518
 6015TIP3    H118051   0.167   0.934   1.608
 6015TIP3    H218052   0.126   0.813   1.527
 6016TIP3   OH218053   3.025   4.163   4.367
 6016TIP3    H118054   3.110   4.200   4.345
 6016TIP3    H218055   2.971   4.239   4.391
 6017TIP3   OH218056   4.442   4.286   3.195
 6017TIP3    H118057   4.480   4.341   3.263
 6017TIP3    H218058   4.516   4.241   3.155
 6018TIP3   OH218059   1.433   4.118   1.015
 6018TIP3    H118060   1.365   4.051   1.024
 6018TIP3    H218061   1.425   4.148   0.924
 6019TIP3   OH218062   3.272   2.601   4.818
 6019TIP3    H118063   3.351   2.577   4.769
 6019TIP3    H218064   3.202   2.599   4.753
 6020TIP3   OH218065   0.305   1.609   2.545
 6020TIP3    H118066   0.335   1.522   2.519
 6020TIP3    H218067   0.278   1.651   2.464
 6021TIP3   OH218068   4.978   0.247   3.923
 6021TIP3    H118069   4.890   0.212   3.924
 6021TIP3    H218070   4.999   0.257   3.831
 6022TIP3   OH218071   5.254   5.528   5.138
 6022TIP3    H118072   5.236   5.434   5.146
 6022TIP3    H218073   5.191   5.569   5.197
 6023TIP3   OH218074   2.776   3.506   2.249
 6023TIP3    H118075   2.811   3.530   2.335
 6023TIP3    H218076   2.686   3.480   2.267
 6024TIP3   OH218077   6.036   3.095   1.628
 6024TIP3    H118078   5.992   3.010   1.632
 6024TIP3    H218079   5.973   3.153   1.586
 6025TIP3   OH218080   3.388   0.862   1.343
 6025TIP3    H118081   3.470   0.821   1.318
 6025TIP3    H218082   3.330   0.789   1.364
 6026TIP3   OH218083   4.223   4.203   1.034
 6026TIP3    H118084   4.229   4.297   1.053
 6026TIP3    H218085   4.297   4.165   1.083
 6027TIP3   OH218086   6.130   2.170   2.103
 6027TIP3    H118087   6.190   2.229   2.149
 6027TIP3    H218088   6.135   2.199   2.012
 6028TIP3   OH218089   5.755   4.521   2.047
 6028TIP3    H118090   5.714   4.590   2.099
 6028TIP3    H218091   5.693   4.448   2.051
 6029TIP3   OH218092   5.514   4.826   2.565
 6029TIP3    H118093   5.521   4.873   2.648
 6029TIP3    H218094   5.506   4.895   2.499
 6030TIP3   OH218095   3.852   5.882   1.360
 6030TIP3    H118096   3.819   5.922   1.440
 6030TIP3    H218097   3.905   5.951   1.319
 6031TIP3   OH218098   5.239   3.520   3.856
 6031TIP3    H118099   5.329   3.488   3.869
 6031TIP3    H218100   5.185   3.441   3.856
 6032TIP3   OH218101   5.785   1.869   0.315
 6032TIP3    H118102   5.698   1.911   0.315
 6032TIP3    H218103   5.782   1.808   0.389
 6033TIP3   OH218104   5.173   0.227   2.454
 6033TIP3    H118105   5.141   0.306   2.409
 6033TIP3    H218106   5.133   0.231   2.541
 6034TIP3   OH218107   4.751   4.447   2.570
 6034TIP3    H118108   4.715   4.441   2.481
 6034TIP3    H218109   4.815   4.518   2.565
 6035TIP3   OH218110   2.572   0.757   4.254
 6035TIP3    H118111   2.594   0.665   4.238
 6035TIP3    H218112   2.476   0.757   4.264
 6036TIP3   OH218113   4.900   4.904   4.646
 6036TIP3    H118114   4.979   4.856   4.669
 6036TIP3    H218115   4.912   4.990   4.686
 6037TIP3   OH218116   0.760   4.988   4.824
 6037TIP3    H118117   0.757   4.923   4.753
 6037TIP3    H218118   0.796   4.939   4.899
 6038TIP3   OH218119   1.159   0.779   0.980
 6038TIP3    H118120   1.229   0.824   0.932
 6038TIP3    H218121   1.196   0.694   1.003
 6039TIP3   OH218122   3.824   2.132   2.883
 6039TIP3    H118123   3.788   2.219   2.898
 6039TIP3    H218124   3.879   2.116   2.959
 6040TIP3   OH218125   5.510   1.923   0.153
 6040TIP3    H118126   5.461   1.877   0.085
 6040TIP3    H218127   5.597   1.936   0.115
 6041TIP3   OH218128   3.149   5.789   1.332
 6041TIP3    H118129   3.145   5.727   1.259
 6041TIP3    H218130   3.242   5.812   1.338
 6042TIP3   OH218131   4.204   2.933   2.820
 6042TIP3    H118132   4.130   2.967   2.870
 6042TIP3    H218133   4.209   2.841   2.846
 6043TIP3   OH218134   5.503   4.553   5.037
 6043TIP3    H118135   5.569   4.508   4.985
 6043TIP3    H218136   5.534   4.545   5.127
 6044TIP3   OH218137   5.861   2.833   1.313
 6044TIP3    H118138   5.769   2.850   1.334
 6044TIP3    H218139   5.895   2.919   1.287
 6045TIP3   OH218140   6.230   5.246   1.305
 6045TIP3    H118141   6.270   5.330   1.285
 6045TIP3    H218142   6.158   5.238   1.242
 6046TIP3   OH218143   5.555   5.279   1.050
 6046TIP3    H118144   5.468   5.317   1.065
 6046TIP3    H218145   5.577   5.302   0.960
 6047TIP3   OH218146   1.445   2.988   4.041
 6047TIP3    H118147   1.415   2.950   4.124
 6047TIP3    H218148   1.450   2.914   3.981
 6048TIP3   OH218149   0.884   2.326   4.530
 6048TIP3    H118150   0.955   2.326   4.466
 6048TIP3    H218151   0.833   2.248   4.510
 6049TIP3   OH218152   1.718   0.577   1.330
 6049TIP3    H118153   1.700   0.618   1.246
 6049TIP3    H218154   1.658   0.619   1.391
 6050TIP3   OH218155   1.608   2.154   2.601
 6050TIP3    H118156   1.626   2.063   2.581
 6050TIP3    H218157   1.595   2.155   2.696
 6051TIP3   OH218158   4.776   2.998   3.648
 6051TIP3    H118159   4.683   2.999   3.627
 6051TIP3    H218160   4.819   2.969   3.568
 6052TIP3   OH218161   0.382   3.380   2.921
 6052TIP3    H118162   0.328   3.301   2.925
 6052TIP3    H218163   0.470   3.348   2.904
 6053TIP3   OH218164   1.995   5.471  -0.007
 6053TIP3    H118165   1.972   5.557   0.026
 6053TIP3    H218166   2.083   5.454   0.029
 6054TIP3   OH218167   0.912   4.251   5.175
 6054TIP3    H118168   0.958   4.282   5.252
 6054TIP3    H218169   0.869   4.169   5.203
 6055TIP3   OH218170   2.235   2.351   0.673
 6055TIP3    H118171   2.299   2.400   0.622
 6055TIP3    H218172   2.199   2.416   0.734
 6056TIP3   OH218173   1.214   4.663   3.460
 6056TIP3    H118174   1.135   4.647   3.511
 6056TIP3    H218175   1.269   4.718   3.516
 6057TIP3   OH218176   4.856   5.181   3.596
 6057TIP3    H118177   4.937   5.132   3.612
 6057TIP3    H218178   4.786   5.122   3.626
 6058TIP3   OH218179   2.164   4.131   0.965
 6058TIP3    H118180   2.243   4.146   0.912
 6058TIP3    H218181   2.103   4.090   0.905
 6059TIP3   OH218182   2.775   3.519   1.656
 6059TIP3    H118183   2.852   3.470   1.685
 6059TIP3    H218184   2.806   3.573   1.583
 6060TIP3   OH218185   5.130   0.263   0.138
 6060TIP3    H118186   5.093   0.210   0.068
 6060TIP3    H218187   5.055   0.308   0.177
 6061TIP3   OH218188   3.045   3.286   3.706
 6061TIP3    H118189   3.126   3.323   3.741
 6061TIP3    H218190   3.075   3.231   3.633
 6062TIP3   OH218191   4.139   1.679   3.251
 6062TIP3    H118192   4.048   1.683   3.224
 6062TIP3    H218193   4.171   1.595   3.219
 6063TIP3   OH218194   0.753   4.945   1.862
 6063TIP3    H118195   0.745   4.858   1.901
 6063TIP3    H218196   0.847   4.959   1.853
 6064TIP3   OH218197   5.038   3.537   3.112
 6064TIP3    H118198   5.015   3.461   3.165
 6064TIP3    H218199   5.127   3.519   3.083
 6065TIP3   OH218200   5.674   1.162   1.470
 6065TIP3    H118201   5.748   1.149   1.529
 6065TIP3    H218202   5.614   1.089   1.491
 6066TIP3   OH218203   3.181   1.562   1.791
 6066TIP3    H118204   3.258   1.522   1.832
 6066TIP3    H218205   3.117   1.491   1.786
 6067TIP3   OH218206   0.444   4.485   2.039
 6067TIP3    H118207   0.481   4.400   2.064
 6067TIP3    H218208   0.350   4.477   2.059
 6068TIP3   OH218209   6.319   5.497   0.355
 6068TIP3    H118210   6.352   5.413   0.387
 6068TIP3    H218211   6.320   5.488   0.260
 6069TIP3   OH218212   3.506   2.637   4.191
 6069TIP3    H118213   3.563   2.562   4.203
 6069TIP3    H218214   3.428   2.617   4.243
 6070TIP3   OH218215   6.242   2.890   1.836
 6070TIP3    H118216   6.320   2.839   1.861
 6070TIP3    H218217   6.277   2.971   1.800
 6071TIP3   OH218218   3.868   3.189   2.557
 6071TIP3    H118219   3.852   3.283   2.555
 6071TIP3    H218220   3.846   3.163   2.647
 6072TIP3   OH218221   5.037   2.224   1.458
 6072TIP3    H118222   5.107   2.232   1.523
 6072TIP3    H218223   5.081   2.231   1.374
 6073TIP3   OH218224   0.096   3.750   2.781
 6073TIP3    H118225   0.079   3.816   2.848
 6073TIP3    H218226   0.042   3.675   2.806
 6074TIP3   OH218227   1.962   3.435   1.987
 6074TIP3    H118228   1.914   3.513   1.958
 6074TIP3    H218229   2.025   3.418   1.918
 6075TIP3   OH218230   2.701   0.964   1.154
 6075TIP3    H118231   2.745   0.896   1.103
 6075TIP3    H218232   2.610   0.934   1.160
 6076TIP3   OH218233   3.613   5.625   0.793
 6076TIP3    H118234   3.574   5.600   0.877
 6076TIP3    H218235   3.557   5.695   0.761
 6077TIP3   OH218236   5.306   5.966   0.269
 6077TIP3    H118237   5.338   6.051   0.237
 6077TIP3    H218238   5.237   5.988   0.331
 6078TIP3   OH218239   5.915   1.652   4.333
 6078TIP3    H118240   5.969   1.641   4.411
 6078TIP3    H218241   5.958   1.598   4.267
 6079TIP3   OH218242   4.870   1.545   3.509
 6079TIP3    H118243   4.856   1.518   3.418
 6079TIP3    H218244   4.836   1.634   3.514
 6080TIP3   OH218245   2.373   1.563   0.846
 6080TIP3    H118246   2.363   1.579   0.940
 6080TIP3    H218247   2.347   1.472   0.835
 6081TIP3   OH218248   4.354   3.329   3.173
 6081TIP3    H118249   4.280   3.320   3.112
 6081TIP3    H218250   4.424   3.366   3.121
 6082TIP3   OH218251   1.934   1.183   3.174
 6082TIP3    H118252   1.975   1.252   3.123
 6082TIP3    H218253   1.842   1.186   3.149
 6083TIP3   OH218254   1.525   3.057   4.562
 6083TIP3    H118255   1.439   3.045   4.603
 6083TIP3    H218256   1.585   3.011   4.621
 6084TIP3   OH218257   1.046   5.714   0.997
 6084TIP3    H118258   0.980   5.725   0.928
 6084TIP3    H218259   1.127   5.745   0.957
 6085TIP3   OH218260   1.381   2.604   0.620
 6085TIP3    H118261   1.468   2.617   0.658
 6085TIP3    H218262   1.380   2.512   0.594
 6086TIP3   OH218263   4.984   0.147   0.528
 6086TIP3    H118264   5.054   0.211   0.517
 6086TIP3    H218265   4.955   0.158   0.619
 6087TIP3   OH218266   5.976   0.323   0.357
 6087TIP3    H118267   6.067   0.336   0.332
 6087TIP3    H218268   5.980   0.295   0.449
 6088TIP3   OH218269   2.053   3.122   3.887
 6088TIP3    H118270   2.098   3.142   3.969
 6088TIP3    H218271   2.012   3.037   3.902
 6089TIP3   OH218272   6.265   1.269   4.494
 6089TIP3    H118273   6.284   1.220   4.574
 6089TIP3    H218274   6.170   1.285   4.498
 6090TIP3   OH218275   1.163   5.887   2.155
 6090TIP3    H118276   1.253   5.870   2.181
 6090TIP3    H218277   1.147   5.977   2.182
 6091TIP3   OH218278   0.453   3.536   0.293
 6091TIP3    H118279   0.495   3.467   0.345
 6091TIP3    H218280   0.431   3.604   0.356
 6092TIP3   OH218281   0.246   2.116   0.528
 6092TIP3    H118282   0.228   2.160   0.445
 6092TIP3    H218283   0.206   2.171   0.594
 6093TIP3   OH218284   1.555   1.278   0.839
 6093TIP3    H118285   1.460   1.294   0.840
 6093TIP3    H218286   1.575   1.260   0.747
 6094TIP3   OH218287   3.850   3.131   2.811
 6094TIP3    H118288   3.819   3.193   2.877
 6094TIP3    H218289   3.916   3.079   2.856
 6095TIP3   OH218290   1.404   2.060   5.080
 6095TIP3    H118291   1.470   2.082   5.015
 6095TIP3    H218292   1.323   2.053   5.030
 6096TIP3   OH218293   4.589   3.081   0.825
 6096TIP3    H118294   4.672   3.044   0.853
 6096TIP3    H218295   4.539   3.007   0.792
 6097TIP3   OH218296   4.839   4.065   2.525
 6097TIP3    H118297   4.914   4.030   2.573
 6097TIP3    H218298   4.811   3.993   2.468
 6098TIP3   OH218299   4.845   2.053   4.950
 6098TIP3    H118300   4.815   2.135   4.911
 6098TIP3    H218301   4.828   2.063   5.044
 6099TIP3   OH218302   0.458   2.912   5.098
 6099TIP3    H118303   0.535   2.925   5.153
 6099TIP3    H218304   0.435   2.819   5.110
 6100TIP3   OH218305   5.971   1.662   3.762
 6100TIP3    H118306   5.905   1.726   3.737
 6100TIP3    H218307   5.951   1.641   3.853
 6101TIP3   OH218308   1.951   1.763   3.219
 6101TIP3    H118309   2.026   1.729   3.170
 6101TIP3    H218310   1.946   1.707   3.296
 6102TIP3   OH218311   2.328   5.038   1.820
 6102TIP3    H118312   2.310   5.037   1.914
 6102TIP3    H218313   2.404   5.096   1.811
 6103TIP3   OH218314   3.004   3.700   3.231
 6103TIP3    H118315   2.938   3.736   3.291
 6103TIP3    H218316   3.075   3.671   3.288
 6104TIP3   OH218317   4.447   3.292   4.353
 6104TIP3    H118318   4.421   3.323   4.440
 6104TIP3    H218319   4.365   3.286   4.305
 6105TIP3   OH218320   2.846   5.294   3.827
 6105TIP3    H118321   2.776   5.348   3.791
 6105TIP3    H218322   2.903   5.356   3.873
 6106TIP3   OH218323   6.052   3.313   2.958
 6106TIP3    H118324   6.050   3.242   3.021
 6106TIP3    H218325   5.960   3.336   2.944
 6107TIP3   OH218326   5.942   3.539   2.192
 6107TIP3    H118327   6.029   3.562   2.160
 6107TIP3    H218328   5.922   3.455   2.151
 6108TIP3   OH218329   3.609   2.499   5.013
 6108TIP3    H118330   3.680   2.549   5.055
 6108TIP3    H218331   3.531   2.551   5.028
 6109TIP3   OH218332   6.364   3.765   5.041
 6109TIP3    H118333   6.414   3.776   4.960
 6109TIP3    H218334   6.284   3.720   5.014
 6110TIP3   OH218335   6.053   1.233   0.481
 6110TIP3    H118336   6.145   1.256   0.476
 6110TIP3    H218337   6.035   1.223   0.574
 6111TIP3   OH218338   2.240   3.880   0.194
 6111TIP3    H118339   2.158   3.853   0.237
 6111TIP3    H218340   2.279   3.798   0.164
 6112TIP3   OH218341   6.142   3.722   1.181
 6112TIP3    H118342   6.219   3.670   1.204
 6112TIP3    H218343   6.133   3.711   1.087
 6113TIP3   OH218344   5.775   4.889   3.209
 6113TIP3    H118345   5.833   4.882   3.133
 6113TIP3    H218346   5.834   4.882   3.285
 6114TIP3   OH218347   5.520   1.857   2.268
 6114TIP3    H118348   5.558   1.844   2.181
 6114TIP3    H218349   5.429   1.879   2.252
 6115TIP3   OH218350   0.595   5.368   0.908
 6115TIP3    H118351   0.582   5.274   0.903
 6115TIP3    H218352   0.615   5.395   0.818
 6116TIP3   OH218353   2.596   3.554   4.704
 6116TIP3    H118354   2.589   3.458   4.708
 6116TIP3    H218355   2.510   3.586   4.730
 6117TIP3   OH218356   3.253   1.662   3.650
 6117TIP3    H118357   3.179   1.709   3.689
 6117TIP3    H218358   3.252   1.576   3.691
 6118TIP3   OH218359   3.107   2.282   0.678
 6118TIP3    H118360   3.040   2.229   0.635
 6118TIP3    H218361   3.133   2.346   0.612
 6119TIP3   OH218362   4.728   1.993   4.625
 6119TIP3    H118363   4.759   2.083   4.638
 6119TIP3    H218364   4.647   1.988   4.677
 6120TIP3   OH218365   4.325   4.265   4.948
 6120TIP3    H118366   4.273   4.274   5.028
 6120TIP3    H218367   4.334   4.170   4.935
 6121TIP3   OH218368   3.753   1.790   2.267
 6121TIP3    H118369   3.818   1.759   2.330
 6121TIP3    H218370   3.675   1.737   2.285
 6122TIP3   OH218371   3.791   2.517   0.272
 6122TIP3    H118372   3.743   2.438   0.250
 6122TIP3    H218373   3.729   2.588   0.255
 6123TIP3   OH218374   1.348   1.589   3.782
 6123TIP3    H118375   1.426   1.555   3.827
 6123TIP3    H218376   1.383   1.636   3.707
 6124TIP3   OH218377   3.044   5.480   0.455
 6124TIP3    H118378   2.963   5.436   0.427
 6124TIP3    H218379   3.108   5.409   0.464
 6125TIP3   OH218380   1.772   4.221   1.434
 6125TIP3    H118381   1.691   4.170   1.438
 6125TIP3    H218382   1.775   4.268   1.517
 6126TIP3   OH218383   2.108   0.340   4.614
 6126TIP3    H118384   2.146   0.274   4.557
 6126TIP3    H218385   2.082   0.293   4.693
 6127TIP3   OH218386   2.755   5.899   0.820
 6127TIP3    H118387   2.727   5.890   0.911
 6127TIP3    H218388   2.752   5.994   0.804
 6128TIP3   OH218389   1.206   1.179   4.589
 6128TIP3    H118390   1.272   1.239   4.623
 6128TIP3    H218391   1.126   1.232   4.583
 6129TIP3   OH218392   3.825   0.101   0.421
 6129TIP3    H118393   3.804   0.188   0.387
 6129TIP3    H218394   3.812   0.108   0.515
 6130TIP3   OH218395   3.918   2.297   0.789
 6130TIP3    H118396   3.919   2.222   0.849
 6130TIP3    H218397   4.008   2.303   0.757
 6131TIP3   OH218398   5.400   1.610   3.636
 6131TIP3    H118399   5.475   1.591   3.693
 6131TIP3    H218400   5.360   1.688   3.674
 6132TIP3   OH218401   0.725   0.066   3.127
 6132TIP3    H118402   0.773   0.149   3.137
 6132TIP3    H218403   0.789   0.004   3.094
 6133TIP3   OH218404   1.242   1.128   2.511
 6133TIP3    H118405   1.202   1.071   2.577
 6133TIP3    H218406   1.204   1.214   2.528
 6134TIP3   OH218407   4.032   1.652   4.366
 6134TIP3    H118408   4.098   1.720   4.347
 6134TIP3    H218409   3.991   1.635   4.281
 6135TIP3   OH218410   6.083   2.799   3.614
 6135TIP3    H118411   6.078   2.704   3.606
 6135TIP3    H218412   6.166   2.822   3.570
 6136TIP3   OH218413   4.347   2.501   4.204
 6136TIP3    H118414   4.375   2.523   4.293
 6136TIP3    H218415   4.429   2.489   4.156
 6137TIP3   OH218416   6.192   2.120   3.894
 6137TIP3    H118417   6.262   2.063   3.924
 6137TIP3    H218418   6.212   2.205   3.932
 6138TIP3   OH218419   5.806   1.131   1.226
 6138TIP3    H118420   5.885   1.183   1.211
 6138TIP3    H218421   5.797   1.128   1.322
 6139TIP3   OH218422   5.068   5.711   2.461
 6139TIP3    H118423   5.052   5.773   2.390
 6139TIP3    H218424   5.074   5.625   2.418
 6140TIP3   OH218425   4.802   1.810   3.463
 6140TIP3    H118426   4.824   1.860   3.541
 6140TIP3    H218427   4.794   1.875   3.394
 6141TIP3   OH218428   5.227   0.115   5.070
 6141TIP3    H118429   5.194   0.159   4.992
 6141TIP3    H218430   5.269   0.036   5.037
 6142TIP3   OH218431   1.322   4.469   2.192
 6142TIP3    H118432   1.270   4.460   2.271
 6142TIP3    H218433   1.299   4.393   2.139
 6143TIP3   OH218434   5.070   0.632   0.547
 6143TIP3    H118435   5.080   0.675   0.462
 6143TIP3    H218436   4.977   0.639   0.567
 6144TIP3   OH218437   4.454   3.796   2.863
 6144TIP3    H118438   4.482   3.772   2.952
 6144TIP3    H218439   4.509   3.871   2.840
 6145TIP3   OH218440   2.819   1.983   4.146
 6145TIP3    H118441   2.840   1.988   4.053
 6145TIP3    H218442   2.892   1.937   4.186
 6146TIP3   OH218443   6.021   3.677   4.079
 6146TIP3    H118444   5.953   3.725   4.126
 6146TIP3    H218445   6.081   3.647   4.147
 6147TIP3   OH218446   4.700   2.897   2.478
 6147TIP3    H118447   4.675   2.805   2.468
 6147TIP3    H218448   4.628   2.946   2.438
 6148TIP3   OH218449   3.617   4.877   1.990
 6148TIP3    H118450   3.620   4.877   2.086
 6148TIP3    H218451   3.699   4.920   1.964
 6149TIP3   OH218452   0.987   5.389   4.470
 6149TIP3    H118453   0.977   5.331   4.395
 6149TIP3    H218454   0.937   5.467   4.446
 6150TIP3   OH218455   0.471   5.894   1.222
 6150TIP3    H118456   0.432   5.976   1.190
 6150TIP3    H218457   0.444   5.828   1.158
 6151TIP3   OH218458   2.688   3.594   0.383
 6151TIP3    H118459   2.783   3.588   0.388
 6151TIP3    H218460   2.671   3.683   0.353
 6152TIP3   OH218461   5.548   5.017   1.124
 6152TIP3    H118462   5.464   4.996   1.084
 6152TIP3    H218463   5.560   5.111   1.109
 6153TIP3   OH218464   3.141   1.168   1.215
 6153TIP3    H118465   3.226   1.208   1.235
 6153TIP3    H218466   3.078   1.218   1.268
 6154TIP3   OH218467   1.778   1.651  -0.016
 6154TIP3    H118468   1.720   1.723   0.009
 6154TIP3    H218469   1.759   1.582   0.047
 6155TIP3   OH218470   3.214   3.067   2.911
 6155TIP3    H118471   3.135   3.027   2.948
 6155TIP3    H218472   3.283   3.003   2.926
 6156TIP3   OH218473   1.688   0.272   1.597
 6156TIP3    H118474   1.608   0.221   1.587
 6156TIP3    H218475   1.753   0.225   1.545
 6157TIP3   OH218476   4.859   2.923   1.877
 6157TIP3    H118477   4.920   2.878   1.935
 6157TIP3    H218478   4.847   3.009   1.918
 6158TIP3   OH218479   0.868   0.065   0.449
 6158TIP3    H118480   0.911   0.109   0.522
 6158TIP3    H218481   0.779   0.101   0.449
 6159TIP3   OH218482   1.086   4.400   0.822
 6159TIP3    H118483   1.029   4.382   0.897
 6159TIP3    H218484   1.141   4.473   0.851
 6160TIP3   OH218485   2.019   2.211   0.071
 6160TIP3    H118486   2.011   2.142   0.137
 6160TIP3    H218487   1.948   2.272   0.091
 6161TIP3   OH218488   3.300   2.274   3.227
 6161TIP3    H118489   3.344   2.274   3.312
 6161TIP3    H218490   3.289   2.366   3.205
 6162TIP3   OH218491   5.379   1.128   1.138
 6162TIP3    H118492   5.359   1.065   1.069
 6162TIP3    H218493   5.454   1.178   1.104
 6163TIP3   OH218494   4.997   1.624   2.701
 6163TIP3    H118495   4.989   1.712   2.663
 6163TIP3    H218496   4.942   1.627   2.779
 6164TIP3   OH218497   4.180   0.904   3.803
 6164TIP3    H118498   4.245   0.961   3.761
 6164TIP3    H218499   4.102   0.913   3.749
 6165TIP3   OH218500   3.978   1.522   1.980
 6165TIP3    H118501   3.990   1.487   1.892
 6165TIP3    H218502   4.050   1.584   1.992
 6166TIP3   OH218503   5.867   1.139   4.862
 6166TIP3    H118504   5.867   1.234   4.849
 6166TIP3    H218505   5.863   1.103   4.773
 6167TIP3   OH218506   0.335   3.090   0.228
 6167TIP3    H118507   0.378   3.068   0.310
 6167TIP3    H218508   0.259   3.031   0.224
 6168TIP3   OH218509   5.662   0.889   4.051
 6168TIP3    H118510   5.601   0.888   3.977
 6168TIP3    H218511   5.743   0.923   4.015
 6169TIP3   OH218512   4.687   4.593   0.606
 6169TIP3    H118513   4.680   4.534   0.681
 6169TIP3    H218514   4.598   4.626   0.593
 6170TIP3   OH218515   3.759   3.889   3.969
 6170TIP3    H118516   3.726   3.979   3.967
 6170TIP3    H218517   3.711   3.847   4.041
 6171TIP3   OH218518   2.158   1.701   2.804
 6171TIP3    H118519   2.120   1.789   2.815
 6171TIP3    H218520   2.251   1.717   2.791
 6172TIP3   OH218521   4.944   2.865   0.879
 6172TIP3    H118522   4.968   2.827   0.963
 6172TIP3    H218523   4.914   2.954   0.900
 6173TIP3   OH218524   2.878   0.242   2.927
 6173TIP3    H118525   2.788   0.273   2.930
 6173TIP3    H218526   2.918   0.277   3.007
 6174TIP3   OH218527  -0.001   0.224   3.995
 6174TIP3    H118528  -0.075   0.260   4.044
 6174TIP3    H218529  -0.010   0.261   3.907
 6175TIP3   OH218530   1.834   0.056   2.195
 6175TIP3    H118531   1.859   0.066   2.103
 6175TIP3    H218532   1.750   0.010   2.192
 6176TIP3   OH218533   4.847   0.129   0.140
 6176TIP3    H118534   4.896   0.085   0.072
 6176TIP3    H218535   4.858   0.073   0.217
 6177TIP3   OH218536   5.708   1.854   0.715
 6177TIP3    H118537   5.722   1.781   0.653
 6177TIP3    H218538   5.686   1.811   0.797
 6178TIP3   OH218539   6.223   0.729   3.203
 6178TIP3    H118540   6.306   0.694   3.236
 6178TIP3    H218541   6.173   0.750   3.281
 6179TIP3   OH218542   3.277   2.564   3.209
 6179TIP3    H118543   3.287   2.660   3.212
 6179TIP3    H218544   3.232   2.548   3.126
 6180TIP3   OH218545   0.927   1.974   2.858
 6180TIP3    H118546   0.929   1.984   2.953
 6180TIP3    H218547   1.005   1.921   2.838
 6181TIP3   OH218548   1.398   2.939   3.657
 6181TIP3    H118549   1.449   3.017   3.681
 6181TIP3    H218550   1.381   2.895   3.741
 6182TIP3   OH218551   0.448   1.721   0.228
 6182TIP3    H118552   0.508   1.655   0.193
 6182TIP3    H218553   0.505   1.793   0.256
 6183TIP3   OH218554   5.112   2.470   2.343
 6183TIP3    H118555   5.068   2.389   2.318
 6183TIP3    H218556   5.164   2.447   2.420
 6184TIP3   OH218557   2.638   5.034   3.148
 6184TIP3    H118558   2.577   4.961   3.140
 6184TIP3    H218559   2.724   4.995   3.131
 6185TIP3   OH218560   5.136   3.859   4.334
 6185TIP3    H118561   5.200   3.924   4.364
 6185TIP3    H218562   5.093   3.900   4.259
 6186TIP3   OH218563   4.562   4.066   4.346
 6186TIP3    H118564   4.657   4.079   4.347
 6186TIP3    H218565   4.544   4.022   4.429
 6187TIP3   OH218566   3.637   3.470   4.581
 6187TIP3    H118567   3.640   3.516   4.664
 6187TIP3    H218568   3.567   3.512   4.532
 6188TIP3   OH218569   5.097   0.576   1.248
 6188TIP3    H118570   5.060   0.495   1.213
 6188TIP3    H218571   5.138   0.618   1.172
 6189TIP3   OH218572   0.096   3.089   0.857
 6189TIP3    H118573   0.028   3.153   0.876
 6189TIP3    H218574   0.085   3.068   0.764
 6190TIP3   OH218575   5.518   2.806   2.665
 6190TIP3    H118576   5.465   2.844   2.735
 6190TIP3    H218577   5.604   2.846   2.675
 6191TIP3   OH218578   3.854   1.977   1.820
 6191TIP3    H118579   3.803   2.056   1.801
 6191TIP3    H218580   3.854   1.971   1.916
 6192TIP3   OH218581   3.100   2.903   2.564
 6192TIP3    H118582   3.147   2.937   2.488
 6192TIP3    H218583   3.009   2.930   2.550
 6193TIP3   OH218584   2.477   3.349   1.403
 6193TIP3    H118585   2.564   3.346   1.364
 6193TIP3    H218586   2.451   3.257   1.412
 6194TIP3   OH218587   3.997   4.026   1.096
 6194TIP3    H118588   3.931   4.064   1.039
 6194TIP3    H218589   4.064   4.094   1.105
 6195TIP3   OH218590  -0.028   2.537   0.284
 6195TIP3    H118591   0.057   2.541   0.241
 6195TIP3    H218592  -0.047   2.444   0.293
 6196TIP3   OH218593   0.329   4.679   3.427
 6196TIP3    H118594   0.319   4.764   3.384
 6196TIP3    H218595   0.368   4.623   3.361
 6197TIP3   OH218596   1.865   1.314   0.404
 6197TIP3    H118597   1.781   1.291   0.444
 6197TIP3    H218598   1.848   1.309   0.310
 6198TIP3   OH218599   2.701   1.235   1.163
 6198TIP3    H118600   2.608   1.245   1.183
 6198TIP3    H218601   2.712   1.141   1.147
 6199TIP3   OH218602   2.643   1.616   0.299
 6199TIP3    H118603   2.680   1.638   0.214
 6199TIP3    H218604   2.624   1.701   0.340
 6200TIP3   OH218605   4.525   3.768   4.267
 6200TIP3    H118606   4.549   3.860   4.253
 6200TIP3    H218607   4.485   3.741   4.184
 6201TIP3   OH218608   6.012   4.244   2.741
 6201TIP3    H118609   5.994   4.337   2.753
 6201TIP3    H218610   6.069   4.240   2.665
 6202TIP3   OH218611   6.053   1.222   1.756
 6202TIP3    H118612   5.976   1.184   1.715
 6202TIP3    H218613   6.124   1.161   1.737
 6203TIP3   OH218614   1.509   1.060   1.651
 6203TIP3    H118615   1.441   1.085   1.714
 6203TIP3    H218616   1.562   1.139   1.640
 6204TIP3   OH218617   4.458   3.197   0.073
 6204TIP3    H118618   4.430   3.141   0.145
 6204TIP3    H218619   4.437   3.286   0.102
 6205TIP3   OH218620   4.606   5.568   3.104
 6205TIP3    H118621   4.596   5.478   3.072
 6205TIP3    H218622   4.635   5.558   3.195
 6206TIP3   OH218623   2.941   4.572   3.613
 6206TIP3    H118624   2.972   4.642   3.669
 6206TIP3    H218625   2.989   4.494   3.643
 6207TIP3   OH218626   6.054   3.232   3.300
 6207TIP3    H118627   5.959   3.225   3.287
 6207TIP3    H218628   6.085   3.141   3.298
 6208TIP3   OH218629   3.312   4.222   4.687
 6208TIP3    H118630   3.243   4.246   4.749
 6208TIP3    H218631   3.362   4.153   4.730
 6209TIP3   OH218632   3.436   2.742   1.014
 6209TIP3    H118633   3.490   2.706   0.943
 6209TIP3    H218634   3.495   2.744   1.090
 6210TIP3   OH218635   5.767   1.013   1.825
 6210TIP3    H118636   5.765   0.956   1.902
 6210TIP3    H218637   5.676   1.041   1.813
 6211TIP3   OH218638   2.603   3.507   1.039
 6211TIP3    H118639   2.587   3.594   1.002
 6211TIP3    H218640   2.551   3.448   0.984
 6212TIP3   OH218641   2.714   0.595   3.846
 6212TIP3    H118642   2.701   0.664   3.780
 6212TIP3    H218643   2.691   0.636   3.929
 6213TIP3   OH218644   4.498   3.537   4.762
 6213TIP3    H118645   4.521   3.586   4.683
 6213TIP3    H218646   4.496   3.445   4.734
 6214TIP3   OH218647   3.816   0.896   4.595
 6214TIP3    H118648   3.830   0.835   4.522
 6214TIP3    H218649   3.843   0.847   4.673
 6215TIP3   OH218650   2.502   5.593   3.248
 6215TIP3    H118651   2.410   5.620   3.248
 6215TIP3    H218652   2.533   5.613   3.336
 6216TIP3   OH218653   4.230   2.863   0.394
 6216TIP3    H118654   4.249   2.801   0.465
 6216TIP3    H218655   4.246   2.813   0.314
 6217TIP3   OH218656   1.886   1.663   2.887
 6217TIP3    H118657   1.982   1.665   2.883
 6217TIP3    H218658   1.865   1.583   2.936
 6218TIP3   OH218659   0.290   0.583   4.767
 6218TIP3    H118660   0.231   0.529   4.714
 6218TIP3    H218661   0.362   0.523   4.791
 6219TIP3   OH218662   3.153   1.400   5.051
 6219TIP3    H118663   3.069   1.356   5.067
 6219TIP3    H218664   3.178   1.434   5.137
 6220TIP3   OH218665   1.594   3.212   4.118
 6220TIP3    H118666   1.672   3.175   4.160
 6220TIP3    H218667   1.552   3.137   4.076
 6221TIP3   OH218668   0.231   3.685   0.707
 6221TIP3    H118669   0.183   3.629   0.646
 6221TIP3    H218670   0.185   3.769   0.705
 6222TIP3   OH218671   1.790   0.067   4.905
 6222TIP3    H118672   1.770   0.018   4.985
 6222TIP3    H218673   1.814   0.000   4.841
 6223TIP3   OH218674   0.975   4.827   1.106
 6223TIP3    H118675   0.921   4.899   1.074
 6223TIP3    H218676   0.928   4.794   1.182
 6224TIP3   OH218677   2.413   5.487   0.791
 6224TIP3    H118678   2.485   5.448   0.841
 6224TIP3    H218679   2.456   5.548   0.731
 6225TIP3   OH218680   3.275   2.557   4.321
 6225TIP3    H118681   3.286   2.464   4.339
 6225TIP3    H218682   3.203   2.561   4.258
 6226TIP3   OH218683   4.541   2.924   3.119
 6226TIP3    H118684   4.567   2.895   3.032
 6226TIP3    H218685   4.584   2.863   3.179
 6227TIP3   OH218686   3.618   1.581   4.425
 6227TIP3    H118687   3.689   1.593   4.362
 6227TIP3    H218688   3.647   1.508   4.480
 6228TIP3   OH218689   5.532   0.705   3.542
 6228TIP3    H118690   5.557   0.796   3.527
 6228TIP3    H218691   5.450   0.710   3.591
 6229TIP3   OH218692   1.177   1.186   1.424
 6229TIP3    H118693   1.181   1.110   1.483
 6229TIP3    H218694   1.162   1.148   1.337
 6230TIP3   OH218695   0.073   3.902   1.862
 6230TIP3    H118696   0.142   3.945   1.812
 6230TIP3    H218697   0.118   3.834   1.912
 6231TIP3   OH218698   5.603   1.036   3.238
 6231TIP3    H118699   5.509   1.044   3.223
 6231TIP3    H218700   5.631   0.967   3.177
 6232TIP3   OH218701   0.297   1.861   1.350
 6232TIP3    H118702   0.383   1.890   1.319
 6232TIP3    H218703   0.236   1.894   1.284
 6233TIP3   OH218704   6.200   4.290   2.542
 6233TIP3    H118705   6.190   4.356   2.474
 6233TIP3    H218706   6.251   4.221   2.501
 6234TIP3   OH218707   1.752   0.985   4.457
 6234TIP3    H118708   1.723   1.057   4.513
 6234TIP3    H218709   1.735   0.906   4.507
 6235TIP3   OH218710   0.612   5.785   3.883
 6235TIP3    H118711   0.694   5.754   3.920
 6235TIP3    H218712   0.559   5.706   3.870
 6236TIP3   OH218713   3.129   5.264   1.642
 6236TIP3    H118714   3.081   5.182   1.636
 6236TIP3    H218715   3.119   5.292   1.734
 6237TIP3   OH218716   0.665   2.404   3.094
 6237TIP3    H118717   0.668   2.320   3.141
 6237TIP3    H218718   0.667   2.380   3.002
 6238TIP3   OH218719   1.067   4.069   2.777
 6238TIP3    H118720   1.069   3.980   2.740
 6238TIP3    H218721   1.084   4.056   2.870
 6239TIP3   OH218722   6.280   3.105   1.243
 6239TIP3    H118723   6.307   3.084   1.154
 6239TIP3    H218724   6.242   3.024   1.276
 6240TIP3   OH218725   2.803   3.859   1.083
 6240TIP3    H118726   2.836   3.805   1.012
 6240TIP3    H218727   2.780   3.796   1.152
 6241TIP3   OH218728   5.860   5.367   3.208
 6241TIP3    H118729   5.823   5.393   3.293
 6241TIP3    H218730   5.803   5.295   3.179
 6242TIP3   OH218731   1.663   5.559   0.385
 6242TIP3    H118732   1.676   5.534   0.294
 6242TIP3    H218733   1.681   5.653   0.387
 6243TIP3   OH218734   5.415   4.795   0.096
 6243TIP3    H118735   5.394   4.702   0.088
 6243TIP3    H218736   5.353   4.828   0.161
 6244TIP3   OH218737   3.856   5.003   2.294
 6244TIP3    H118738   3.802   5.075   2.263
 6244TIP3    H218739   3.944   5.023   2.261
 6245TIP3   OH218740   5.676   3.093   4.889
 6245TIP3    H118741   5.666   3.014   4.834
 6245TIP3    H218742   5.729   3.064   4.963
 6246TIP3   OH218743   2.447   0.811   0.542
 6246TIP3    H118744   2.409   0.744   0.599
 6246TIP3    H218745   2.429   0.779   0.453
 6247TIP3   OH218746   1.936   4.868   0.613
 6247TIP3    H118747   1.942   4.782   0.654
 6247TIP3    H218748   1.913   4.849   0.522
 6248TIP3   OH218749   0.333   3.364   3.515
 6248TIP3    H118750   0.363   3.391   3.428
 6248TIP3    H218751   0.253   3.314   3.499
 6249TIP3   OH218752   5.808   5.967   4.076
 6249TIP3    H118753   5.817   5.873   4.061
 6249TIP3    H218754   5.897   5.997   4.095
 6250TIP3   OH218755   1.432   5.182   0.835
 6250TIP3    H118756   1.483   5.158   0.758
 6250TIP3    H218757   1.475   5.138   0.908
 6251TIP3   OH218758   5.666   0.492   1.941
 6251TIP3    H118759   5.710   0.467   2.022
 6251TIP3    H218760   5.692   0.583   1.927
 6252TIP3   OH218761   1.072   0.154   1.819
 6252TIP3    H118762   1.100   0.230   1.869
 6252TIP3    H218763   0.989   0.180   1.779
 6253TIP3   OH218764   4.218   3.806   0.315
 6253TIP3    H118765   4.238   3.724   0.359
 6253TIP3    H218766   4.274   3.871   0.358
 6254TIP3   OH218767   3.595   3.589   4.240
 6254TIP3    H118768   3.645   3.670   4.245
 6254TIP3    H218769   3.646   3.525   4.289
 6255TIP3   OH218770   5.591   5.722   4.734
 6255TIP3    H118771   5.535   5.750   4.806
 6255TIP3    H218772   5.531   5.709   4.661
 6256TIP3   OH218773   0.571   1.394   2.002
 6256TIP3    H118774   0.665   1.381   2.014
 6256TIP3    H218775   0.533   1.377   2.088
 6257TIP3   OH218776   0.084   3.232   3.547
 6257TIP3    H118777   0.085   3.212   3.641
 6257TIP3    H218778   0.059   3.149   3.506
 6258TIP3   OH218779   5.427   0.599   0.240
 6258TIP3    H118780   5.338   0.566   0.240
 6258TIP3    H218781   5.421   0.687   0.205
 6259TIP3   OH218782   1.478   0.583   0.994
 6259TIP3    H118783   1.392   0.571   1.036
 6259TIP3    H218784   1.516   0.495   0.992
 6260TIP3   OH218785   5.155   4.075   2.265
 6260TIP3    H118786   5.121   4.039   2.183
 6260TIP3    H218787   5.092   4.143   2.290
 6261TIP3   OH218788   1.866   5.532   3.781
 6261TIP3    H118789   1.907   5.510   3.698
 6261TIP3    H218790   1.821   5.615   3.765
 6262TIP3   OH218791   5.367   5.577   0.892
 6262TIP3    H118792   5.405   5.627   0.965
 6262TIP3    H218793   5.291   5.534   0.929
 6263TIP3   OH218794   3.078   2.561   2.560
 6263TIP3    H118795   3.129   2.510   2.623
 6263TIP3    H218796   3.055   2.641   2.607
 6264TIP3   OH218797   3.707   4.206   2.989
 6264TIP3    H118798   3.719   4.122   3.033
 6264TIP3    H218799   3.777   4.211   2.925
 6265TIP3   OH218800   1.029   0.269   3.591
 6265TIP3    H118801   0.961   0.301   3.650
 6265TIP3    H218802   1.026   0.174   3.601
 6266TIP3   OH218803   3.008   2.335   0.284
 6266TIP3    H118804   2.930   2.320   0.337
 6266TIP3    H218805   2.988   2.415   0.236
 6267TIP3   OH218806   2.854   4.573   1.328
 6267TIP3    H118807   2.769   4.531   1.320
 6267TIP3    H218808   2.912   4.521   1.272
 6268TIP3   OH218809   2.391   4.885   4.966
 6268TIP3    H118810   2.434   4.801   4.984
 6268TIP3    H218811   2.315   4.862   4.913
 6269TIP3   OH218812   3.253   0.248   0.882
 6269TIP3    H118813   3.299   0.309   0.940
 6269TIP3    H218814   3.273   0.279   0.794
 6270TIP3   OH218815   5.094   1.169   5.225
 6270TIP3    H118816   5.043   1.155   5.145
 6270TIP3    H218817   5.136   1.085   5.242
 6271TIP3   OH218818   0.087   1.501   3.708
 6271TIP3    H118819   0.075   1.408   3.724
 6271TIP3    H218820   0.113   1.507   3.616
 6272TIP3   OH218821   2.620   2.317   3.706
 6272TIP3    H118822   2.623   2.347   3.615
 6272TIP3    H218823   2.568   2.237   3.703
 6273TIP3   OH218824   3.045   3.781   4.306
 6273TIP3    H118825   3.067   3.688   4.299
 6273TIP3    H218826   2.960   3.789   4.261
 6274TIP3   OH218827   2.673   1.853   4.385
 6274TIP3    H118828   2.707   1.908   4.313
 6274TIP3    H218829   2.609   1.797   4.343
 6275TIP3   OH218830   1.050   3.991   0.403
 6275TIP3    H118831   0.994   4.066   0.421
 6275TIP3    H218832   1.008   3.917   0.448
 6276TIP3   OH218833   1.834   0.040   4.170
 6276TIP3    H118834   1.866  -0.023   4.105
 6276TIP3    H218835   1.872   0.124   4.143
 6277TIP3   OH218836   5.088   1.393   2.588
 6277TIP3    H118837   5.074   1.481   2.624
 6277TIP3    H218838   5.087   1.405   2.493
 6278TIP3   OH218839   1.618   3.980   3.378
 6278TIP3    H118840   1.633   4.043   3.308
 6278TIP3    H218841   1.706   3.960   3.411
 6279TIP3   OH218842   0.725   0.121   0.012
 6279TIP3    H118843   0.807   0.073   0.001
 6279TIP3    H218844   0.658   0.062  -0.022
 6280TIP3   OH218845   1.205   5.450   1.308
 6280TIP3    H118846   1.196   5.450   1.403
 6280TIP3    H218847   1.298   5.467   1.293
 6281TIP3   OH218848   2.366   5.658   4.564
 6281TIP3    H118849   2.305   5.727   4.588
 6281TIP3    H218850   2.311   5.581   4.549
 6282TIP3   OH218851   4.963   5.139   4.166
 6282TIP3    H118852   4.903   5.208   4.195
 6282TIP3    H218853   5.038   5.146   4.225
 6283TIP3   OH218854   4.303   4.086   1.905
 6283TIP3    H118855   4.349   4.165   1.878
 6283TIP3    H218856   4.301   4.030   1.827
 6284TIP3   OH218857   3.822   4.402   0.503
 6284TIP3    H118858   3.731   4.390   0.529
 6284TIP3    H218859   3.864   4.441   0.580
 6285TIP3   OH218860   5.475   1.281   2.846
 6285TIP3    H118861   5.464   1.276   2.751
 6285TIP3    H218862   5.386   1.296   2.879
 6286TIP3   OH218863   1.396   0.375   2.297
 6286TIP3    H118864   1.389   0.463   2.333
 6286TIP3    H218865   1.316   0.331   2.323
 6287TIP3   OH218866   2.502   3.428   3.231
 6287TIP3    H118867   2.555   3.497   3.191
 6287TIP3    H218868   2.549   3.404   3.310
 6288TIP3   OH218869   2.830   3.866   3.376
 6288TIP3    H118870   2.855   3.953   3.408
 6288TIP3    H218871   2.780   3.883   3.296
 6289TIP3   OH218872   0.698   1.136   3.559
 6289TIP3    H118873   0.778   1.188   3.555
 6289TIP3    H218874   0.665   1.149   3.648
 6290TIP3   OH218875   2.226   5.708   3.337
 6290TIP3    H118876   2.146   5.732   3.385
 6290TIP3    H218877   2.275   5.790   3.331
 6291TIP3   OH218878   5.320   4.918   1.616
 6291TIP3    H118879   5.405   4.905   1.658
 6291TIP3    H218880   5.311   4.844   1.557
 6292TIP3   OH218881   3.124   3.180   1.037
 6292TIP3    H118882   3.043   3.223   1.009
 6292TIP3    H218883   3.135   3.207   1.128
 6293TIP3   OH218884   5.807   2.527   2.906
 6293TIP3    H118885   5.855   2.453   2.869
 6293TIP3    H218886   5.741   2.548   2.840
 6294TIP3   OH218887   4.929   4.230   3.961
 6294TIP3    H118888   4.949   4.162   3.897
 6294TIP3    H218889   5.015   4.262   3.989
 6295TIP3   OH218890   3.143   3.576   2.836
 6295TIP3    H118891   3.063   3.539   2.799
 6295TIP3    H218892   3.162   3.520   2.912
 6296TIP3   OH218893   1.578   3.528   0.865
 6296TIP3    H118894   1.489   3.509   0.894
 6296TIP3    H218895   1.627   3.449   0.885
 6297TIP3   OH218896   4.098   0.978   4.804
 6297TIP3    H118897   4.156   0.943   4.736
 6297TIP3    H218898   4.051   1.049   4.760
 6298TIP3   OH218899   2.566   2.426   3.048
 6298TIP3    H118900   2.522   2.480   3.114
 6298TIP3    H218901   2.635   2.482   3.013
 6299TIP3   OH218902   0.120   2.255   1.971
 6299TIP3    H118903   0.111   2.166   1.937
 6299TIP3    H218904   0.101   2.311   1.896
 6300TIP3   OH218905   2.719   2.815   1.047
 6300TIP3    H118906   2.726   2.908   1.068
 6300TIP3    H218907   2.779   2.802   0.972
 6301TIP3   OH218908   0.556   4.382   3.627
 6301TIP3    H118909   0.640   4.338   3.639
 6301TIP3    H218910   0.580   4.475   3.616
 6302TIP3   OH218911   2.165   4.639   0.555
 6302TIP3    H118912   2.118   4.594   0.485
 6302TIP3    H218913   2.154   4.581   0.631
 6303TIP3   OH218914   2.938   1.059   0.514
 6303TIP3    H118915   2.954   1.145   0.475
 6303TIP3    H218916   3.016   1.042   0.566
 6304TIP3   OH218917   3.452   5.728   4.756
 6304TIP3    H118918   3.527   5.785   4.772
 6304TIP3    H218919   3.411   5.764   4.678
 6305TIP3   OH218920   4.197   0.283   5.067
 6305TIP3    H118921   4.101   0.290   5.067
 6305TIP3    H218922   4.219   0.265   4.975
 6306TIP3   OH218923   1.143   1.848   3.845
 6306TIP3    H118924   1.134   1.753   3.849
 6306TIP3    H218925   1.226   1.865   3.890
 6307TIP3   OH218926   3.949   1.264  -0.027
 6307TIP3    H118927   3.991   1.208   0.039
 6307TIP3    H218928   3.978   1.352  -0.004
 6308TIP3   OH218929   3.097   5.177   0.467
 6308TIP3    H118930   3.106   5.107   0.402
 6308TIP3    H218931   3.175   5.231   0.456
 6309TIP3   OH218932   2.826   4.469   0.341
 6309TIP3    H118933   2.837   4.526   0.417
 6309TIP3    H218934   2.915   4.440   0.319
 6310TIP3   OH218935   5.739   3.405   4.964
 6310TIP3    H118936   5.819   3.452   4.988
 6310TIP3    H218937   5.668   3.457   5.003
 6311TIP3   OH218938   3.587   3.849   1.911
 6311TIP3    H118939   3.661   3.892   1.954
 6311TIP3    H218940   3.513   3.865   1.970
 6312TIP3   OH218941   2.577   4.194   1.070
 6312TIP3    H118942   2.536   4.162   1.150
 6312TIP3    H218943   2.504   4.213   1.012
 6313TIP3   OH218944   4.217   5.867   4.867
 6313TIP3    H118945   4.224   5.944   4.810
 6313TIP3    H218946   4.302   5.862   4.911
 6314TIP3   OH218947   5.240  -0.006   0.667
 6314TIP3    H118948   5.268   0.015   0.757
 6314TIP3    H218949   5.232   0.079   0.624
 6315TIP3   OH218950   1.837   2.516   4.423
 6315TIP3    H118951   1.862   2.435   4.377
 6315TIP3    H218952   1.778   2.486   4.492
 6316TIP3   OH218953   0.416   0.315   4.433
 6316TIP3    H118954   0.382   0.377   4.368
 6316TIP3    H218955   0.351   0.316   4.504
 6317TIP3   OH218956   6.318   3.542   2.939
 6317TIP3    H118957   6.279   3.455   2.944
 6317TIP3    H218958   6.252   3.600   2.977
 6318TIP3   OH218959   2.067   3.646   1.520
 6318TIP3    H118960   1.995   3.608   1.570
 6318TIP3    H218961   2.139   3.584   1.529
 6319TIP3   OH218962   6.042   0.474   4.702
 6319TIP3    H118963   5.956   0.476   4.745
 6319TIP3    H218964   6.055   0.562   4.669
 6320TIP3   OH218965   4.218   3.846   2.516
 6320TIP3    H118966   4.167   3.875   2.592
 6320TIP3    H218967   4.285   3.787   2.552
 6321TIP3   OH218968   3.145   5.881   3.752
 6321TIP3    H118969   3.177   5.803   3.706
 6321TIP3    H218970   3.224   5.926   3.781
 6322TIP3   OH218971   3.599   3.451   2.303
 6322TIP3    H118972   3.523   3.425   2.355
 6322TIP3    H218973   3.663   3.382   2.319
 6323TIP3   OH218974   2.082   0.176   1.176
 6323TIP3    H118975   1.992   0.206   1.166
 6323TIP3    H218976   2.074   0.086   1.208
 6324TIP3   OH218977   0.078   0.896   0.667
 6324TIP3    H118978   0.029   0.964   0.621
 6324TIP3    H218979   0.150   0.942   0.710
 6325TIP3   OH218980   0.944   1.728   0.646
 6325TIP3    H118981   0.908   1.763   0.727
 6325TIP3    H218982   0.914   1.789   0.578
 6326TIP3   OH218983   0.057   5.099   1.161
 6326TIP3    H118984   0.023   5.168   1.217
 6326TIP3    H218985  -0.018   5.071   1.108
 6327TIP3   OH218986   5.321   2.393   2.951
 6327TIP3    H118987   5.303   2.315   3.004
 6327TIP3    H218988   5.341   2.359   2.864
 6328TIP3   OH218989   2.451   0.754   3.098
 6328TIP3    H118990   2.405   0.824   3.145
 6328TIP3    H218991   2.462   0.685   3.163
 6329TIP3   OH218992   5.631   0.978   3.497
 6329TIP3    H118993   5.620   1.034   3.420
 6329TIP3    H218994   5.702   0.919   3.474
 6330TIP3   OH218995   1.013   4.052   3.342
 6330TIP3    H118996   1.102   4.019   3.329
 6330TIP3    H218997   1.007   4.127   3.283
 6331TIP3   OH218998   1.731   2.929   3.272
 6331TIP3    H118999   1.766   2.874   3.202
 6331TIP3    H219000   1.641   2.948   3.245
 6332TIP3   OH219001   0.908   2.694   1.883
 6332TIP3    H119002   0.848   2.752   1.837
 6332TIP3    H219003   0.909   2.614   1.830
 6333TIP3   OH219004   2.941  -0.037   2.447
 6333TIP3    H119005   2.946  -0.013   2.540
 6333TIP3    H219006   3.012   0.013   2.406
 6334TIP3   OH219007   5.849   2.672   2.483
 6334TIP3    H119008   5.769   2.664   2.431
 6334TIP3    H219009   5.869   2.766   2.483
 6335TIP3   OH219010   0.418   1.970   2.120
 6335TIP3    H119011   0.325   1.993   2.127
 6335TIP3    H219012   0.417   1.877   2.097
 6336TIP3   OH219013   4.226   2.209   3.785
 6336TIP3    H119014   4.222   2.114   3.797
 6336TIP3    H219015   4.313   2.234   3.816
 6337TIP3   OH219016   0.867   1.919   3.654
 6337TIP3    H119017   0.932   1.873   3.707
 6337TIP3    H219018   0.812   1.965   3.717
 6338TIP3   OH219019   1.429   3.729   2.610
 6338TIP3    H119020   1.490   3.656   2.597
 6338TIP3    H219021   1.342   3.688   2.610
 6339TIP3   OH219022   1.012   0.596   4.682
 6339TIP3    H119023   0.982   0.650   4.608
 6339TIP3    H219024   1.094   0.557   4.651
 6340TIP3   OH219025   2.297   5.699   3.728
 6340TIP3    H119026   2.297   5.791   3.753
 6340TIP3    H219027   2.380   5.665   3.762
 6341TIP3   OH219028   3.647   2.908   3.122
 6341TIP3    H119029   3.596   2.878   3.046
 6341TIP3    H219030   3.666   3.000   3.103
 6342TIP3   OH219031   2.356   3.181   4.332
 6342TIP3    H119032   2.341   3.093   4.298
 6342TIP3    H219033   2.282   3.198   4.390
 6343TIP3   OH219034   2.402   2.914   3.919
 6343TIP3    H119035   2.340   2.887   3.987
 6343TIP3    H219036   2.346   2.938   3.845
 6344TIP3   OH219037   0.266   1.269   5.138
 6344TIP3    H119038   0.335   1.294   5.199
 6344TIP3    H219039   0.284   1.177   5.117
 6345TIP3   OH219040   3.489   0.463   0.991
 6345TIP3    H119041   3.499   0.426   0.903
 6345TIP3    H219042   3.531   0.549   0.986
 6346TIP3   OH219043   1.654   4.577   4.198
 6346TIP3    H119044   1.649   4.544   4.109
 6346TIP3    H219045   1.621   4.666   4.193
 6347TIP3   OH219046   1.470   5.319   5.039
 6347TIP3    H119047   1.467   5.375   5.116
 6347TIP3    H219048   1.381   5.319   5.004
 6348TIP3   OH219049   1.574   1.020   0.464
 6348TIP3    H119050   1.506   0.957   0.439
 6348TIP3    H219051   1.630   0.971   0.524
 6349TIP3   OH219052   4.258   1.433   2.613
 6349TIP3    H119053   4.300   1.396   2.691
 6349TIP3    H219054   4.195   1.365   2.586
 6350TIP3   OH219055   0.914   4.381   2.082
 6350TIP3    H119056   0.982   4.448   2.069
 6350TIP3    H219057   0.941   4.308   2.026
 6351TIP3   OH219058   4.759   1.969   2.753
 6351TIP3    H119059   4.764   2.059   2.721
 6351TIP3    H219060   4.846   1.933   2.735
 6352TIP3   OH219061   5.403   0.930   0.597
 6352TIP3    H119062   5.441   0.972   0.674
 6352TIP3    H219063   5.374   0.844   0.628
 6353TIP3   OH219064   5.381   2.334   4.515
 6353TIP3    H119065   5.293   2.330   4.552
 6353TIP3    H219066   5.413   2.243   4.518
 6354TIP3   OH219067   1.757   4.761   0.974
 6354TIP3    H119068   1.757   4.821   0.899
 6354TIP3    H219069   1.665   4.752   0.997
 6355TIP3   OH219070   2.074   0.037   0.470
 6355TIP3    H119071   2.069   0.091   0.392
 6355TIP3    H219072   2.044  -0.050   0.441
 6356TIP3   OH219073   2.302   3.521   1.595
 6356TIP3    H119074   2.347   3.445   1.559
 6356TIP3    H219075   2.342   3.534   1.681
 6357TIP3   OH219076   3.720   3.256   5.131
 6357TIP3    H119077   3.689   3.179   5.084
 6357TIP3    H219078   3.640   3.297   5.165
 6358TIP3   OH219079   2.976   0.675   4.652
 6358TIP3    H119080   3.057   0.714   4.685
 6358TIP3    H219081   2.931   0.643   4.730
 6359TIP3   OH219082   3.277   1.899   4.234
 6359TIP3    H119083   3.347   1.921   4.173
 6359TIP3    H219084   3.316   1.834   4.293
 6360TIP3   OH219085   1.857   4.021   1.676
 6360TIP3    H119086   1.926   3.975   1.628
 6360TIP3    H219087   1.894   4.108   1.692
 6361TIP3   OH219088   5.686   2.362   1.307
 6361TIP3    H119089   5.656   2.450   1.283
 6361TIP3    H219090   5.621   2.304   1.267
 6362TIP3   OH219091   3.200   5.084   3.714
 6362TIP3    H119092   3.123   5.109   3.663
 6362TIP3    H219093   3.253   5.034   3.652
 6363TIP3   OH219094   4.668   3.108   2.647
 6363TIP3    H119095   4.684   3.031   2.593
 6363TIP3    H219096   4.573   3.118   2.649
 6364TIP3   OH219097   5.928   5.038   1.608
 6364TIP3    H119098   5.931   5.128   1.642
 6364TIP3    H219099   5.988   4.989   1.664
 6365TIP3   OH219100   4.856   0.797   3.383
 6365TIP3    H119101   4.938   0.793   3.433
 6365TIP3    H219102   4.874   0.748   3.303
 6366TIP3   OH219103   0.394   3.338   0.103
 6366TIP3    H119104   0.396   3.391   0.183
 6366TIP3    H219105   0.366   3.252   0.132
 6367TIP3   OH219106   2.347   0.595   1.931
 6367TIP3    H119107   2.442   0.598   1.944
 6367TIP3    H219108   2.320   0.514   1.974
 6368TIP3   OH219109   2.816   5.102   3.646
 6368TIP3    H119110   2.820   5.188   3.689
 6368TIP3    H219111   2.819   5.039   3.718
 6369TIP3   OH219112   2.936   4.165   3.225
 6369TIP3    H119113   2.841   4.153   3.220
 6369TIP3    H219114   2.966   4.155   3.135
 6370TIP3   OH219115   3.042   3.778   0.625
 6370TIP3    H119116   2.949   3.801   0.613
 6370TIP3    H219117   3.089   3.853   0.589
 6371TIP3   OH219118   2.511   1.990   3.964
 6371TIP3    H119119   2.444   2.035   4.015
 6371TIP3    H219120   2.588   2.047   3.970
 6372TIP3   OH219121   5.287   0.802   2.257
 6372TIP3    H119122   5.226   0.782   2.329
 6372TIP3    H219123   5.234   0.851   2.194
 6373TIP3   OH219124   5.604   2.497   0.923
 6373TIP3    H119125   5.569   2.559   0.987
 6373TIP3    H219126   5.530   2.477   0.866
 6374TIP3   OH219127   0.980   0.968   3.124
 6374TIP3    H119128   0.987   0.938   3.034
 6374TIP3    H219129   0.913   1.036   3.122
 6375TIP3   OH219130   0.520   4.802   2.120
 6375TIP3    H119131   0.594   4.761   2.076
 6375TIP3    H219132   0.460   4.730   2.138
 6376TIP3   OH219133   1.624   1.238   3.584
 6376TIP3    H119134   1.544   1.276   3.621
 6376TIP3    H219135   1.695   1.281   3.631
 6377TIP3   OH219136   1.627   3.836   2.073
 6377TIP3    H119137   1.615   3.809   2.164
 6377TIP3    H219138   1.675   3.919   2.079
 6378TIP3   OH219139   0.151   0.375   4.250
 6378TIP3    H119140   0.136   0.408   4.339
 6378TIP3    H219141   0.070   0.398   4.203
 6379TIP3   OH219142   4.579   3.399   3.029
 6379TIP3    H119143   4.533   3.390   2.946
 6379TIP3    H219144   4.615   3.488   3.026
 6380TIP3   OH219145   2.030   1.455   3.721
 6380TIP3    H119146   2.075   1.447   3.805
 6380TIP3    H219147   2.098   1.440   3.656
 6381TIP3   OH219148   5.187   2.063   5.112
 6381TIP3    H119149   5.281   2.078   5.102
 6381TIP3    H219150   5.146   2.138   5.069
 6382TIP3   OH219151   4.826   3.369   4.797
 6382TIP3    H119152   4.789   3.287   4.765
 6382TIP3    H219153   4.809   3.432   4.726
 6383TIP3   OH219154   4.364   2.989   4.734
 6383TIP3    H119155   4.426   2.946   4.793
 6383TIP3    H219156   4.281   2.944   4.749
 6384TIP3   OH219157   2.219   1.263   3.940
 6384TIP3    H119158   2.295   1.206   3.945
 6384TIP3    H219159   2.253   1.346   3.907
 6385TIP3   OH219160   4.526   5.386   4.228
 6385TIP3    H119161   4.445   5.371   4.277
 6385TIP3    H219162   4.517   5.331   4.150
 6386TIP3   OH219163   0.716   2.706   4.286
 6386TIP3    H119164   0.770   2.674   4.359
 6386TIP3    H219165   0.686   2.626   4.242
 6387TIP3   OH219166   3.967   1.805   1.641
 6387TIP3    H119167   3.922   1.820   1.559
 6387TIP3    H219168   3.949   1.884   1.693
 6388TIP3   OH219169   0.975   2.683   0.638
 6388TIP3    H119170   1.026   2.645   0.567
 6388TIP3    H219171   1.041   2.717   0.699
 6389TIP3   OH219172   3.452   3.277   3.654
 6389TIP3    H119173   3.534   3.293   3.700
 6389TIP3    H219174   3.394   3.348   3.684
 6390TIP3   OH219175   2.215   2.872   1.498
 6390TIP3    H119176   2.231   2.886   1.592
 6390TIP3    H219177   2.131   2.914   1.482
 6391TIP3   OH219178   4.291   2.023   0.457
 6391TIP3    H119179   4.357   2.058   0.397
 6391TIP3    H219180   4.236   1.967   0.402
 6392TIP3   OH219181   1.938   5.247   1.619
 6392TIP3    H119182   1.896   5.191   1.554
 6392TIP3    H219183   1.892   5.331   1.612
 6393TIP3   OH219184   5.105   2.611   2.696
 6393TIP3    H119185   5.079   2.703   2.695
 6393TIP3    H219186   5.028   2.565   2.729
 6394TIP3   OH219187   6.242   2.509   0.040
 6394TIP3    H119188   6.293   2.518   0.121
 6394TIP3    H219189   6.307   2.488  -0.027
 6395TIP3   OH219190   2.439   4.740   1.381
 6395TIP3    H119191   2.533   4.738   1.397
 6395TIP3    H219192   2.428   4.800   1.307
 6396TIP3   OH219193   4.470   4.745   1.205
 6396TIP3    H119194   4.519   4.789   1.136
 6396TIP3    H219195   4.500   4.786   1.286
 6397TIP3   OH219196   4.968   4.256   2.357
 6397TIP3    H119197   4.914   4.333   2.340
 6397TIP3    H219198   4.919   4.207   2.424
 6398TIP3   OH219199   6.226   5.635   4.917
 6398TIP3    H119200   6.134   5.609   4.928
 6398TIP3    H219201   6.240   5.633   4.822
 6399TIP3   OH219202   5.431   3.879   4.963
 6399TIP3    H119203   5.501   3.891   4.899
 6399TIP3    H219204   5.469   3.907   5.046
 6400TIP3   OH219205   5.627   4.930   1.391
 6400TIP3    H119206   5.601   4.960   1.304
 6400TIP3    H219207   5.557   4.870   1.417
 6401TIP3   OH219208   2.209   1.423   2.197
 6401TIP3    H119209   2.293   1.378   2.198
 6401TIP3    H219210   2.146   1.357   2.168
 6402TIP3   OH219211   5.571   3.481   1.914
 6402TIP3    H119212   5.565   3.452   2.005
 6402TIP3    H219213   5.507   3.427   1.868
 6403TIP3   OH219214   4.315   0.075   2.724
 6403TIP3    H119215   4.231   0.030   2.716
 6403TIP3    H219216   4.344   0.088   2.634
 6404TIP3   OH219217   2.143   2.047   4.913
 6404TIP3    H119218   2.111   2.094   4.990
 6404TIP3    H219219   2.075   1.982   4.894
 6405TIP3   OH219220   1.759   4.851   2.554
 6405TIP3    H119221   1.835   4.893   2.595
 6405TIP3    H219222   1.791   4.821   2.469
 6406TIP3   OH219223   0.302   3.151   1.521
 6406TIP3    H119224   0.378   3.093   1.513
 6406TIP3    H219225   0.279   3.172   1.430
 6407TIP3   OH219226   1.143   2.935   0.194
 6407TIP3    H119227   1.105   2.890   0.119
 6407TIP3    H219228   1.071   2.945   0.255
 6408TIP3   OH219229   5.747   4.563   0.731
 6408TIP3    H119230   5.821   4.598   0.780
 6408TIP3    H219231   5.693   4.519   0.797
 6409TIP3   OH219232   5.478   5.613   1.551
 6409TIP3    H119233   5.517   5.527   1.565
 6409TIP3    H219234   5.521   5.669   1.615
 6410TIP3   OH219235   0.207   2.014   2.849
 6410TIP3    H119236   0.252   1.976   2.924
 6410TIP3    H219237   0.183   1.939   2.794
 6411TIP3   OH219238   2.731   5.488   3.634
 6411TIP3    H119239   2.778   5.558   3.589
 6411TIP3    H219240   2.658   5.467   3.575
 6412TIP3   OH219241   1.818   4.088   1.992
 6412TIP3    H119242   1.831   4.028   1.919
 6412TIP3    H219243   1.893   4.074   2.049
 6413TIP3   OH219244   5.261   3.548   1.289
 6413TIP3    H119245   5.354   3.556   1.265
 6413TIP3    H219246   5.236   3.635   1.319
 6414TIP3   OH219247   2.495   2.373   1.369
 6414TIP3    H119248   2.523   2.371   1.460
 6414TIP3    H219249   2.404   2.402   1.373
 6415TIP3   OH219250   5.759   4.364   1.462
 6415TIP3    H119251   5.680   4.407   1.430
 6415TIP3    H219252   5.793   4.317   1.386
 6416TIP3   OH219253   3.894   5.639   1.799
 6416TIP3    H119254   3.869   5.632   1.891
 6416TIP3    H219255   3.811   5.643   1.752
 6417TIP3   OH219256   4.412   3.547   3.838
 6417TIP3    H119257   4.349   3.526   3.908
 6417TIP3    H219258   4.357   3.576   3.765
 6418TIP3   OH219259   3.629   4.865   0.143
 6418TIP3    H119260   3.563   4.916   0.095
 6418TIP3    H219261   3.603   4.871   0.234
 6419TIP3   OH219262   1.555   0.855   0.796
 6419TIP3    H119263   1.532   0.828   0.707
 6419TIP3    H219264   1.650   0.852   0.799
 6420TIP3   OH219265   2.676   3.762   1.788
 6420TIP3    H119266   2.675   3.727   1.699
 6420TIP3    H219267   2.686   3.684   1.844
 6421TIP3   OH219268   4.366   2.040   2.845
 6421TIP3    H119269   4.301   1.973   2.867
 6421TIP3    H219270   4.411   2.006   2.767
 6422TIP3   OH219271   4.970   1.055   0.991
 6422TIP3    H119272   4.969   1.081   1.083
 6422TIP3    H219273   4.913   0.978   0.987
 6423TIP3   OH219274   5.060   3.312   3.841
 6423TIP3    H119275   4.975   3.311   3.885
 6423TIP3    H219276   5.040   3.296   3.749
 6424TIP3   OH219277   2.383   3.740   0.528
 6424TIP3    H119278   2.442   3.815   0.518
 6424TIP3    H219279   2.309   3.775   0.578
 6425TIP3   OH219280   1.556   1.346   2.848
 6425TIP3    H119281   1.538   1.438   2.870
 6425TIP3    H219282   1.508   1.332   2.766
 6426TIP3   OH219283  -0.045   0.599   2.330
 6426TIP3    H119284   0.026   0.556   2.281
 6426TIP3    H219285  -0.054   0.548   2.410
 6427TIP3   OH219286   2.262   3.100   0.567
 6427TIP3    H119287   2.260   3.089   0.662
 6427TIP3    H219288   2.198   3.169   0.550
 6428TIP3   OH219289   6.217   4.111   4.007
 6428TIP3    H119290   6.163   4.066   4.072
 6428TIP3    H219291   6.249   4.042   3.949
 6429TIP3   OH219292   0.534   0.274   3.590
 6429TIP3    H119293   0.443   0.255   3.567
 6429TIP3    H219294   0.578   0.285   3.506
 6430TIP3   OH219295   3.311   5.472   4.786
 6430TIP3    H119296   3.386   5.412   4.791
 6430TIP3    H219297   3.351   5.559   4.788
 6431TIP3   OH219298   3.062   0.126   3.116
 6431TIP3    H119299   3.067   0.052   3.055
 6431TIP3    H219300   3.081   0.088   3.202
 6432TIP3   OH219301   2.219   3.952   3.629
 6432TIP3    H119302   2.285   3.969   3.696
 6432TIP3    H219303   2.147   3.910   3.677
 6433TIP3   OH219304   4.705   3.951   0.363
 6433TIP3    H119305   4.776   3.972   0.302
 6433TIP3    H219306   4.704   4.025   0.424
 6434TIP3   OH219307   3.480   2.490   4.602
 6434TIP3    H119308   3.425   2.431   4.550
 6434TIP3    H219309   3.503   2.561   4.542
 6435TIP3   OH219310   1.719   0.753   3.235
 6435TIP3    H119311   1.777   0.802   3.177
 6435TIP3    H219312   1.653   0.716   3.177
 6436TIP3   OH219313   5.492   5.501   3.626
 6436TIP3    H119314   5.467   5.502   3.533
 6436TIP3    H219315   5.502   5.408   3.647
 6437TIP3   OH219316   0.179   1.987   4.990
 6437TIP3    H119317   0.142   1.946   4.912
 6437TIP3    H219318   0.207   1.914   5.045
 6438TIP3   OH219319   6.056   3.479   3.426
 6438TIP3    H119320   6.116   3.472   3.500
 6438TIP3    H219321   6.050   3.390   3.392
 6439TIP3   OH219322   1.929   0.987   5.106
 6439TIP3    H119323   1.860   0.997   5.171
 6439TIP3    H219324   1.884   0.987   5.022
 6440TIP3   OH219325   3.492   3.512   3.951
 6440TIP3    H119326   3.547   3.530   4.027
 6440TIP3    H219327   3.549   3.468   3.889
 6441TIP3   OH219328   5.449   5.839   2.265
 6441TIP3    H119329   5.425   5.913   2.210
 6441TIP3    H219330   5.391   5.768   2.237
 6442TIP3   OH219331   4.464   5.987   2.786
 6442TIP3    H119332   4.385   5.968   2.735
 6442TIP3    H219333   4.467   5.918   2.853
 6443TIP3   OH219334   3.171   1.982   4.477
 6443TIP3    H119335   3.238   1.971   4.544
 6443TIP3    H219336   3.217   1.965   4.395
 6444TIP3   OH219337   6.053   4.242   3.710
 6444TIP3    H119338   6.134   4.269   3.668
 6444TIP3    H219339   6.056   4.281   3.797
 6445TIP3   OH219340   1.937   0.549   2.276
 6445TIP3    H119341   1.912   0.557   2.184
 6445TIP3    H219342   1.949   0.455   2.290
 6446TIP3   OH219343   4.627   2.162   5.098
 6446TIP3    H119344   4.597   2.108   5.172
 6446TIP3    H219345   4.551   2.165   5.039
 6447TIP3   OH219346   4.744   3.423   2.239
 6447TIP3    H119347   4.680   3.363   2.200
 6447TIP3    H219348   4.693   3.495   2.274
 6448TIP3   OH219349   0.646   1.653   1.437
 6448TIP3    H119350   0.598   1.710   1.498
 6448TIP3    H219351   0.589   1.577   1.424
 6449TIP3   OH219352   1.891   5.076   2.894
 6449TIP3    H119353   1.810   5.089   2.942
 6449TIP3    H219354   1.864   5.069   2.802
 6450TIP3   OH219355   2.506   4.417   4.736
 6450TIP3    H119356   2.445   4.469   4.682
 6450TIP3    H219357   2.578   4.397   4.677
 6451TIP3   OH219358   1.415   1.050   1.148
 6451TIP3    H119359   1.368   1.042   1.065
 6451TIP3    H219360   1.454   1.137   1.146
 6452TIP3   OH219361   5.619   2.521   1.614
 6452TIP3    H119362   5.629   2.465   1.691
 6452TIP3    H219363   5.701   2.510   1.566
 6453TIP3   OH219364   0.916   5.985   0.725
 6453TIP3    H119365   0.893   5.902   0.767
 6453TIP3    H219366   0.893   6.052   0.790
 6454TIP3   OH219367  -0.009   2.654   1.977
 6454TIP3    H119368   0.078   2.689   1.996
 6454TIP3    H219369   0.003   2.559   1.974
 6455TIP3   OH219370   2.781   3.676   4.875
 6455TIP3    H119371   2.722   3.631   4.815
 6455TIP3    H219372   2.869   3.653   4.844
 6456TIP3   OH219373   6.309   1.440   1.586
 6456TIP3    H119374   6.268   1.355   1.601
 6456TIP3    H219375   6.378   1.446   1.652
 6457TIP3   OH219376   4.573   4.498   3.438
 6457TIP3    H119377   4.627   4.444   3.495
 6457TIP3    H219378   4.634   4.534   3.374
 6458TIP3   OH219379   1.620   5.047   4.420
 6458TIP3    H119380   1.688   5.108   4.391
 6458TIP3    H219381   1.579   5.091   4.495
 6459TIP3   OH219382   5.409   5.684   3.121
 6459TIP3    H119383   5.477   5.687   3.054
 6459TIP3    H219384   5.345   5.749   3.093
 6460TIP3   OH219385   3.535   1.428   0.801
 6460TIP3    H119386   3.605   1.384   0.848
 6460TIP3    H219387   3.458   1.419   0.858
 6461TIP3   OH219388   0.797   4.075   4.838
 6461TIP3    H119389   0.852   4.152   4.852
 6461TIP3    H219390   0.856   4.010   4.800
 6462TIP3   OH219391   0.282   4.427   0.207
 6462TIP3    H119392   0.236   4.349   0.238
 6462TIP3    H219393   0.213   4.491   0.191
 6463TIP3   OH219394   5.838   5.309   4.533
 6463TIP3    H119395   5.835   5.219   4.566
 6463TIP3    H219396   5.780   5.358   4.591
 6464TIP3   OH219397   5.264   0.004   4.507
 6464TIP3    H119398   5.242   0.041   4.593
 6464TIP3    H219399   5.181  -0.001   4.461
 6465TIP3   OH219400   5.654   1.792   4.579
 6465TIP3    H119401   5.698   1.874   4.601
 6465TIP3    H219402   5.670   1.736   4.655
 6466TIP3   OH219403   1.698   4.351   4.325
 6466TIP3    H119404   1.689   4.430   4.273
 6466TIP3    H219405   1.684   4.380   4.415
 6467TIP3   OH219406   2.010   4.602   0.972
 6467TIP3    H119407   2.068   4.657   0.919
 6467TIP3    H219408   1.924   4.644   0.965
 6468TIP3   OH219409   1.039   5.701   3.254
 6468TIP3    H119410   1.132   5.694   3.277
 6468TIP3    H219411   0.997   5.730   3.335
 6469TIP3   OH219412   4.936   2.128   3.413
 6469TIP3    H119413   4.978   2.214   3.423
 6469TIP3    H219414   4.981   2.088   3.339
 6470TIP3   OH219415   5.478   1.028   2.420
 6470TIP3    H119416   5.435   0.949   2.453
 6470TIP3    H219417   5.567   1.023   2.454
 6471TIP3   OH219418   0.553   5.417   2.423
 6471TIP3    H119419   0.586   5.479   2.487
 6471TIP3    H219420   0.621   5.414   2.355
 6472TIP3   OH219421   0.993   4.552   1.847
 6472TIP3    H119422   1.040   4.492   1.789
 6472TIP3    H219423   0.933   4.496   1.896
 6473TIP3   OH219424   3.188   3.121   1.532
 6473TIP3    H119425   3.256   3.068   1.490
 6473TIP3    H219426   3.226   3.149   1.615
 6474TIP3   OH219427   1.451   3.837   0.318
 6474TIP3    H119428   1.542   3.805   0.313
 6474TIP3    H219429   1.401   3.775   0.264
 6475TIP3   OH219430   5.576   3.921   3.501
 6475TIP3    H119431   5.622   3.884   3.425
 6475TIP3    H219432   5.503   3.861   3.515
 6476TIP3   OH219433   1.394   3.726   1.932
 6476TIP3    H119434   1.482   3.762   1.927
 6476TIP3    H219435   1.351   3.777   2.002
 6477TIP3   OH219436   0.871   2.979   2.359
 6477TIP3    H119437   0.779   3.002   2.375
 6477TIP3    H219438   0.873   2.884   2.370
 6478TIP3   OH219439   3.230   3.524   3.371
 6478TIP3    H119440   3.194   3.478   3.447
 6478TIP3    H219441   3.203   3.470   3.296
 6479TIP3   OH219442   4.004   3.364   0.563
 6479TIP3    H119443   4.031   3.367   0.655
 6479TIP3    H219444   4.009   3.455   0.535
 6480TIP3   OH219445   2.290   4.999   3.425
 6480TIP3    H119446   2.230   5.073   3.419
 6480TIP3    H219447   2.373   5.037   3.453
 6481TIP3   OH219448   5.127   5.300   2.828
 6481TIP3    H119449   5.218   5.271   2.833
 6481TIP3    H219450   5.131   5.395   2.839
 6482TIP3   OH219451   0.754   5.568   3.666
 6482TIP3    H119452   0.686   5.576   3.598
 6482TIP3    H219453   0.733   5.487   3.711
 6483TIP3   OH219454   3.819   3.451   2.048
 6483TIP3    H119455   3.823   3.381   2.113
 6483TIP3    H219456   3.803   3.530   2.098
 6484TIP3   OH219457   4.436   1.488   4.165
 6484TIP3    H119458   4.376   1.548   4.121
 6484TIP3    H219459   4.492   1.455   4.095
 6485TIP3   OH219460   3.230   4.618   3.314
 6485TIP3    H119461   3.241   4.713   3.313
 6485TIP3    H219462   3.135   4.605   3.322
 6486TIP3   OH219463   1.390   1.337   1.097
 6486TIP3    H119464   1.308   1.320   1.051
 6486TIP3    H219465   1.426   1.414   1.053
 6487TIP3   OH219466   5.951   2.566   2.170
 6487TIP3    H119467   5.892   2.633   2.137
 6487TIP3    H219468   6.023   2.564   2.107
 6488TIP3   OH219469   0.812   1.063   2.800
 6488TIP3    H119470   0.752   1.050   2.726
 6488TIP3    H219471   0.834   1.156   2.796
 6489TIP3   OH219472   4.532   0.352   3.094
 6489TIP3    H119473   4.509   0.316   3.180
 6489TIP3    H219474   4.546   0.446   3.111
 6490TIP3   OH219475   1.101   5.499   1.802
 6490TIP3    H119476   1.041   5.542   1.862
 6490TIP3    H219477   1.054   5.421   1.772
 6491TIP3   OH219478   1.478   5.210   3.853
 6491TIP3    H119479   1.548   5.167   3.804
 6491TIP3    H219480   1.524   5.262   3.919
 6492TIP3   OH219481   5.272   2.355   0.998
 6492TIP3    H119482   5.286   2.436   1.046
 6492TIP3    H219483   5.213   2.379   0.926
 6493TIP3   OH219484   0.442   2.791   1.735
 6493TIP3    H119485   0.439   2.759   1.825
 6493TIP3    H219486   0.350   2.801   1.710
 6494TIP3   OH219487   4.924   3.201   2.747
 6494TIP3    H119488   4.958   3.204   2.658
 6494TIP3    H219489   4.835   3.165   2.737
 6495TIP3   OH219490   2.507   3.952   1.240
 6495TIP3    H119491   2.516   3.857   1.248
 6495TIP3    H219492   2.438   3.965   1.175
 6496TIP3   OH219493   2.656   3.171   4.044
 6496TIP3    H119494   2.734   3.185   3.991
 6496TIP3    H219495   2.688   3.163   4.134
 6497TIP3   OH219496   1.136   5.639   4.923
 6497TIP3    H119497   1.179   5.562   4.888
 6497TIP3    H219498   1.057   5.605   4.965
 6498TIP3   OH219499   2.688   5.750   2.148
 6498TIP3    H119500   2.722   5.809   2.215
 6498TIP3    H219501   2.601   5.725   2.180
 6499TIP3   OH219502   0.663   5.918   4.896
 6499TIP3    H119503   0.693   5.846   4.952
 6499TIP3    H219504   0.573   5.933   4.924
 6500TIP3   OH219505   5.950   4.677   0.905
 6500TIP3    H119506   5.953   4.762   0.949
 6500TIP3    H219507   5.984   4.615   0.969
 6501TIP3   OH219508   0.747   5.692   3.370
 6501TIP3    H119509   0.712   5.606   3.393
 6501TIP3    H219510   0.670   5.748   3.360
 6502TIP3   OH219511   5.369   4.038   2.725
 6502TIP3    H119512   5.302   4.019   2.659
 6502TIP3    H219513   5.330   4.008   2.807
 6503TIP3   OH219514   0.948   0.978   4.962
 6503TIP3    H119515   0.995   0.897   4.942
 6503TIP3    H219516   0.950   1.028   4.880
 6504TIP3   OH219517   1.397   5.391   1.061
 6504TIP3    H119518   1.461   5.321   1.050
 6504TIP3    H219519   1.408   5.446   0.983
 6505TIP3   OH219520   4.309   4.733   4.323
 6505TIP3    H119521   4.368   4.661   4.340
 6505TIP3    H219522   4.357   4.811   4.352
 6506TIP3   OH219523   5.968   0.330   0.893
 6506TIP3    H119524   5.919   0.344   0.974
 6506TIP3    H219525   6.008   0.415   0.875
 6507TIP3   OH219526   4.354   4.497   2.547
 6507TIP3    H119527   4.366   4.519   2.639
 6507TIP3    H219528   4.410   4.560   2.500
 6508TIP3   OH219529   2.811   3.461   0.061
 6508TIP3    H119530   2.835   3.468   0.154
 6508TIP3    H219531   2.772   3.374   0.053
 6509TIP3   OH219532   6.267   5.859   3.977
 6509TIP3    H119533   6.225   5.780   3.943
 6509TIP3    H219534   6.285   5.912   3.899
 6510TIP3   OH219535   0.181   4.064   1.364
 6510TIP3    H119536   0.243   3.994   1.344
 6510TIP3    H219537   0.102   4.019   1.395
 6511TIP3   OH219538   1.914   4.142   0.292
 6511TIP3    H119539   1.820   4.146   0.272
 6511TIP3    H219540   1.949   4.224   0.257
 6512TIP3   OH219541   5.024   5.081   0.187
 6512TIP3    H119542   4.963   5.142   0.145
 6512TIP3    H219543   5.076   5.046   0.114
 6513TIP3   OH219544   3.674   2.138   0.916
 6513TIP3    H119545   3.636   2.065   0.868
 6513TIP3    H219546   3.764   2.110   0.934
 6514TIP3   OH219547   1.205   0.514   1.336
 6514TIP3    H119548   1.180   0.476   1.420
 6514TIP3    H219549   1.224   0.605   1.356
 6515TIP3   OH219550   2.515   0.305   2.993
 6515TIP3    H119551   2.557   0.288   2.909
 6515TIP3    H219552   2.588   0.320   3.053
 6516TIP3   OH219553   2.110   1.571   4.354
 6516TIP3    H119554   2.128   1.491   4.305
 6516TIP3    H219555   2.094   1.637   4.287
 6517TIP3   OH219556   3.546   3.631   3.558
 6517TIP3    H119557   3.620   3.577   3.531
 6517TIP3    H219558   3.581   3.687   3.628
 6518TIP3   OH219559   5.942   2.255   4.776
 6518TIP3    H119560   5.913   2.345   4.758
 6518TIP3    H219561   5.954   2.253   4.871
 6519TIP3   OH219562   3.781   3.935   3.591
 6519TIP3    H119563   3.781   3.850   3.636
 6519TIP3    H219564   3.747   3.916   3.503
 6520TIP3   OH219565   0.421   4.495   2.995
 6520TIP3    H119566   0.452   4.586   2.994
 6520TIP3    H219567   0.341   4.497   2.943
 6521TIP3   OH219568   5.411   4.791   4.854
 6521TIP3    H119569   5.442   4.724   4.915
 6521TIP3    H219570   5.458   4.871   4.880
 6522TIP3   OH219571   3.168   2.054   3.785
 6522TIP3    H119572   3.194   2.119   3.849
 6522TIP3    H219573   3.103   2.098   3.730
 6523TIP3   OH219574   1.312   3.408   4.681
 6523TIP3    H119575   1.283   3.383   4.593
 6523TIP3    H219576   1.332   3.501   4.674
 6524TIP3   OH219577   2.733   1.382   0.027
 6524TIP3    H119578   2.741   1.476   0.010
 6524TIP3    H219579   2.822   1.353   0.042
 6525TIP3   OH219580   2.762   1.178   0.825
 6525TIP3    H119581   2.709   1.103   0.850
 6525TIP3    H219582   2.779   1.166   0.731
 6526TIP3   OH219583   4.397   1.636   2.424
 6526TIP3    H119584   4.366   1.598   2.341
 6526TIP3    H219585   4.358   1.580   2.491
 6527TIP3   OH219586   1.714   0.333   0.678
 6527TIP3    H119587   1.645   0.399   0.668
 6527TIP3    H219588   1.779   0.355   0.612
 6528TIP3   OH219589   5.551   5.985   0.750
 6528TIP3    H119590   5.644   6.004   0.766
 6528TIP3    H219591   5.551   5.933   0.669
 6529TIP3   OH219592   1.709   1.886   4.993
 6529TIP3    H119593   1.672   1.967   4.957
 6529TIP3    H219594   1.712   1.902   5.087
 6530TIP3   OH219595   4.971   1.400   2.959
 6530TIP3    H119596   4.896   1.448   2.925
 6530TIP3    H219597   4.939   1.362   3.041
 6531TIP3   OH219598   3.969   5.601   3.713
 6531TIP3    H119599   4.038   5.667   3.717
 6531TIP3    H219600   4.012   5.520   3.740
 6532TIP3   OH219601   0.811   4.779   4.261
 6532TIP3    H119602   0.786   4.759   4.171
 6532TIP3    H219603   0.831   4.694   4.300
 6533TIP3   OH219604   1.749   2.726   3.776
 6533TIP3    H119605   1.769   2.637   3.805
 6533TIP3    H219606   1.751   2.722   3.681
 6534TIP3   OH219607   0.056   0.050   0.464
 6534TIP3    H119608   0.018  -0.017   0.407
 6534TIP3    H219609   0.128   0.088   0.413
 6535TIP3   OH219610   1.281   4.265   3.327
 6535TIP3    H119611   1.300   4.304   3.242
 6535TIP3    H219612   1.318   4.177   3.322
 6536TIP3   OH219613   4.598   0.333   2.462
 6536TIP3    H119614   4.680   0.298   2.497
 6536TIP3    H219615   4.535   0.262   2.474
 6537TIP3   OH219616   1.533   5.796   4.679
 6537TIP3    H119617   1.445   5.835   4.678
 6537TIP3    H219618   1.561   5.797   4.588
 6538TIP3   OH219619   6.075   4.759   0.547
 6538TIP3    H119620   6.014   4.822   0.509
 6538TIP3    H219621   6.085   4.788   0.638
 6539TIP3   OH219622   5.329   1.732   1.329
 6539TIP3    H119623   5.242   1.695   1.342
 6539TIP3    H219624   5.373   1.671   1.269
 6540TIP3   OH219625   2.868   0.190   4.916
 6540TIP3    H119626   2.851   0.098   4.896
 6540TIP3    H219627   2.926   0.219   4.846
 6541TIP3   OH219628   2.135   2.934   4.571
 6541TIP3    H119629   2.120   2.845   4.541
 6541TIP3    H219630   2.215   2.929   4.623
 6542TIP3   OH219631   6.263   1.084   2.515
 6542TIP3    H119632   6.302   1.082   2.602
 6542TIP3    H219633   6.283   0.997   2.478
 6543TIP3   OH219634   4.861   5.842   0.708
 6543TIP3    H119635   4.880   5.852   0.801
 6543TIP3    H219636   4.787   5.781   0.705
 6544TIP3   OH219637   2.150   4.837   1.376
 6544TIP3    H119638   2.205   4.761   1.353
 6544TIP3    H219639   2.197   4.878   1.449
 6545TIP3   OH219640   2.343   5.522   2.571
 6545TIP3    H119641   2.368   5.491   2.658
 6545TIP3    H219642   2.323   5.615   2.583
 6546TIP3   OH219643   2.499   1.191   4.274
 6546TIP3    H119644   2.412   1.155   4.256
 6546TIP3    H219645   2.513   1.254   4.204
 6547TIP3   OH219646   5.670   3.519   0.858
 6547TIP3    H119647   5.682   3.479   0.943
 6547TIP3    H219648   5.595   3.473   0.819
 6548TIP3   OH219649   2.471   3.304   0.905
 6548TIP3    H119650   2.529   3.243   0.860
 6548TIP3    H219651   2.386   3.294   0.861
 6549TIP3   OH219652   6.290   0.587   3.805
 6549TIP3    H119653   6.327   0.661   3.757
 6549TIP3    H219654   6.266   0.623   3.890
 6550TIP3   OH219655   5.718   5.773   2.639
 6550TIP3    H119656   5.684   5.845   2.586
 6550TIP3    H219657   5.813   5.775   2.624
 6551TIP3   OH219658   0.592   5.073   5.064
 6551TIP3    H119659   0.538   5.137   5.018
 6551TIP3    H219660   0.613   5.115   5.148
 6552TIP3   OH219661   3.987   4.314   4.283
 6552TIP3    H119662   4.079   4.331   4.260
 6552TIP3    H219663   3.969   4.374   4.355
 6553TIP3   OH219664   0.872   2.946   0.904
 6553TIP3    H119665   0.877   2.960   0.809
 6553TIP3    H219666   0.953   2.985   0.938
 6554TIP3   OH219667   3.415   1.180   4.169
 6554TIP3    H119668   3.417   1.215   4.258
 6554TIP3    H219669   3.469   1.101   4.173
 6555TIP3   OH219670   6.114   0.103   0.141
 6555TIP3    H119671   6.141   0.190   0.171
 6555TIP3    H219672   6.098   0.113   0.047
 6556TIP3   OH219673   2.427   1.876   1.871
 6556TIP3    H119674   2.432   1.800   1.930
 6556TIP3    H219675   2.336   1.880   1.845
 6557TIP3   OH219676   5.282   3.444   3.042
 6557TIP3    H119677   5.353   3.495   3.002
 6557TIP3    H219678   5.262   3.376   2.978
 6558TIP3   OH219679   6.239   3.018   4.642
 6558TIP3    H119680   6.299   2.967   4.588
 6558TIP3    H219681   6.179   3.059   4.580
 6559TIP3   OH219682   5.359   3.071   1.624
 6559TIP3    H119683   5.428   3.135   1.640
 6559TIP3    H219684   5.321   3.096   1.540
 6560TIP3   OH219685   4.683   5.487  -0.004
 6560TIP3    H119686   4.640   5.555   0.046
 6560TIP3    H219687   4.632   5.408   0.013
 6561TIP3   OH219688   1.975   1.414   5.133
 6561TIP3    H119689   2.064   1.385   5.114
 6561TIP3    H219690   1.963   1.395   5.226
 6562TIP3   OH219691   2.214   2.337   4.800
 6562TIP3    H119692   2.304   2.319   4.827
 6562TIP3    H219693   2.174   2.381   4.875
 6563TIP3   OH219694   3.863   4.951   4.792
 6563TIP3    H119695   3.796   5.011   4.824
 6563TIP3    H219696   3.896   4.991   4.711
 6564TIP3   OH219697   2.921   3.499   0.583
 6564TIP3    H119698   2.996   3.441   0.597
 6564TIP3    H219699   2.954   3.586   0.604
 6565TIP3   OH219700   2.724   4.744   4.813
 6565TIP3    H119701   2.630   4.726   4.804
 6565TIP3    H219702   2.731   4.792   4.896
 6566TIP3   OH219703   0.439   1.836   1.077
 6566TIP3    H119704   0.499   1.882   1.136
 6566TIP3    H219705   0.375   1.902   1.051
 6567TIP3   OH219706   1.899   3.161   0.586
 6567TIP3    H119707   1.961   3.233   0.577
 6567TIP3    H219708   1.815   3.204   0.603
 6568TIP3   OH219709   0.558   3.166   0.631
 6568TIP3    H119710   0.480   3.116   0.608
 6568TIP3    H219711   0.551   3.179   0.725
 6569TIP3   OH219712   2.203   0.620   3.080
 6569TIP3    H119713   2.202   0.640   2.987
 6569TIP3    H219714   2.296   0.616   3.103
 6570TIP3   OH219715   3.833   4.014   2.080
 6570TIP3    H119716   3.764   4.042   2.140
 6570TIP3    H219717   3.900   4.082   2.087
 6571TIP3   OH219718   4.868   2.953   0.080
 6571TIP3    H119719   4.827   2.868   0.069
 6571TIP3    H219720   4.947   2.949   0.026
 6572TIP3   OH219721   3.871   4.484   1.179
 6572TIP3    H119722   3.906   4.464   1.092
 6572TIP3    H219723   3.948   4.502   1.232
 6573TIP3   OH219724   1.498   4.308   1.502
 6573TIP3    H119725   1.490   4.249   1.426
 6573TIP3    H219726   1.438   4.271   1.567
 6574TIP3   OH219727   0.055   4.088   0.656
 6574TIP3    H119728   0.087   4.073   0.745
 6574TIP3    H219729   0.068   4.181   0.640
 6575TIP3   OH219730   1.371   4.629   2.951
 6575TIP3    H119731   1.397   4.557   2.893
 6575TIP3    H219732   1.453   4.675   2.969
 6576TIP3   OH219733   1.638   3.247   0.589
 6576TIP3    H119734   1.559   3.257   0.642
 6576TIP3    H219735   1.621   3.170   0.534
 6577TIP3   OH219736   1.146   4.469   4.886
 6577TIP3    H119737   1.079   4.522   4.928
 6577TIP3    H219738   1.175   4.408   4.955
 6578TIP3   OH219739   3.551   4.703   2.641
 6578TIP3    H119740   3.532   4.701   2.735
 6578TIP3    H219741   3.632   4.652   2.632
 6579TIP3   OH219742   1.303   3.079   1.610
 6579TIP3    H119743   1.317   3.078   1.515
 6579TIP3    H219744   1.380   3.035   1.646
 6580TIP3   OH219745   1.675   4.421   1.257
 6580TIP3    H119746   1.600   4.433   1.316
 6580TIP3    H219747   1.717   4.341   1.286
 6581TIP3   OH219748   1.407   2.223   0.794
 6581TIP3    H119749   1.483   2.193   0.744
 6581TIP3    H219750   1.423   2.189   0.883
 6582TIP3   OH219751   4.889   2.000   1.318
 6582TIP3    H119752   4.877   2.013   1.224
 6582TIP3    H219753   4.940   2.076   1.346
 6583TIP3   OH219754   4.652   5.474   4.678
 6583TIP3    H119755   4.739   5.481   4.716
 6583TIP3    H219756   4.664   5.417   4.601
 6584TIP3   OH219757   0.492   0.048   4.348
 6584TIP3    H119758   0.586   0.032   4.355
 6584TIP3    H219759   0.479   0.136   4.384
 6585TIP3   OH219760   5.960   5.734   1.565
 6585TIP3    H119761   5.925   5.822   1.550
 6585TIP3    H219762   5.895   5.675   1.528
 6586TIP3   OH219763   1.299   4.955   3.027
 6586TIP3    H119764   1.361   4.924   3.092
 6586TIP3    H219765   1.235   5.006   3.077
 6587TIP3   OH219766   0.566   1.270   1.467
 6587TIP3    H119767   0.645   1.275   1.520
 6587TIP3    H219768   0.584   1.323   1.390
 6588TIP3   OH219769   2.448   2.482   4.410
 6588TIP3    H119770   2.365   2.438   4.430
 6588TIP3    H219771   2.514   2.431   4.458
 6589TIP3   OH219772   4.411   0.290   3.439
 6589TIP3    H119773   4.421   0.208   3.391
 6589TIP3    H219774   4.344   0.271   3.505
 6590TIP3   OH219775   2.035   2.825   2.683
 6590TIP3    H119776   2.040   2.772   2.603
 6590TIP3    H219777   2.091   2.901   2.664
 6591TIP3   OH219778   5.420   4.806   0.554
 6591TIP3    H119779   5.357   4.735   0.544
 6591TIP3    H219780   5.454   4.796   0.644
 6592TIP3   OH219781   2.582   4.863   1.825
 6592TIP3    H119782   2.582   4.926   1.897
 6592TIP3    H219783   2.545   4.911   1.751
 6593TIP3   OH219784   4.345   2.782   1.389
 6593TIP3    H119785   4.286   2.723   1.435
 6593TIP3    H219786   4.400   2.820   1.458
 6594TIP3   OH219787   4.153   5.362   3.678
 6594TIP3    H119788   4.127   5.297   3.743
 6594TIP3    H219789   4.246   5.346   3.664
 6595TIP3   OH219790   0.948   4.304   4.164
 6595TIP3    H119791   0.877   4.331   4.106
 6595TIP3    H219792   0.980   4.222   4.127
 6596TIP3   OH219793   2.457   3.028   2.810
 6596TIP3    H119794   2.407   3.091   2.862
 6596TIP3    H219795   2.545   3.064   2.805
 6597TIP3   OH219796   2.188   1.314   1.477
 6597TIP3    H119797   2.252   1.279   1.539
 6597TIP3    H219798   2.176   1.244   1.413
 6598TIP3   OH219799   1.061   0.956   1.150
 6598TIP3    H119800   1.097   0.927   1.233
 6598TIP3    H219801   1.104   0.902   1.084
 6599TIP3   OH219802   0.143   1.730   3.479
 6599TIP3    H119803   0.211   1.663   3.486
 6599TIP3    H219804   0.188   1.813   3.496
 6600TIP3   OH219805   3.751   5.252   4.298
 6600TIP3    H119806   3.747   5.196   4.221
 6600TIP3    H219807   3.702   5.331   4.273
 6601TIP3   OH219808   0.403   0.328   0.053
 6601TIP3    H119809   0.447   0.302  -0.027
 6601TIP3    H219810   0.472   0.326   0.120
 6602TIP3   OH219811   5.341   3.015   0.979
 6602TIP3    H119812   5.435   3.028   0.967
 6602TIP3    H219813   5.327   3.027   1.073
 6603TIP3   OH219814   3.566   1.986   4.181
 6603TIP3    H119815   3.617   1.982   4.262
 6603TIP3    H219816   3.613   2.048   4.125
 6604TIP3   OH219817   0.584   2.764   3.925
 6604TIP3    H119818   0.555   2.719   3.846
 6604TIP3    H219819   0.663   2.811   3.897
 6605TIP3   OH219820   3.189   1.640   0.929
 6605TIP3    H119821   3.200   1.641   0.834
 6605TIP3    H219822   3.200   1.548   0.953
 6606TIP3   OH219823   4.788   1.712   1.225
 6606TIP3    H119824   4.714   1.727   1.284
 6606TIP3    H219825   4.751   1.724   1.137
 6607TIP3   OH219826   4.486   3.648   0.043
 6607TIP3    H119827   4.570   3.616   0.075
 6607TIP3    H219828   4.498   3.743   0.037
 6608TIP3   OH219829   2.965   0.634   4.936
 6608TIP3    H119830   2.976   0.712   4.991
 6608TIP3    H219831   2.880   0.597   4.963
 6609TIP3   OH219832   1.658   2.677   2.608
 6609TIP3    H119833   1.647   2.587   2.576
 6609TIP3    H219834   1.622   2.732   2.539
 6610TIP3   OH219835   3.843   1.235   4.228
 6610TIP3    H119836   3.805   1.178   4.294
 6610TIP3    H219837   3.914   1.281   4.273
 6611TIP3   OH219838   6.184   3.770   2.598
 6611TIP3    H119839   6.267   3.810   2.572
 6611TIP3    H219840   6.153   3.824   2.671
 6612TIP3   OH219841   2.988   1.531   2.384
 6612TIP3    H119842   2.994   1.597   2.315
 6612TIP3    H219843   3.063   1.473   2.370
 6613TIP3   OH219844   2.906   2.261   3.719
 6613TIP3    H119845   2.933   2.330   3.778
 6613TIP3    H219846   2.811   2.273   3.709
 6614TIP3   OH219847   6.325   3.510   2.532
 6614TIP3    H119848   6.284   3.500   2.446
 6614TIP3    H219849   6.277   3.582   2.573
 6615TIP3   OH219850   3.377   1.332   1.848
 6615TIP3    H119851   3.446   1.286   1.896
 6615TIP3    H219852   3.354   1.273   1.777
 6616TIP3   OH219853   3.934   2.780   3.596
 6616TIP3    H119854   3.948   2.809   3.506
 6616TIP3    H219855   3.954   2.856   3.650
 6617TIP3   OH219856   0.424   0.528   3.626
 6617TIP3    H119857   0.348   0.516   3.682
 6617TIP3    H219858   0.463   0.441   3.618
 6618TIP3   OH219859   0.803   3.119   4.287
 6618TIP3    H119860   0.894   3.102   4.311
 6618TIP3    H219861   0.804   3.208   4.250
 6619TIP3   OH219862   3.419   4.472   3.677
 6619TIP3    H119863   3.435   4.558   3.716
 6619TIP3    H219864   3.362   4.428   3.739
 6620TIP3   OH219865   3.720   0.055   4.847
 6620TIP3    H119866   3.706  -0.040   4.844
 6620TIP3    H219867   3.813   0.066   4.825
 6621TIP3   OH219868   6.222   0.431   2.528
 6621TIP3    H119869   6.253   0.348   2.564
 6621TIP3    H219870   6.127   0.428   2.539
 6622TIP3   OH219871   3.116   5.917   2.677
 6622TIP3    H119872   3.125   5.865   2.598
 6622TIP3    H219873   3.022   5.916   2.696
 6623TIP3   OH219874   3.341   2.307   4.337
 6623TIP3    H119875   3.359   2.253   4.261
 6623TIP3    H219876   3.358   2.250   4.412
 6624TIP3   OH219877   3.335   3.884   3.692
 6624TIP3    H119878   3.336   3.975   3.663
 6624TIP3    H219879   3.368   3.835   3.617
 6625TIP3   OH219880   1.637   3.807   3.640
 6625TIP3    H119881   1.679   3.871   3.584
 6625TIP3    H219882   1.667   3.829   3.728
 6626TIP3   OH219883   5.863   5.608   0.048
 6626TIP3    H119884   5.798   5.627   0.115
 6626TIP3    H219885   5.930   5.556   0.094
 6627TIP3   OH219886   5.071   2.280   4.549
 6627TIP3    H119887   4.986   2.255   4.586
 6627TIP3    H219888   5.049   2.341   4.478
 6628TIP3   OH219889   5.977   4.750   2.285
 6628TIP3    H119890   5.967   4.672   2.340
 6628TIP3    H219891   5.973   4.824   2.346
 6629TIP3   OH219892   1.295   4.125   1.658
 6629TIP3    H119893   1.327   4.073   1.731
 6629TIP3    H219894   1.285   4.063   1.586
 6630TIP3   OH219895   3.421   1.790   2.095
 6630TIP3    H119896   3.345   1.848   2.100
 6630TIP3    H219897   3.447   1.793   2.003
 6631TIP3   OH219898   1.141   2.524   0.182
 6631TIP3    H119899   1.142   2.453   0.118
 6631TIP3    H219900   1.219   2.576   0.162
 6632TIP3   OH219901   2.257   2.215   1.307
 6632TIP3    H119902   2.250   2.243   1.216
 6632TIP3    H219903   2.209   2.281   1.356
 6633TIP3   OH219904   5.725   2.994   2.654
 6633TIP3    H119905   5.818   2.981   2.632
 6633TIP3    H219906   5.681   3.002   2.570
 6634TIP3   OH219907   3.153   5.565   0.866
 6634TIP3    H119908   3.147   5.580   0.772
 6634TIP3    H219909   3.103   5.484   0.880
 6635TIP3   OH219910   6.150   0.373   4.095
 6635TIP3    H119911   6.059   0.391   4.074
 6635TIP3    H219912   6.189   0.459   4.111
 6636TIP3   OH219913   2.227   5.434   0.168
 6636TIP3    H119914   2.315   5.419   0.135
 6636TIP3    H219915   2.232   5.520   0.210
 6637TIP3   OH219916   0.532   2.639   2.583
 6637TIP3    H119917   0.605   2.665   2.526
 6637TIP3    H219918   0.532   2.543   2.579
 6638TIP3   OH219919   1.789   0.950   2.895
 6638TIP3    H119920   1.770   1.034   2.936
 6638TIP3    H219921   1.842   0.904   2.960
 6639TIP3   OH219922   1.564   4.891   1.954
 6639TIP3    H119923   1.627   4.952   1.915
 6639TIP3    H219924   1.605   4.805   1.946
 6640TIP3   OH219925   5.279   4.907   1.080
 6640TIP3    H119926   5.214   4.839   1.064
 6640TIP3    H219927   5.228   4.985   1.103
 6641TIP3   OH219928   6.109   1.876   4.533
 6641TIP3    H119929   6.199   1.872   4.501
 6641TIP3    H219930   6.077   1.786   4.528
 6642TIP3   OH219931   1.877   2.212   1.262
 6642TIP3    H119932   1.863   2.141   1.199
 6642TIP3    H219933   1.842   2.290   1.219
 6643TIP3   OH219934   5.118   5.521   3.073
 6643TIP3    H119935   5.134   5.444   3.128
 6643TIP3    H219936   5.081   5.586   3.132
 6644TIP3   OH219937   3.640   2.000   1.205
 6644TIP3    H119938   3.618   1.946   1.129
 6644TIP3    H219939   3.564   1.992   1.263
 6645TIP3   OH219940   1.461   3.624   2.897
 6645TIP3    H119941   1.509   3.567   2.837
 6645TIP3    H219942   1.369   3.605   2.881
   6.35296   5.98963   5.18718   0.00000   0.00000  -2.11766   0.00000  -2.11766  -2.99482
