Title
19927
    1ASP      N    1   0.820   0.521   5.017 -0.0786 -0.6227 -0.3184
    1ASP    HT1    2   0.910   0.572   5.005 -0.0564 -0.7511 -0.6941
    1ASP    HT2    3   0.756   0.553   4.942  1.8277 -0.6433 -2.0355
    1ASP    HT3    4   0.835   0.418   5.014  0.4890 -0.7429  2.9655
    1ASP     CA    5   0.760   0.558   5.147 -0.7395 -0.0773 -0.5117
    1ASP     HA    6   0.813   0.501   5.223 -1.5022 -3.2239 -2.2061
    1ASP     CB    7   0.775   0.713   5.152  0.0435  0.2757  0.4804
    1ASP    HB1    8   0.743   0.761   5.057  1.8303  0.5069 -0.0546
    1ASP    HB2    9   0.885   0.730   5.156  0.1428 -0.0108 -0.6465
    1ASP     CG   10   0.718   0.763   5.283 -0.6138  0.3044  0.1538
    1ASP    OD1   11   0.637   0.860   5.289  0.0719  0.3851 -0.0051
    1ASP    OD2   12   0.751   0.700   5.382 -0.7509 -0.9723 -0.4003
    1ASP      C   13   0.616   0.507   5.152 -0.2746  0.2305 -0.2912
    1ASP      O   14   0.560   0.486   5.047  0.2598 -0.2584  0.7509
    2ALA      N   15   0.549   0.502   5.270 -0.0988 -0.5196  0.6936
    2ALA     HN   16   0.588   0.534   5.356 -0.6590  1.0467  0.3970
    2ALA     CA   17   0.409   0.474   5.272 -0.6047  0.1223  0.4764
    2ALA     HA   18   0.397   0.383   5.216  1.7952  0.3418 -0.5202
    2ALA     CB   19   0.360   0.466   5.417  0.0432 -0.3344  0.2997
    2ALA    HB1   20   0.377   0.554   5.482  1.5323 -1.2054  1.1454
    2ALA    HB2   21   0.415   0.384   5.468 -0.6954 -0.0553  1.6061
    2ALA    HB3   22   0.252   0.444   5.430 -0.4424  1.6020 -0.2397
    2ALA      C   23   0.325   0.581   5.210 -0.4112 -0.4979 -0.5246
    2ALA      O   24   0.372   0.694   5.214 -0.0754 -0.1150 -0.4820
    3ASP      N   25   0.204   0.556   5.145 -0.0970 -0.0227 -0.3363
    3ASP     HN   26   0.168   0.463   5.152  2.2074 -0.9803 -0.2578
    3ASP     CA   27   0.116   0.660   5.090 -0.1626  0.4013 -0.0974
    3ASP     HA   28   0.179   0.726   5.032 -0.7857  1.1945  0.1068
    3ASP     CB   29  -0.003   0.602   5.003 -0.1063 -0.9101  0.3431
    3ASP    HB1   30  -0.079   0.678   4.975  2.5216  1.1408 -1.8513
    3ASP    HB2   31  -0.051   0.527   5.068  1.8504 -0.8032  2.0061
    3ASP     CG   32   0.034   0.532   4.875 -0.0326 -0.2349 -0.4146
    3ASP    OD1   33  -0.050   0.458   4.815  0.3553  0.0020 -0.0263
    3ASP    OD2   34   0.150   0.553   4.827 -0.3257 -0.8547 -0.0351
    3ASP      C   35   0.058   0.753   5.193 -1.1027 -1.5676  0.2117
    3ASP      O   36   0.029   0.711   5.306 -0.6974  0.3026 -0.0239
    4GLY      N   37   0.032   0.883   5.155 -0.3118 -0.1019  0.3461
    4GLY     HN   38   0.073   0.912   5.069 -3.1489 -1.5085 -1.6264
    4GLY     CA   39  -0.033   0.983   5.229 -0.2504 -0.1771  0.2607
    4GLY    HA1   40   0.038   1.057   5.264 -0.0645 -0.7694  1.1668
    4GLY    HA2   41  -0.069   0.933   5.317  2.0283 -0.4564  1.1068
    4GLY      C   42  -0.135   1.048   5.144 -0.2745  0.1658  0.1637
    4GLY      O   43  -0.110   1.133   5.064  0.7400 -0.1473 -0.4364
    5PRO      N   44  -0.269   1.005   5.164 -0.5513 -0.5745  0.3720
    5PRO     CD   45  -0.289   0.874   5.223 -0.3588  0.3849 -0.0368
    5PRO    HD1   46  -0.264   0.882   5.331  1.1832 -0.2174 -0.3264
    5PRO    HD2   47  -0.225   0.797   5.175 -1.5332  0.3986 -1.7029
    5PRO     CA   48  -0.384   1.054   5.100 -0.2066  0.0196 -0.1874
    5PRO     HA   49  -0.376   1.023   4.997 -0.6460  2.3678 -1.0130
    5PRO     CB   50  -0.501   0.986   5.178 -0.0184 -0.5615 -0.1822
    5PRO    HB1   51  -0.592   0.991   5.114 -0.3488 -1.4895  0.1926
    5PRO    HB2   52  -0.508   1.033   5.279  3.9623 -1.9803  0.9408
    5PRO     CG   53  -0.440   0.849   5.194 -0.2192 -0.0731 -0.5583
    5PRO    HG1   54  -0.499   0.782   5.259 -1.2580  1.4128  0.0912
    5PRO    HG2   55  -0.454   0.800   5.095 -0.4901 -1.8439  0.3218
    5PRO      C   56  -0.406   1.201   5.096  0.2082  0.4441  0.0789
    5PRO      O   57  -0.365   1.268   5.193 -0.0464 -0.3392  0.1687
    6GLY      N   58  -0.473   1.256   4.992 -0.1428  0.1093 -0.2828
    6GLY     HN   59  -0.511   1.197   4.921 -0.8497 -0.5631  0.6200
    6GLY     CA   60  -0.492   1.401   4.958 -0.4854 -0.4500 -0.5718
    6GLY    HA1   61  -0.539   1.398   4.860 -3.0129  2.4577  0.3874
    6GLY    HA2   62  -0.396   1.451   4.961 -0.7837  0.0978  1.6210
    6GLY      C   63  -0.582   1.480   5.056 -0.0305 -0.2790 -0.0048
    6GLY      O   64  -0.656   1.425   5.139 -0.6862 -0.3517 -0.5801
    7ASP      N   65  -0.573   1.611   5.048  0.1519  0.3485 -0.6174
    7ASP     HN   66  -0.510   1.654   4.984  0.0969  0.8881 -0.3143
    7ASP     CA   67  -0.632   1.700   5.140  0.3989  0.6227 -0.3077
    7ASP     HA   68  -0.574   1.679   5.229 -1.2528 -1.3786  0.3866
    7ASP     CB   69  -0.596   1.846   5.095  0.1909 -0.0337 -0.2155
    7ASP    HB1   70  -0.675   1.908   5.142  0.1037 -2.3355  3.0111
    7ASP    HB2   71  -0.600   1.860   4.985  1.5916  0.1881 -0.2608
    7ASP     CG   72  -0.464   1.902   5.152 -0.1248  0.2542 -0.3908
    7ASP    OD1   73  -0.449   2.031   5.155  0.3332  0.1486 -0.2172
    7ASP    OD2   74  -0.370   1.833   5.194  0.8423  0.2775 -0.1591
    7ASP      C   75  -0.783   1.694   5.160  0.1518 -0.5915  0.0827
    7ASP      O   76  -0.857   1.683   5.066 -0.1908 -0.4007  0.1732
    8PRO      N   77  -0.828   1.696   5.288  0.5126  0.4022  0.3848
    8PRO     CD   78  -0.739   1.674   5.404 -0.2448  0.7014  0.0030
    8PRO    HD1   79  -0.658   1.749   5.414  0.8175 -0.2002 -1.3348
    8PRO    HD2   80  -0.688   1.578   5.382  0.9590  1.6865 -1.8162
    8PRO     CA   81  -0.963   1.728   5.320  0.7140  0.0896  0.0073
    8PRO     HA   82  -1.020   1.638   5.298  1.2612 -0.2499 -0.0262
    8PRO     CB   83  -0.961   1.757   5.469  0.1215  0.6733  0.0294
    8PRO    HB1   84  -1.060   1.724   5.506  0.9865 -1.6458  0.4681
    8PRO    HB2   85  -0.949   1.867   5.483  0.9039  0.7727 -1.2276
    8PRO     CG   86  -0.842   1.672   5.513 -0.3158 -0.4163  0.0570
    8PRO    HG1   87  -0.792   1.711   5.605  1.1241  1.1539 -1.3295
    8PRO    HG2   88  -0.876   1.567   5.526  0.9063 -0.9751 -1.1655
    8PRO      C   89  -1.046   1.828   5.235  0.1126  0.6647 -0.1829
    8PRO      O   90  -1.001   1.937   5.214  0.1902 -0.2694 -0.0764
    9ASP      N   91  -1.170   1.792   5.197  0.5416 -0.3327  0.3888
    9ASP     HN   92  -1.219   1.720   5.246  1.8165 -1.2048  0.4259
    9ASP     CA   93  -1.259   1.854   5.097  0.1964 -0.4368  0.1635
    9ASP     HA   94  -1.204   1.842   5.004 -0.0334 -1.0611  0.1014
    9ASP     CB   95  -1.395   1.782   5.097 -0.2495  0.3051  0.1918
    9ASP    HB1   96  -1.466   1.834   5.029  0.0986 -0.4202 -0.7609
    9ASP    HB2   97  -1.444   1.790   5.196  0.6479 -0.3040  0.6894
    9ASP     CG   98  -1.388   1.642   5.052  0.6002  0.4840  0.1248
    9ASP    OD1   99  -1.492   1.571   5.070  0.5748 -0.1555  0.3199
    9ASP    OD2  100  -1.292   1.598   4.980  0.3245 -1.0903 -0.0319
    9ASP      C  101  -1.279   2.001   5.104 -0.7895 -0.5546 -0.6207
    9ASP      O  102  -1.279   2.061   5.215  0.5371 -0.4454  0.1933
   10ALA      N  103  -1.303   2.079   4.992  0.4188  0.4333  0.3464
   10ALA     HN  104  -1.304   2.035   4.902  3.1656  0.2544  0.3153
   10ALA     CA  105  -1.319   2.229   4.989 -0.4724  0.6820  0.0216
   10ALA     HA  106  -1.229   2.270   5.034  0.4509 -2.0030  0.8226
   10ALA     CB  107  -1.322   2.288   4.846 -0.4316  0.1119 -0.9842
   10ALA    HB1  108  -1.320   2.399   4.859  0.4408 -0.0651  0.6508
   10ALA    HB2  109  -1.416   2.273   4.789  0.0822 -1.7705 -1.4110
   10ALA    HB3  110  -1.232   2.261   4.786  0.5784  0.6772  0.2230
   10ALA      C  111  -1.432   2.284   5.072 -0.0781  0.4634 -1.4105
   10ALA      O  112  -1.531   2.222   5.105  0.1612 -0.0618  0.0633
   11GLY      N  113  -1.416   2.404   5.136 -0.2901  0.2550 -0.0153
   11GLY     HN  114  -1.351   2.477   5.116 -0.6057  0.5699  0.1050
   11GLY     CA  115  -1.513   2.450   5.235  0.2826 -0.2020  0.6330
   11GLY    HA1  116  -1.478   2.415   5.331  0.3185 -0.5197  0.5059
   11GLY    HA2  117  -1.613   2.417   5.213  0.2679  0.4339 -0.3079
   11GLY      C  118  -1.508   2.603   5.246  0.3645  0.4306  0.0360
   11GLY    OT1  119  -1.512   2.678   5.146  0.6930  0.3436 -0.7305
   11GLY    OT2  120  -1.513   2.648   5.362  0.1344  0.2844 -0.0412
   12SOD    SOD  121   0.800   3.481   3.092 -0.0545  0.3608 -0.3240
   13SOD    SOD  122   2.128   1.474   2.145  0.1077 -0.0432  0.1715
   14SOD    SOD  123   0.076   1.409   3.720 -0.6020 -0.0592  0.0885
   15SOD    SOD  124   5.612   3.774   0.050  0.5303  0.2574  0.2706
   16SOD    SOD  125   0.174   0.096   0.501 -0.9506  0.2160 -0.0567
   17SOD    SOD  126   5.588   4.621   3.414  0.6926 -0.2545  0.0294
   18SOD    SOD  127   5.215   2.653   1.729  0.1101 -0.2197  0.3337
   19SOD    SOD  128   4.117   3.505   4.845  0.3552 -0.0241 -0.4288
   20SOD    SOD  129   4.108   3.376   3.469 -0.2377 -0.3232  0.0450
   21SOD    SOD  130   5.268   2.801   4.948 -0.3879 -0.1110  0.1120
   22SOD    SOD  131   1.393   2.348   5.151 -0.1149 -0.1799  0.0424
   23SOD    SOD  132   5.158   5.685   3.003 -0.4678  0.2918 -0.3560
   24SOD    SOD  133   2.177   1.334   0.465  0.7194 -0.2558 -0.0767
   25SOD    SOD  134   2.493   4.978   1.801  0.4706 -0.4733 -0.4820
   26SOD    SOD  135   4.631   2.104   5.008  0.0649 -0.1604  0.0152
   27SOD    SOD  136   3.656   2.278   4.534  0.3842 -0.1752  0.1994
   28SOD    SOD  137   6.306   2.412   3.910  0.1917  0.0393  0.0119
   29SOD    SOD  138   5.579   1.076   1.107 -0.0518  0.5385 -0.2969
   30SOD    SOD  139   2.101   1.018   4.015  0.0011 -0.9578 -0.3143
   31SOD    SOD  140   0.490   3.266   1.479  0.4390 -0.2046 -0.7267
   32SOD    SOD  141   1.938   4.384   0.570  0.3198  0.1315 -0.0155
   33SOD    SOD  142   3.752   3.758   0.963 -0.7656 -0.1905  0.0151
   34CLA    CLA  143   1.352   3.106   3.814  0.0391 -0.1275  0.2424
   35CLA    CLA  144   0.133   3.572   1.685  0.0271  0.7600 -0.1395
   36CLA    CLA  145   5.659   4.864   2.356  0.4050  0.0287 -0.1391
   37CLA    CLA  146   2.891   2.061   0.739 -0.0912 -0.2802  0.1236
   38CLA    CLA  147   5.861   1.378   3.358  0.1304 -0.5363 -0.3170
   39CLA    CLA  148   2.947   2.715   2.985 -0.2298 -0.2592 -0.1152
   40CLA    CLA  149   0.072   3.083   2.467 -0.1067 -0.0393  0.1430
   41CLA    CLA  150   5.592   0.842   1.612  0.1915 -0.1185  0.2071
   42CLA    CLA  151   2.050   3.782   4.216  0.0878  0.5148 -0.2785
   43CLA    CLA  152   1.039   0.042   2.677 -0.5398  0.0944  0.2649
   44CLA    CLA  153   1.980   5.825   4.756  0.0382  0.4756 -0.2746
   45CLA    CLA  154   3.392   2.652   4.330  0.2918  0.0137  0.2008
   46CLA    CLA  155   5.915   5.507   1.378 -0.0282 -0.1246 -0.5184
   47CLA    CLA  156   4.943   2.796   3.413  0.0378  0.1022 -0.1403
   48CLA    CLA  157   6.244   0.223   3.332  0.0449  0.2743  0.1575
   49CLA    CLA  158   0.344   4.328   4.698 -0.0212  0.1001  0.1278
   50CLA    CLA  159   3.845   3.086   4.635  0.3630 -0.1664  0.0298
   51CLA    CLA  160   2.464   4.467   1.883  0.1714 -0.3672 -0.2734
   52TIP3   OH2  161   5.472   3.300   2.315  0.2049  1.3751  0.1218
   52TIP3    H1  162   5.429   3.216   2.332  0.3262  1.4325  0.7404
   52TIP3    H2  163   5.454   3.352   2.393  0.5165  1.7644 -0.0638
   53TIP3   OH2  164   1.052   5.559   1.801 -0.3859 -0.1607 -0.1845
   53TIP3    H1  165   0.982   5.611   1.761 -1.2425 -0.0172  1.3914
   53TIP3    H2  166   1.041   5.471   1.764 -0.3413  0.2431 -1.1850
   54TIP3   OH2  167   5.024   4.671   1.237 -0.5061  0.1226 -0.0269
   54TIP3    H1  168   5.111   4.706   1.220 -0.6665  1.0392  0.9596
   54TIP3    H2  169   5.030   4.631   1.324 -1.1227  0.3697  0.1361
   55TIP3   OH2  170   5.835   2.933   4.690 -0.1947 -0.3128 -0.2819
   55TIP3    H1  171   5.762   2.988   4.662 -0.1989 -0.4572 -0.5574
   55TIP3    H2  172   5.870   2.897   4.609 -0.1902 -0.7142 -0.1037
   56TIP3   OH2  173   4.915   1.368   3.419 -0.7438  0.3722 -0.0950
   56TIP3    H1  174   4.942   1.460   3.414 -3.2513  1.2090  0.1257
   56TIP3    H2  175   4.997   1.318   3.415  1.0564  2.6706  3.0094
   57TIP3   OH2  176   6.134   4.795   1.055 -0.2999  0.4736  0.3036
   57TIP3    H1  177   6.147   4.807   0.961 -1.0635 -0.4923  0.0509
   57TIP3    H2  178   6.124   4.700   1.065 -1.1880  0.6506  1.2259
   58TIP3   OH2  179   5.600   0.886   3.218  0.3422 -0.1139 -0.0152
   58TIP3    H1  180   5.573   0.891   3.309 -0.3404 -1.1253 -0.1473
   58TIP3    H2  181   5.547   0.816   3.180  1.7783 -0.8507 -0.7707
   59TIP3   OH2  182   3.933   0.961   2.618 -0.1870  0.5568 -0.2339
   59TIP3    H1  183   4.012   1.008   2.645  0.4421 -0.3767 -0.4179
   59TIP3    H2  184   3.946   0.872   2.650 -2.6524  1.0982  2.7217
   60TIP3   OH2  185   2.694   4.244   3.782  0.2030  0.2252 -0.3048
   60TIP3    H1  186   2.748   4.294   3.843  1.0708 -0.7159 -0.2823
   60TIP3    H2  187   2.753   4.221   3.711  0.3161 -2.2896  0.5324
   61TIP3   OH2  188   6.072   0.177   0.814  0.1394  0.3620  0.1526
   61TIP3    H1  189   6.020   0.218   0.883  0.5786  0.1180  0.6340
   61TIP3    H2  190   6.159   0.168   0.852  0.7142  1.3397 -0.8586
   62TIP3   OH2  191   4.734   5.158   4.733  0.1352  0.2426 -0.4236
   62TIP3    H1  192   4.723   5.206   4.651 -0.4685  1.0015  0.0982
   62TIP3    H2  193   4.828   5.162   4.751  0.0911  1.2412 -0.3836
   63TIP3   OH2  194   6.346   1.130   2.801  0.3679  0.9540  0.3144
   63TIP3    H1  195   6.285   1.106   2.871  0.6843  2.8473  1.3000
   63TIP3    H2  196   6.330   1.223   2.785  0.4695  0.6310 -2.0129
   64TIP3   OH2  197   2.170   4.116   3.476  0.0578  0.5252  0.1956
   64TIP3    H1  198   2.238   4.182   3.485 -0.8847  1.5162  0.2375
   64TIP3    H2  199   2.144   4.095   3.565  0.1785  0.2779  0.1743
   65TIP3   OH2  200   3.467   3.004   1.715 -0.0017 -0.1331 -0.4513
   65TIP3    H1  201   3.508   3.042   1.637  2.1031 -0.5354  0.3973
   65TIP3    H2  202   3.437   3.080   1.765  2.6656  0.4224  0.4276
   66TIP3   OH2  203   1.568   1.546   3.481 -0.0689 -0.3765  0.3852
   66TIP3    H1  204   1.604   1.466   3.519 -0.7484  0.2259  2.4014
   66TIP3    H2  205   1.624   1.616   3.515 -0.3332  0.1487 -0.2354
   67TIP3   OH2  206   3.984   4.144   0.180  0.6132 -0.2920  0.4654
   67TIP3    H1  207   3.909   4.120   0.126 -0.0770  1.2633  0.6746
   67TIP3    H2  208   4.046   4.184   0.119  0.6608 -0.2917  0.5133
   68TIP3   OH2  209   2.857   4.043   2.297  0.7905  0.1931  0.4229
   68TIP3    H1  210   2.791   4.110   2.284 -0.2728 -0.6563  1.2370
   68TIP3    H2  211   2.807   3.964   2.320  2.0491 -0.6134  0.5032
   69TIP3   OH2  212   4.343   5.191   3.572  0.0843  0.5967  0.0226
   69TIP3    H1  213   4.349   5.095   3.570  0.3188  0.6203 -0.8275
   69TIP3    H2  214   4.285   5.213   3.499  2.3082  1.2411 -1.6757
   70TIP3   OH2  215   0.483   5.907   0.046 -0.3345 -0.4410  0.5190
   70TIP3    H1  216   0.449   5.886   0.133 -0.4064 -0.0715  0.5820
   70TIP3    H2  217   0.523   5.826   0.015  0.2753 -0.3972  1.1738
   71TIP3   OH2  218   0.378   0.791   2.870 -0.3276  0.3328  0.0598
   71TIP3    H1  219   0.464   0.799   2.831  0.2249 -1.9709  0.6506
   71TIP3    H2  220   0.323   0.852   2.821  1.4996  1.4572 -0.6701
   72TIP3   OH2  221   4.151   1.963   0.857  0.1530 -0.3697  0.1368
   72TIP3    H1  222   4.159   1.998   0.946 -1.3552  0.6716 -0.1078
   72TIP3    H2  223   4.065   1.920   0.856  0.1453 -0.3426 -0.8300
   73TIP3   OH2  224   5.322   3.144   3.395 -0.5553  0.2660 -0.3348
   73TIP3    H1  225   5.407   3.185   3.405 -1.7475  3.1180 -0.9064
   73TIP3    H2  226   5.328   3.095   3.313  0.5783  0.2129 -0.2327
   74TIP3   OH2  227   1.982   4.169   0.608  0.4911  0.8373  0.0278
   74TIP3    H1  228   1.978   4.121   0.526  0.2364  0.9582 -0.0309
   74TIP3    H2  229   1.948   4.108   0.673  1.6079  0.3828  0.2146
   75TIP3   OH2  230   6.368  -0.006   3.596 -0.2167 -0.0802  0.1017
   75TIP3    H1  231   6.279   0.016   3.625  0.1144  0.6733  0.5903
   75TIP3    H2  232   6.364  -0.002   3.501 -0.7189 -0.0999  0.1162
   76TIP3   OH2  233   0.039   5.596   1.732  0.2513  0.3982  0.2661
   76TIP3    H1  234  -0.046   5.629   1.704  0.1609  0.7196  0.9018
   76TIP3    H2  235   0.086   5.674   1.763  0.3484  0.0609  0.9828
   77TIP3   OH2  236   5.038   4.904   1.098  0.0803  0.6010 -0.1331
   77TIP3    H1  237   5.131   4.885   1.086  0.2841  0.3729  1.5859
   77TIP3    H2  238   5.007   4.836   1.158 -1.1274  0.8825 -0.3984
   78TIP3   OH2  239   3.007   5.051   4.755 -0.5857  0.0485  0.3696
   78TIP3    H1  240   3.081   5.031   4.698  1.7406  1.5799  2.6689
   78TIP3    H2  241   2.978   4.966   4.788 -1.3931 -0.7821 -2.2291
   79TIP3   OH2  242   6.237   5.978   3.213 -0.1133  0.2084  0.3136
   79TIP3    H1  243   6.210   5.966   3.304  1.0959  0.3340  0.6974
   79TIP3    H2  244   6.297   5.906   3.196 -0.0187  0.4168 -0.2667
   80TIP3   OH2  245   6.110   3.103   3.156 -0.0297  0.2832 -0.4516
   80TIP3    H1  246   6.153   3.184   3.129  1.7569  0.3090  2.1874
   80TIP3    H2  247   6.171   3.034   3.130 -1.1311 -0.2257 -1.8608
   81TIP3   OH2  248   0.225   3.775   0.549 -0.3543 -0.0734  0.0482
   81TIP3    H1  249   0.147   3.772   0.494 -0.8295 -0.9326  0.7340
   81TIP3    H2  250   0.288   3.718   0.504 -0.3307  0.1398 -0.1917
   82TIP3   OH2  251   4.949   5.943   0.796 -0.1405 -0.4531  0.4962
   82TIP3    H1  252   4.970   5.987   0.878 -2.3437 -1.0605  1.4593
   82TIP3    H2  253   5.015   5.874   0.788 -0.5677 -1.1512  2.4105
   83TIP3   OH2  254   5.664   0.600   3.096 -0.3847  0.6345 -0.0544
   83TIP3    H1  255   5.687   0.525   3.041  0.9127 -0.2090  1.5329
   83TIP3    H2  256   5.603   0.564   3.161 -1.1710  1.3877 -0.3593
   84TIP3   OH2  257   0.159   0.294   5.144 -0.3041 -0.5504  0.3554
   84TIP3    H1  258   0.133   0.293   5.236 -0.2850 -2.2593  0.3748
   84TIP3    H2  259   0.086   0.254   5.098 -0.5684  0.8285 -0.4805
   85TIP3   OH2  260   3.544   5.752   1.373  0.3939  0.0111  0.1482
   85TIP3    H1  261   3.524   5.774   1.282  2.0817  0.6700 -0.1031
   85TIP3    H2  262   3.539   5.835   1.420 -2.2063 -0.5777  1.0670
   86TIP3   OH2  263   5.588   2.370   0.157 -0.5010  0.2236 -0.1014
   86TIP3    H1  264   5.659   2.432   0.146 -0.3487 -0.3072 -2.9530
   86TIP3    H2  265   5.519   2.419   0.200 -0.4225  2.4764 -2.3305
   87TIP3   OH2  266   2.577   0.581   0.067 -0.0201 -0.5154 -0.3592
   87TIP3    H1  267   2.601   0.653   0.009  1.2424 -1.4937 -1.1087
   87TIP3    H2  268   2.514   0.619   0.128 -0.2698  0.9147 -1.4572
   88TIP3   OH2  269   3.625   1.231   2.006 -0.0344  0.0599 -0.5163
   88TIP3    H1  270   3.652   1.238   2.098  0.9349 -1.6882 -0.6112
   88TIP3    H2  271   3.621   1.321   1.975 -0.9153  0.7288  1.3818
   89TIP3   OH2  272   4.450   4.913   0.567 -0.1450 -0.0437 -0.4064
   89TIP3    H1  273   4.371   4.948   0.527 -0.4280  0.9108  0.9016
   89TIP3    H2  274   4.521   4.960   0.523 -0.4432  0.8956  0.0810
   90TIP3   OH2  275   1.767   1.756   0.326 -0.3369  0.0002  0.1885
   90TIP3    H1  276   1.823   1.795   0.394 -0.8504  0.0989  0.5576
   90TIP3    H2  277   1.829   1.722   0.261  0.3336 -2.6951  2.0622
   91TIP3   OH2  278   6.014   0.928   0.972 -0.0610  0.3122  0.5058
   91TIP3    H1  279   5.962   0.939   0.892  1.9142  1.6769 -0.6847
   91TIP3    H2  280   5.991   0.840   1.004  0.3330 -1.0303 -2.5495
   92TIP3   OH2  281   0.615   3.960   3.496  0.2306  0.7593  0.7913
   92TIP3    H1  282   0.594   3.868   3.509  0.4397  0.5257 -0.4258
   92TIP3    H2  283   0.557   3.989   3.427 -0.0742  1.6479  1.4009
   93TIP3   OH2  284   3.661   3.230   2.109 -0.5814  0.3737  0.3542
   93TIP3    H1  285   3.634   3.196   2.195  0.1892 -0.9487  0.1117
   93TIP3    H2  286   3.687   3.151   2.060  0.5270  1.2643 -0.5325
   94TIP3   OH2  287   1.816   3.013   0.863  0.0405 -0.5389  0.5518
   94TIP3    H1  288   1.777   3.001   0.776  0.4334  1.0265  0.1226
   94TIP3    H2  289   1.802   2.930   0.907  1.3628 -2.0062 -1.6232
   95TIP3   OH2  290   1.885   1.478   1.713 -0.4337 -0.0436 -0.1953
   95TIP3    H1  291   1.861   1.570   1.722 -0.3881  0.0102 -0.6100
   95TIP3    H2  292   1.881   1.443   1.802  1.3715  0.7985  0.2592
   96TIP3   OH2  293   1.063   3.731   3.721  1.1880  0.5203  0.3020
   96TIP3    H1  294   1.152   3.707   3.748  1.0119  0.4697  0.8621
   96TIP3    H2  295   1.016   3.648   3.717  1.6258  0.3244 -1.8344
   97TIP3   OH2  296   1.174   1.151   1.902 -0.4295  0.5523  0.1869
   97TIP3    H1  297   1.226   1.083   1.945 -0.2222  1.3932  1.3321
   97TIP3    H2  298   1.101   1.104   1.863  0.2260 -0.4375  0.1023
   98TIP3   OH2  299   1.890   1.023   4.104  0.1348 -0.0104  0.3907
   98TIP3    H1  300   1.829   0.953   4.130  1.7023 -1.9035 -0.7512
   98TIP3    H2  301   1.902   1.075   4.183 -0.4725 -1.5049  1.5207
   99TIP3   OH2  302   2.264   1.337   3.867 -0.0038  0.2779  0.6832
   99TIP3    H1  303   2.355   1.343   3.838 -0.4989  0.6677 -0.8655
   99TIP3    H2  304   2.244   1.424   3.901  0.1157  0.2692  0.7778
  100TIP3   OH2  305   2.365   4.402   4.870 -0.8727  0.3889 -0.0766
  100TIP3    H1  306   2.316   4.440   4.797  0.0682  0.2998 -0.7878
  100TIP3    H2  307   2.373   4.310   4.847 -0.9757  0.2662  0.3802
  101TIP3   OH2  308   3.255   3.955   2.190 -0.5478 -0.1995  0.2327
  101TIP3    H1  309   3.171   3.995   2.168 -1.1190 -1.3208  0.3013
  101TIP3    H2  310   3.257   3.955   2.286 -0.7558 -0.7344  0.2401
  102TIP3   OH2  311   0.523   0.689   1.396  0.5866 -0.4342 -0.4607
  102TIP3    H1  312   0.504   0.755   1.463  3.0005  0.9854 -1.0407
  102TIP3    H2  313   0.455   0.623   1.407 -0.2379  0.7147  2.0892
  103TIP3   OH2  314   1.643   1.281   4.719  0.2536  0.2651  0.2897
  103TIP3    H1  315   1.575   1.249   4.778  0.6961  0.9660  1.2092
  103TIP3    H2  316   1.600   1.349   4.668  0.0894  0.2641  0.4250
  104TIP3   OH2  317   5.642   4.520   0.224  0.3816 -0.0128  0.4255
  104TIP3    H1  318   5.610   4.610   0.216  1.8837  0.5571  0.4658
  104TIP3    H2  319   5.721   4.527   0.278  1.4162 -1.1354 -0.8641
  105TIP3   OH2  320   2.494   3.849   1.476  0.0784  0.4932 -0.1028
  105TIP3    H1  321   2.566   3.860   1.538  0.8205 -1.4427 -0.5500
  105TIP3    H2  322   2.443   3.776   1.511  0.6559 -0.8046 -1.8417
  106TIP3   OH2  323   5.770   5.217   4.623  1.0839  0.4027  0.2935
  106TIP3    H1  324   5.731   5.304   4.636  2.3073  0.9328  0.5292
  106TIP3    H2  325   5.753   5.198   4.530 -1.5148 -0.3232  0.8218
  107TIP3   OH2  326   2.229   5.194   2.539 -0.2277  0.1271 -0.4686
  107TIP3    H1  327   2.280   5.120   2.572 -0.3147  0.7475  1.1855
  107TIP3    H2  328   2.290   5.268   2.540 -0.7587  0.5695  0.1619
  108TIP3   OH2  329   2.544   3.440   3.697  0.1876  0.2769  0.6404
  108TIP3    H1  330   2.583   3.382   3.631 -0.1764  0.5905  0.1437
  108TIP3    H2  331   2.582   3.526   3.678  1.7577 -0.0109  2.2091
  109TIP3   OH2  332   0.627   3.451   3.725 -0.3605  0.3499  0.5504
  109TIP3    H1  333   0.598   3.373   3.680 -1.2581  0.9932 -0.0053
  109TIP3    H2  334   0.658   3.420   3.810  0.8297 -0.7982 -0.2615
  110TIP3   OH2  335   4.055   1.988   3.891  0.3775 -0.2386  0.0398
  110TIP3    H1  336   4.132   1.953   3.848  0.8727 -0.0923  0.7805
  110TIP3    H2  337   4.050   2.079   3.862  0.5849 -0.2013  0.1211
  111TIP3   OH2  338   2.812   1.204   3.824  0.2830 -0.2565 -0.0887
  111TIP3    H1  339   2.877   1.181   3.757  0.2616 -0.7058  0.0440
  111TIP3    H2  340   2.853   1.180   3.907  1.7045  3.2866  0.4239
  112TIP3   OH2  341   0.411   4.284   1.635 -0.1650 -0.1764 -0.5047
  112TIP3    H1  342   0.346   4.223   1.669 -0.6608 -0.1577 -1.3988
  112TIP3    H2  343   0.429   4.343   1.709  1.8694 -2.5836  1.0651
  113TIP3   OH2  344   3.243   5.232   2.686  0.0918  0.1563 -0.2212
  113TIP3    H1  345   3.297   5.311   2.674  0.8561 -0.3462 -0.1102
  113TIP3    H2  346   3.264   5.177   2.611 -0.4029  0.0283 -0.2691
  114TIP3   OH2  347   0.913   1.676   0.071  0.8387  0.0972  0.1942
  114TIP3    H1  348   0.991   1.648   0.119  0.8100 -1.6362 -0.7073
  114TIP3    H2  349   0.947   1.723  -0.005  1.0198 -0.5075 -0.1069
  115TIP3   OH2  350   4.198   3.103   3.920  0.2048 -0.6208 -0.4619
  115TIP3    H1  351   4.142   3.086   3.845 -0.5070  2.1633 -0.6504
  115TIP3    H2  352   4.277   3.143   3.883  0.1528  0.1161  0.1975
  116TIP3   OH2  353   4.856   2.809   0.919  0.2969  0.3622  0.0748
  116TIP3    H1  354   4.785   2.812   0.855 -1.6689  0.2442  2.1182
  116TIP3    H2  355   4.897   2.724   0.907 -2.3600 -1.2047  1.2174
  117TIP3   OH2  356   4.116   3.889   2.284  0.4714  0.0227  0.0432
  117TIP3    H1  357   4.125   3.793   2.291 -0.4599 -0.3863 -3.1967
  117TIP3    H2  358   4.027   3.907   2.314  0.1771 -0.2975 -0.6382
  118TIP3   OH2  359   1.710   5.225   0.422  0.0730  0.6953 -0.6105
  118TIP3    H1  360   1.740   5.293   0.361 -0.9926 -0.3843 -2.4190
  118TIP3    H2  361   1.664   5.162   0.367  1.4211 -1.7880  0.9179
  119TIP3   OH2  362   6.149   4.416   3.510 -0.2559  0.0201  0.0779
  119TIP3    H1  363   6.217   4.479   3.484 -0.6565  1.0287  1.3557
  119TIP3    H2  364   6.141   4.357   3.435  1.2889  0.5100 -0.5091
  120TIP3   OH2  365   1.911   2.410   2.946  0.1275  0.5187 -0.1819
  120TIP3    H1  366   2.001   2.397   2.976  0.2240 -0.0324 -0.6893
  120TIP3    H2  367   1.857   2.367   3.013  0.1670  1.6918  0.6387
  121TIP3   OH2  368   2.226   0.108   0.982  0.0604  0.0010  0.2404
  121TIP3    H1  369   2.239   0.202   0.966 -0.7563 -0.0241 -0.7020
  121TIP3    H2  370   2.142   0.104   1.029 -0.7612 -0.3300 -1.1824
  122TIP3   OH2  371   1.162   1.103   5.027  0.0160 -0.1897  0.1231
  122TIP3    H1  372   1.179   1.128   4.937  0.0265  0.0328  0.1860
  122TIP3    H2  373   1.141   1.185   5.072 -0.3980 -0.3500  0.2326
  123TIP3   OH2  374   4.711   3.195   1.564  0.0032  0.4349  0.2727
  123TIP3    H1  375   4.617   3.179   1.554  0.3837 -0.8652 -1.8809
  123TIP3    H2  376   4.724   3.282   1.527 -0.3365  0.5999  0.5319
  124TIP3   OH2  377   3.137   5.747   4.251 -0.3376 -0.3017  0.8482
  124TIP3    H1  378   3.064   5.764   4.191  1.4925 -2.2242 -2.2447
  124TIP3    H2  379   3.192   5.826   4.244 -1.0398  0.2557  1.4982
  125TIP3   OH2  380   3.617   5.492   1.969  0.0804  0.0748 -0.5328
  125TIP3    H1  381   3.647   5.410   1.929  0.2445  0.7048 -1.7744
  125TIP3    H2  382   3.522   5.485   1.969  0.1177 -0.5991  0.4697
  126TIP3   OH2  383   0.590   5.970   4.910 -0.0998  0.5333 -0.1960
  126TIP3    H1  384   0.601   5.876   4.893 -0.5773  0.6532 -1.2388
  126TIP3    H2  385   0.556   5.974   4.999  1.1672 -0.2088  0.3493
  127TIP3   OH2  386   0.439   0.799   1.061 -0.2947  0.1172 -0.4625
  127TIP3    H1  387   0.507   0.775   0.998  0.4991  0.4398  0.2346
  127TIP3    H2  388   0.464   0.888   1.089 -1.4897  0.5825 -0.8188
  128TIP3   OH2  389   6.044   4.017   0.162 -0.7358  0.0882 -0.2722
  128TIP3    H1  390   6.132   4.052   0.147  0.0884 -0.9834  1.7208
  128TIP3    H2  391   6.027   3.962   0.085  0.8747 -0.6530 -0.1435
  129TIP3   OH2  392   4.479   1.329   1.577 -0.3283  0.3889  0.0567
  129TIP3    H1  393   4.459   1.258   1.639 -1.4980  0.7232  0.0942
  129TIP3    H2  394   4.559   1.301   1.534 -1.1623 -1.3512 -0.4775
  130TIP3   OH2  395   1.751   0.344   4.745 -0.3448  0.1400 -0.0086
  130TIP3    H1  396   1.726   0.252   4.732 -3.0135  0.7009  0.6185
  130TIP3    H2  397   1.750   0.356   4.840  0.3756  0.7430 -0.0711
  131TIP3   OH2  398   3.538   1.123   5.001  0.0649  0.0619 -0.2455
  131TIP3    H1  399   3.451   1.105   4.966  0.0067 -2.9081  1.0770
  131TIP3    H2  400   3.592   1.142   4.924 -1.2671 -0.3847 -1.3174
  132TIP3   OH2  401   2.561   2.225   4.852 -0.2925 -0.4053 -0.0888
  132TIP3    H1  402   2.645   2.179   4.858  0.3881  0.7726 -0.2368
  132TIP3    H2  403   2.503   2.176   4.911  0.3225 -1.5732 -0.4039
  133TIP3   OH2  404   0.070   4.638   1.125 -0.1604  0.0749  0.3279
  133TIP3    H1  405   0.158   4.607   1.146  0.3055  0.6079 -0.7771
  133TIP3    H2  406   0.059   4.616   1.032 -1.7155 -1.2136  0.7751
  134TIP3   OH2  407   3.508   0.059   4.746  0.7367 -0.3151 -0.1544
  134TIP3    H1  408   3.595   0.028   4.718  0.3493 -0.7392 -0.9239
  134TIP3    H2  409   3.467   0.091   4.666 -0.2420 -1.1680 -0.0223
  135TIP3   OH2  410   0.623   3.615   1.916  0.4247  0.0446  0.2163
  135TIP3    H1  411   0.572   3.650   1.843  1.4882 -0.0023 -0.5745
  135TIP3    H2  412   0.670   3.691   1.950  0.5022 -0.0690  0.3622
  136TIP3   OH2  413   0.384   1.518   3.316 -0.3318 -0.3966 -0.1603
  136TIP3    H1  414   0.408   1.595   3.265 -0.3178 -1.1710 -1.3748
  136TIP3    H2  415   0.294   1.498   3.288 -0.6791 -0.2783  0.8384
  137TIP3   OH2  416   1.463   1.779   1.786 -0.1244 -0.3806  0.0563
  137TIP3    H1  417   1.499   1.823   1.710 -1.0042 -1.1831 -0.8602
  137TIP3    H2  418   1.399   1.840   1.821  0.8724  0.3381  0.6737
  138TIP3   OH2  419   2.239   4.306   2.722  0.5264 -0.1487 -0.3690
  138TIP3    H1  420   2.162   4.277   2.770 -0.4000 -1.0586 -2.2786
  138TIP3    H2  421   2.304   4.237   2.736  1.5359  1.2179  2.2764
  139TIP3   OH2  422   5.773   0.148   0.485  0.4120  0.7581 -0.0438
  139TIP3    H1  423   5.696   0.171   0.536  0.8260  0.5106  0.7072
  139TIP3    H2  424   5.842   0.206   0.518  0.9269 -0.0741  0.3771
  140TIP3   OH2  425   2.951   3.168   1.551  0.1358 -0.0617  0.2949
  140TIP3    H1  426   2.910   3.100   1.497  1.4831 -0.7639  0.0873
  140TIP3    H2  427   3.045   3.155   1.536  0.4361  1.5902  0.5852
  141TIP3   OH2  428   4.904   4.364   1.111 -0.0304  0.3420 -0.2188
  141TIP3    H1  429   4.873   4.441   1.159  0.1965  0.1385  0.2611
  141TIP3    H2  430   4.989   4.391   1.075 -0.2274  0.5140 -0.5604
  142TIP3   OH2  431   4.355   1.921   0.672  0.0854  0.0041  0.1384
  142TIP3    H1  432   4.354   1.828   0.651  0.1921  0.2647 -1.0987
  142TIP3    H2  433   4.280   1.933   0.731  0.6103 -1.0029  1.0377
  143TIP3   OH2  434   0.560   4.004   0.441 -0.1901  0.5734  0.1681
  143TIP3    H1  435   0.544   3.922   0.393 -0.8835 -0.1420  1.5619
  143TIP3    H2  436   0.472   4.039   0.458  0.1064  1.9718 -0.9596
  144TIP3   OH2  437   3.656   0.981   3.010 -0.2101  0.7212  0.2456
  144TIP3    H1  438   3.727   1.012   2.953  0.0726  1.5292  1.0246
  144TIP3    H2  439   3.689   0.899   3.047  0.6669  1.5115  1.2472
  145TIP3   OH2  440   2.472   5.138   0.529 -0.2817 -0.2599  0.1453
  145TIP3    H1  441   2.433   5.153   0.443 -0.4294 -0.0092  0.2568
  145TIP3    H2  442   2.494   5.045   0.529 -0.9389 -0.4187  0.1050
  146TIP3   OH2  443   5.150   2.371   3.729  0.2957 -0.4319 -0.2057
  146TIP3    H1  444   5.203   2.362   3.649  0.4092  0.0069 -0.1790
  146TIP3    H2  445   5.134   2.281   3.757  1.9811 -0.5649  0.4251
  147TIP3   OH2  446   3.787   1.115   4.156 -0.1431 -0.0501 -0.0500
  147TIP3    H1  447   3.847   1.183   4.183 -1.0740  0.3357  1.1425
  147TIP3    H2  448   3.838   1.034   4.162 -0.1206  0.0696  2.4530
  148TIP3   OH2  449   3.089   2.852   3.839  0.5507 -0.3514  0.3563
  148TIP3    H1  450   3.124   2.920   3.781 -0.6597  0.7505  0.8722
  148TIP3    H2  451   3.166   2.807   3.873  1.3511  0.2950 -0.5547
  149TIP3   OH2  452   0.808   4.420   3.927  0.4215 -0.2971  0.4886
  149TIP3    H1  453   0.842   4.330   3.923  1.5521  0.0766  1.3582
  149TIP3    H2  454   0.856   4.461   3.999 -0.1828  0.9774  0.1909
  150TIP3   OH2  455   4.066   4.079   1.817 -0.3587 -0.0913  0.4473
  150TIP3    H1  456   4.069   4.170   1.844 -0.4419 -0.1224  0.5586
  150TIP3    H2  457   4.041   4.082   1.724 -1.0097 -0.0343  0.6257
  151TIP3   OH2  458   1.021   3.922   2.184 -0.6012 -0.4289  0.5620
  151TIP3    H1  459   0.992   3.964   2.265 -0.7931 -1.4099  1.0242
  151TIP3    H2  460   1.059   3.839   2.213 -0.3574 -0.6353 -0.3270
  152TIP3   OH2  461   1.904   3.907   3.482 -0.8175 -0.6440  0.0652
  152TIP3    H1  462   1.839   3.905   3.552 -0.3347 -0.2386  0.5325
  152TIP3    H2  463   1.877   3.837   3.423 -0.5308 -1.8460  1.2927
  153TIP3   OH2  464   2.642   0.510   3.381 -0.0466 -0.7092 -0.0723
  153TIP3    H1  465   2.619   0.420   3.359 -0.6453 -0.7461  0.6866
  153TIP3    H2  466   2.606   0.524   3.468  0.9872 -0.0783  0.2796
  154TIP3   OH2  467   5.256   2.052   2.048  0.0982 -0.1508  0.2336
  154TIP3    H1  468   5.286   2.114   2.115  1.3465  0.6145 -0.9608
  154TIP3    H2  469   5.178   2.093   2.010 -2.2874 -1.8507  2.9331
  155TIP3   OH2  470   6.346   3.856   3.861  0.5465  0.3449  0.2522
  155TIP3    H1  471   6.251   3.848   3.848  0.6809 -0.1806 -0.4905
  155TIP3    H2  472   6.370   3.936   3.815  0.5570  0.1130 -0.1565
  156TIP3   OH2  473   2.695   5.090   2.686 -0.0697  0.1948 -0.0205
  156TIP3    H1  474   2.774   5.131   2.651 -0.1237 -0.7145 -1.2645
  156TIP3    H2  475   2.675   5.020   2.624 -2.1449  0.7316 -0.0245
  157TIP3   OH2  476   1.296   1.725   2.769  0.3091  0.2080  0.1945
  157TIP3    H1  477   1.205   1.723   2.797 -0.3780 -0.9254 -1.8788
  157TIP3    H2  478   1.339   1.657   2.821 -0.3746 -0.2547  0.1686
  158TIP3   OH2  479   2.382   0.332   2.275  0.3180 -0.4780  0.0024
  158TIP3    H1  480   2.313   0.267   2.262  0.9987 -0.8304 -2.2383
  158TIP3    H2  481   2.403   0.325   2.368 -0.9104 -2.1307  0.2184
  159TIP3   OH2  482   4.857   3.268   2.170 -0.0370  0.1666  0.5279
  159TIP3    H1  483   4.784   3.303   2.120 -0.7567 -0.8868  0.8071
  159TIP3    H2  484   4.895   3.344   2.214 -0.3304  0.8746 -0.4129
  160TIP3   OH2  485   3.744   0.848   1.853  0.0060  0.9296 -0.7097
  160TIP3    H1  486   3.708   0.926   1.813 -2.4034  1.1447  1.6130
  160TIP3    H2  487   3.668   0.793   1.874  1.5711 -1.8744 -1.8203
  161TIP3   OH2  488   3.356   3.392   2.592  0.7214 -0.3440 -0.3735
  161TIP3    H1  489   3.383   3.461   2.653  1.8795 -0.2498 -0.9755
  161TIP3    H2  490   3.404   3.411   2.512 -1.5605  0.1527 -1.7104
  162TIP3   OH2  491   5.471   5.751   1.609  0.4694 -0.0628  0.0207
  162TIP3    H1  492   5.421   5.676   1.578  0.0034  0.2245  0.0619
  162TIP3    H2  493   5.555   5.744   1.565 -0.1699  0.3291 -1.3000
  163TIP3   OH2  494   4.392   5.415   2.884  0.7512 -0.5763 -0.2739
  163TIP3    H1  495   4.408   5.460   2.966  1.0768 -1.8507  0.3886
  163TIP3    H2  496   4.448   5.460   2.820 -0.4165  1.2181 -0.1144
  164TIP3   OH2  497   1.104   4.184   3.591 -0.5855  0.6752 -0.4634
  164TIP3    H1  498   1.165   4.247   3.552  0.2702  1.2992  1.7131
  164TIP3    H2  499   1.020   4.230   3.592  0.5100  2.9946  3.3741
  165TIP3   OH2  500   1.284   0.700   0.815 -0.1014 -0.0479 -0.3246
  165TIP3    H1  501   1.257   0.791   0.826  0.1303 -0.1401  1.2501
  165TIP3    H2  502   1.329   0.698   0.731  2.3582  1.9195  0.8115
  166TIP3   OH2  503   4.881   3.938   0.575 -0.2900 -0.6384  0.5793
  166TIP3    H1  504   4.787   3.943   0.593 -0.1263 -0.3231  1.3806
  166TIP3    H2  505   4.889   3.971   0.486 -0.9583 -0.8555  0.4261
  167TIP3   OH2  506   1.960   5.070   1.699  0.2315 -0.6760  0.6460
  167TIP3    H1  507   1.973   5.087   1.606  0.3352  1.0544  0.9461
  167TIP3    H2  508   2.022   5.000   1.720  2.0141  0.6408 -0.0547
  168TIP3   OH2  509   1.310   5.080   1.285 -0.1009  0.6880 -0.3389
  168TIP3    H1  510   1.395   5.125   1.285  0.3429 -0.0917 -1.4378
  168TIP3    H2  511   1.286   5.074   1.192 -0.8368 -0.0422 -0.1187
  169TIP3   OH2  512   6.031   0.540   4.480  0.3902  0.6426  0.7348
  169TIP3    H1  513   5.947   0.585   4.487 -0.7255 -1.2295  0.1052
  169TIP3    H2  514   6.055   0.548   4.388 -0.0166 -0.3413  0.5315
  170TIP3   OH2  515   3.799   2.857   3.828 -0.1120  0.0226  0.1706
  170TIP3    H1  516   3.840   2.798   3.764 -0.7241  0.8631 -1.0487
  170TIP3    H2  517   3.871   2.888   3.882  0.7514  0.6581 -1.2635
  171TIP3   OH2  518   2.616   2.147   0.966  1.0384 -0.6697  0.0721
  171TIP3    H1  519   2.567   2.145   0.883  1.0904  0.8702 -0.0170
  171TIP3    H2  520   2.686   2.083   0.954  2.2974  0.9526 -1.9033
  172TIP3   OH2  521   5.458   3.633   1.653 -0.2235  0.5863 -0.1781
  172TIP3    H1  522   5.462   3.539   1.637 -0.7607  0.6493 -0.7001
  172TIP3    H2  523   5.369   3.659   1.628 -0.0703  1.2421 -0.0840
  173TIP3   OH2  524   1.278   1.743   2.420 -0.2174  0.0603 -0.7029
  173TIP3    H1  525   1.247   1.666   2.468 -0.1309 -0.8998 -2.1177
  173TIP3    H2  526   1.250   1.728   2.329  1.2114  0.9253 -1.3277
  174TIP3   OH2  527   2.281   0.971   1.465 -0.2657 -0.0864 -0.5963
  174TIP3    H1  528   2.204   0.926   1.430 -0.7062  1.6694 -2.0488
  174TIP3    H2  529   2.256   0.997   1.553 -0.6902 -1.0028 -0.4326
  175TIP3   OH2  530   1.515   3.606   2.972 -0.3747 -0.0679 -0.0113
  175TIP3    H1  531   1.587   3.547   2.949 -0.3944  1.0803 -3.4917
  175TIP3    H2  532   1.553   3.665   3.037  0.5374 -1.9563  1.2584
  176TIP3   OH2  533   6.061   2.434   1.682 -0.1681 -0.1324 -0.7234
  176TIP3    H1  534   6.112   2.393   1.752 -0.6601 -1.8598 -1.3088
  176TIP3    H2  535   5.998   2.490   1.727 -0.2878 -0.9887  0.2030
  177TIP3   OH2  536   2.117   4.651   3.679 -0.5621  0.1149 -0.0499
  177TIP3    H1  537   2.163   4.667   3.597  2.6522 -0.1097  1.5651
  177TIP3    H2  538   2.116   4.556   3.688 -0.7319  0.1452  0.2711
  178TIP3   OH2  539   4.528   0.190   1.530  0.4574 -0.1110  0.7447
  178TIP3    H1  540   4.471   0.179   1.606  0.0340  0.4820  0.5138
  178TIP3    H2  541   4.616   0.171   1.563  0.2643  0.0555  1.3616
  179TIP3   OH2  542   0.981   3.178   3.067  1.0297 -0.0520  0.3494
  179TIP3    H1  543   0.994   3.144   2.978 -1.7480 -0.3241 -0.0296
  179TIP3    H2  544   0.887   3.193   3.073  1.1028 -0.3445  3.3945
  180TIP3   OH2  545   4.043   3.155   3.548 -0.7637  0.3590 -0.1287
  180TIP3    H1  546   4.051   3.070   3.505 -1.8252  1.2349 -2.1781
  180TIP3    H2  547   3.984   3.138   3.622  0.5986 -1.0497  0.7010
  181TIP3   OH2  548   2.029   1.739   1.313 -0.4181 -0.2043  0.3661
  181TIP3    H1  549   2.115   1.777   1.293  0.7286 -2.9128 -0.4111
  181TIP3    H2  550   2.008   1.771   1.400  0.7484  1.5643  0.0488
  182TIP3   OH2  551   2.128   0.818   4.123 -0.6968 -0.0201  0.2709
  182TIP3    H1  552   2.179   0.798   4.201  0.4672  2.0348  0.0833
  182TIP3    H2  553   2.112   0.732   4.083 -0.3544 -1.0094  2.1276
  183TIP3   OH2  554   0.189   1.968   1.921 -0.7771  0.5390  0.0405
  183TIP3    H1  555   0.271   1.962   1.873 -0.3107  0.9819  0.7652
  183TIP3    H2  556   0.192   1.895   1.983 -1.1611  0.2554 -0.2694
  184TIP3   OH2  557   2.609   4.896   1.153  0.5591  0.0520 -0.2889
  184TIP3    H1  558   2.660   4.898   1.072  1.8634  2.0579  0.5198
  184TIP3    H2  559   2.666   4.852   1.216  0.3142  0.1725  0.0183
  185TIP3   OH2  560   2.111   0.428   2.739  0.0031  0.1422 -0.6467
  185TIP3    H1  561   2.066   0.408   2.657  0.3772 -1.5026 -0.4811
  185TIP3    H2  562   2.042   0.463   2.796 -0.4349  0.4675 -1.3537
  186TIP3   OH2  563   1.784   0.594   3.395 -0.1406  0.6014 -0.5141
  186TIP3    H1  564   1.870   0.585   3.354 -0.2448  2.1388 -1.1666
  186TIP3    H2  565   1.749   0.506   3.399  1.6838 -0.1485  0.2754
  187TIP3   OH2  566   0.435   2.306   4.735  0.6869 -0.0555 -0.7836
  187TIP3    H1  567   0.522   2.336   4.708  1.2497  1.6483  2.3594
  187TIP3    H2  568   0.442   2.296   4.830 -2.8902  1.5146 -0.1974
  188TIP3   OH2  569   6.064   3.327   3.825  0.4178 -0.0050 -0.3407
  188TIP3    H1  570   6.091   3.248   3.872  2.0425  1.1532  0.7978
  188TIP3    H2  571   6.125   3.333   3.751 -0.4575 -0.4136 -1.1169
  189TIP3   OH2  572   0.017   5.359   3.695 -0.0139  0.0070 -0.1386
  189TIP3    H1  573  -0.030   5.334   3.775  0.1431 -0.2946 -0.1393
  189TIP3    H2  574   0.104   5.386   3.725  0.5035 -1.3833 -0.3266
  190TIP3   OH2  575   3.010   5.426   1.455 -0.2146  0.1172  0.3003
  190TIP3    H1  576   3.053   5.512   1.458  0.0329 -0.0133  0.5426
  190TIP3    H2  577   2.917   5.446   1.446 -0.1754  0.4146  0.5381
  191TIP3   OH2  578   0.024   1.754   4.728 -0.0399 -0.1229 -0.0673
  191TIP3    H1  579   0.065   1.796   4.803 -1.6221  1.1714  0.1446
  191TIP3    H2  580  -0.062   1.796   4.722  0.1339  0.0155 -2.7646
  192TIP3   OH2  581   1.126   1.638   0.257  0.1983 -0.0499 -0.4686
  192TIP3    H1  582   1.125   1.686   0.340 -1.9957 -0.1236 -0.4052
  192TIP3    H2  583   1.170   1.556   0.278 -0.1217  0.0241  0.5868
  193TIP3   OH2  584   1.264   1.259   4.560 -0.2099 -0.1855 -0.0004
  193TIP3    H1  585   1.334   1.324   4.556  0.0861 -0.5301 -0.4920
  193TIP3    H2  586   1.286   1.195   4.492 -1.4640  0.1637 -0.7705
  194TIP3   OH2  587   5.720   0.589   1.062 -0.0800 -0.2899 -0.6023
  194TIP3    H1  588   5.779   0.605   1.135 -0.3642  0.9672 -0.6378
  194TIP3    H2  589   5.694   0.497   1.072  0.8559 -0.4878  0.1471
  195TIP3   OH2  590   0.801   5.723   1.112 -0.1943 -0.7369 -0.8537
  195TIP3    H1  591   0.887   5.684   1.127 -0.0569 -0.1257  0.0434
  195TIP3    H2  592   0.817   5.817   1.109 -0.8789 -0.5902 -0.2472
  196TIP3   OH2  593   6.245   4.053   3.140 -0.1954  0.1715 -0.2827
  196TIP3    H1  594   6.340   4.062   3.132 -0.1100 -0.7431 -0.4146
  196TIP3    H2  595   6.233   3.971   3.188 -0.8878  1.0974  1.2283
  197TIP3   OH2  596   3.100   4.373   3.570  0.1930 -0.1205  0.4211
  197TIP3    H1  597   3.128   4.308   3.635 -0.5086 -0.1052  0.7544
  197TIP3    H2  598   3.090   4.323   3.489  0.7229 -0.2121  0.4117
  198TIP3   OH2  599   4.749   2.536   2.455 -0.1576  0.2483 -0.0679
  198TIP3    H1  600   4.694   2.591   2.511  2.0947  1.2080  1.3192
  198TIP3    H2  601   4.743   2.449   2.494  0.7241  0.7360  1.2332
  199TIP3   OH2  602   3.521   4.797   2.927  0.3205 -0.1269 -0.8066
  199TIP3    H1  603   3.581   4.835   2.862  1.4142 -0.9975 -0.3443
  199TIP3    H2  604   3.554   4.830   3.011  0.0779 -0.5221 -0.5545
  200TIP3   OH2  605   1.151   4.111   2.729 -0.0245 -0.4764  0.2588
  200TIP3    H1  606   1.057   4.106   2.711  0.4725 -2.5966 -2.1259
  200TIP3    H2  607   1.155   4.120   2.825 -2.6249  0.5370  0.3786
  201TIP3   OH2  608   5.138   0.760   1.598 -0.3997  0.2388 -0.1797
  201TIP3    H1  609   5.090   0.736   1.677 -1.9603  0.8713 -0.8970
  201TIP3    H2  610   5.225   0.721   1.610 -0.9034 -0.4793  1.4017
  202TIP3   OH2  611   5.338   1.363   1.387  0.7566 -0.6942  0.3795
  202TIP3    H1  612   5.402   1.435   1.386  0.4788 -0.4110  1.4150
  202TIP3    H2  613   5.265   1.396   1.334  0.6473 -0.2104  0.8133
  203TIP3   OH2  614   5.497   4.230   3.373  0.3231 -0.1945  0.1605
  203TIP3    H1  615   5.550   4.285   3.432 -0.2142 -1.1017  1.5267
  203TIP3    H2  616   5.542   4.145   3.373 -1.2695 -1.0895  1.6190
  204TIP3   OH2  617   0.377   1.402   2.803 -0.3961 -0.3634  0.1794
  204TIP3    H1  618   0.324   1.338   2.851 -2.4344  0.0271 -1.4164
  204TIP3    H2  619   0.421   1.350   2.735 -0.7823 -0.3261 -0.1041
  205TIP3   OH2  620   5.178   0.769   1.906  0.4632 -0.3237  0.6765
  205TIP3    H1  621   5.138   0.856   1.911 -0.0094 -0.5191  0.3835
  205TIP3    H2  622   5.150   0.725   1.986  0.2372 -0.3939  0.5620
  206TIP3   OH2  623   5.587   0.392   0.353  0.1014 -0.2066  0.4153
  206TIP3    H1  624   5.635   0.347   0.283 -1.4191 -0.6677 -0.3667
  206TIP3    H2  625   5.495   0.376   0.333 -0.3796 -0.7540  2.8132
  207TIP3   OH2  626   3.544   0.504   0.702 -0.0053 -0.2533 -0.1467
  207TIP3    H1  627   3.494   0.458   0.770 -1.0755 -2.3568 -2.2275
  207TIP3    H2  628   3.488   0.503   0.625  1.8583  0.4694 -1.6099
  208TIP3   OH2  629   5.994   1.171   1.742  0.6277  0.1829 -0.3387
  208TIP3    H1  630   6.060   1.184   1.673  1.0759 -0.1234  0.0225
  208TIP3    H2  631   5.955   1.086   1.722 -1.1703  1.2739 -1.7731
  209TIP3   OH2  632  -0.013   0.582   1.322  0.6408  0.0248  0.1040
  209TIP3    H1  633   0.022   0.495   1.342 -0.9097 -0.8978 -0.9711
  209TIP3    H2  634   0.063   0.640   1.328  1.4072 -1.1110  2.4775
  210TIP3   OH2  635   0.338   3.244   2.771  0.1376  0.3186 -0.5112
  210TIP3    H1  636   0.430   3.266   2.784  0.5468 -1.3452 -0.3542
  210TIP3    H2  637   0.338   3.176   2.703 -0.8285 -0.6805  0.4307
  211TIP3   OH2  638   3.797   0.094   0.753 -0.1159  0.0859  0.6310
  211TIP3    H1  639   3.838   0.180   0.762  2.7946 -1.0363 -0.6757
  211TIP3    H2  640   3.767   0.073   0.842 -0.9434  2.3984  0.9739
  212TIP3   OH2  641   1.543   1.663   2.614 -0.1109  0.0299  0.4987
  212TIP3    H1  642   1.453   1.686   2.637 -0.7112  0.9399 -2.3274
  212TIP3    H2  643   1.592   1.744   2.625  0.1597 -0.2012  1.0339
  213TIP3   OH2  644   5.380   3.067   4.214  0.1139  0.2012 -0.3440
  213TIP3    H1  645   5.460   3.022   4.241 -1.4465 -1.6916  1.4525
  213TIP3    H2  646   5.332   3.002   4.162  0.0031  1.5609 -2.0565
  214TIP3   OH2  647   4.495   0.372   1.320  0.1230 -0.4293  0.3944
  214TIP3    H1  648   4.504   0.311   1.394 -0.8783  0.6287  1.4319
  214TIP3    H2  649   4.408   0.409   1.331  0.4461  0.6673 -0.6280
  215TIP3   OH2  650   1.715   5.222   2.636 -0.3024 -0.1222  0.1696
  215TIP3    H1  651   1.794   5.220   2.689 -1.3116  0.0660  1.7362
  215TIP3    H2  652   1.672   5.139   2.654 -0.8569  0.1097 -0.0551
  216TIP3   OH2  653   3.007   0.530   2.916  0.2186 -0.0944 -0.0254
  216TIP3    H1  654   3.048   0.615   2.935  1.2579 -0.3984 -0.8326
  216TIP3    H2  655   3.067   0.466   2.953  0.4934 -0.5477 -1.2069
  217TIP3   OH2  656   1.355   4.823   2.499  0.5198 -0.0518  0.0746
  217TIP3    H1  657   1.316   4.813   2.587 -0.5256 -4.3963 -0.6236
  217TIP3    H2  658   1.308   4.759   2.446  4.7525 -1.5371 -2.3169
  218TIP3   OH2  659   6.275   5.412   1.566  0.1311 -0.0077 -0.5786
  218TIP3    H1  660   6.325   5.474   1.619  0.3725 -2.0747  1.7939
  218TIP3    H2  661   6.339   5.344   1.543 -0.8509 -1.0773 -0.2255
  219TIP3   OH2  662   0.503   2.863   3.352 -0.5900  0.2478  0.1284
  219TIP3    H1  663   0.465   2.782   3.386 -0.6526  0.3051  0.1980
  219TIP3    H2  664   0.525   2.844   3.261 -1.4040  0.4156 -0.1143
  220TIP3   OH2  665   2.629   1.693   0.696  0.7634  0.3538  0.3952
  220TIP3    H1  666   2.611   1.601   0.675  0.6617  0.1258  1.4158
  220TIP3    H2  667   2.723   1.695   0.711  0.7371  0.3804  0.5540
  221TIP3   OH2  668   4.796   1.606   0.904  0.1505 -0.0694  0.0393
  221TIP3    H1  669   4.763   1.611   0.993  1.2264  1.3599  0.3995
  221TIP3    H2  670   4.731   1.653   0.851 -0.1518 -0.3297  0.1828
  222TIP3   OH2  671   2.737   4.716   0.965  0.1879 -0.0545  0.3230
  222TIP3    H1  672   2.791   4.654   1.015  0.3495 -0.8404 -0.7880
  222TIP3    H2  673   2.778   4.718   0.878 -1.0497  0.0148 -0.2756
  223TIP3   OH2  674   4.083   4.622   4.818  0.6115  0.2185  0.0255
  223TIP3    H1  675   4.050   4.669   4.741  1.2550 -0.1020 -0.4571
  223TIP3    H2  676   4.005   4.587   4.861  0.1026  1.7860  0.4456
  224TIP3   OH2  677   3.110  -0.017   4.297 -0.1882 -0.8642 -0.2174
  224TIP3    H1  678   3.163   0.052   4.337  1.1672 -1.8724 -0.1951
  224TIP3    H2  679   3.121  -0.004   4.203 -0.7619 -0.4469 -0.2326
  225TIP3   OH2  680   2.361   2.195   3.051 -0.5687  0.0632  0.6228
  225TIP3    H1  681   2.379   2.188   3.145 -0.9013 -0.6838  0.6329
  225TIP3    H2  682   2.429   2.143   3.009 -0.1314  0.7835  0.4094
  226TIP3   OH2  683   5.118   2.848   4.769  0.4217 -0.4247  1.0385
  226TIP3    H1  684   5.024   2.831   4.775  0.6159 -1.4390  1.3516
  226TIP3    H2  685   5.132   2.866   4.676 -0.0919 -0.1569  1.0043
  227TIP3   OH2  686   0.960   2.690   2.087  0.2057 -0.6970  0.1771
  227TIP3    H1  687   1.011   2.758   2.044 -1.7481  1.4832  1.1239
  227TIP3    H2  688   1.013   2.665   2.163 -0.4853  2.3956  1.8424
  228TIP3   OH2  689   0.341   0.337   2.369  0.1068 -0.3025 -0.4278
  228TIP3    H1  690   0.387   0.268   2.321 -0.3225 -0.4888 -0.5723
  228TIP3    H2  691   0.365   0.322   2.461  0.4268 -0.3284 -0.5167
  229TIP3   OH2  692   0.577   4.496   4.059  0.3823 -0.2359  0.0381
  229TIP3    H1  693   0.548   4.409   4.088  0.0436 -0.1818 -0.1414
  229TIP3    H2  694   0.662   4.480   4.018 -0.2311 -0.6672 -1.1039
  230TIP3   OH2  695   2.289   5.063   1.701  0.2459 -0.7238 -0.2416
  230TIP3    H1  696   2.274   5.151   1.734  1.6259 -0.1916 -0.9490
  230TIP3    H2  697   2.245   5.060   1.617  0.3613 -0.6404 -0.3052
  231TIP3   OH2  698   5.416   3.537   3.752 -0.3391  0.0269  0.5709
  231TIP3    H1  699   5.443   3.514   3.840  1.6454 -2.0506 -0.4754
  231TIP3    H2  700   5.330   3.496   3.741  0.3056 -1.4555  0.8993
  232TIP3   OH2  701   4.541   3.622   3.418  0.2182  0.0397  0.1316
  232TIP3    H1  702   4.510   3.590   3.333  0.3587 -1.5906  0.6590
  232TIP3    H2  703   4.632   3.594   3.422  0.1772 -0.0038  0.8657
  233TIP3   OH2  704   0.423   1.177   2.271 -0.0937  0.3072 -0.5243
  233TIP3    H1  705   0.461   1.263   2.286  0.8581  0.0418 -1.3289
  233TIP3    H2  706   0.356   1.168   2.340 -0.2364  1.6872 -0.4509
  234TIP3   OH2  707   2.805   3.496   0.399  0.2791  0.5329  0.0073
  234TIP3    H1  708   2.857   3.491   0.479 -0.8098  0.1859  0.7227
  234TIP3    H2  709   2.837   3.574   0.354  1.2701  0.4335  0.5237
  235TIP3   OH2  710   1.268   3.978   0.047 -0.3871 -0.2270 -0.4548
  235TIP3    H1  711   1.179   4.010   0.034  0.0881  1.8291  0.9065
  235TIP3    H2  712   1.288   3.997   0.139  1.8207  0.3615 -0.9773
  236TIP3   OH2  713   1.397   4.395   1.778 -0.6130  0.2992  0.3390
  236TIP3    H1  714   1.461   4.325   1.787 -0.8599  0.0926  0.4896
  236TIP3    H2  715   1.312   4.351   1.785 -0.7647  0.7108  1.1030
  237TIP3   OH2  716   6.304   0.778   3.755 -0.2081  0.1952  0.1397
  237TIP3    H1  717   6.302   0.807   3.847 -1.1599 -0.3117  0.2972
  237TIP3    H2  718   6.212   0.758   3.735  0.0169  0.1485 -0.8792
  238TIP3   OH2  719   4.274   0.789   2.653  0.5223  0.0123  0.1185
  238TIP3    H1  720   4.267   0.846   2.576  0.2558  1.1264  0.9581
  238TIP3    H2  721   4.313   0.844   2.721 -0.8881 -0.4112  1.3194
  239TIP3   OH2  722   0.039   1.168   0.549  0.2438  0.1403  0.4043
  239TIP3    H1  723   0.032   1.078   0.518  2.4875  0.3710 -0.9866
  239TIP3    H2  724   0.009   1.221   0.475  2.2440  0.5780 -0.1724
  240TIP3   OH2  725   4.396   4.514   4.607 -0.1646  0.5951 -0.2287
  240TIP3    H1  726   4.345   4.433   4.604  2.4197 -1.2290  0.8644
  240TIP3    H2  727   4.386   4.545   4.697 -1.3535  1.6696 -0.7162
  241TIP3   OH2  728   0.157   0.015   4.767 -0.0979  0.1981 -0.5661
  241TIP3    H1  729   0.069  -0.007   4.737  0.2244  0.2880 -1.6344
  241TIP3    H2  730   0.155   0.110   4.780  0.2173  0.4160 -1.9703
  242TIP3   OH2  731   3.545   5.204   1.005  0.2842  0.2708 -0.3388
  242TIP3    H1  732   3.530   5.278   0.947 -0.1022 -0.2394 -0.8955
  242TIP3    H2  733   3.609   5.236   1.069 -1.2690  1.7047  0.5814
  243TIP3   OH2  734   4.967   1.262   2.292 -0.0192  0.2560  0.2050
  243TIP3    H1  735   4.966   1.189   2.230  0.3829 -0.8775  1.4852
  243TIP3    H2  736   5.035   1.321   2.258  1.9171 -1.5164  0.8198
  244TIP3   OH2  737   2.677   0.615   4.368  0.3803 -0.0875 -0.3516
  244TIP3    H1  738   2.732   0.666   4.428  1.1390 -2.3746  1.0120
  244TIP3    H2  739   2.663   0.674   4.293  0.2283  2.5055  1.5803
  245TIP3   OH2  740   1.401   1.954   1.429 -0.1702  0.0645  0.3243
  245TIP3    H1  741   1.487   1.925   1.461 -0.2298  0.4576  0.8542
  245TIP3    H2  742   1.416   2.045   1.401 -0.1518 -0.2261 -0.6561
  246TIP3   OH2  743   6.140   1.221   3.307  0.0312  0.1206  0.6227
  246TIP3    H1  744   6.054   1.254   3.333 -0.8073 -1.4769 -0.0235
  246TIP3    H2  745   6.183   1.296   3.267 -2.4811  0.1146 -2.4413
  247TIP3   OH2  746   6.284   3.573   2.855  0.4639 -0.0787 -0.2999
  247TIP3    H1  747   6.263   3.516   2.781  0.2315 -2.6418  1.5722
  247TIP3    H2  748   6.308   3.657   2.816 -1.6053 -0.6813 -3.1295
  248TIP3   OH2  749   2.029   3.660   5.096 -0.0019  0.1143  0.2629
  248TIP3    H1  750   2.105   3.672   5.040 -1.7765  0.4251 -2.2232
  248TIP3    H2  751   2.039   3.726   5.165  0.3054  2.5573 -1.9755
  249TIP3   OH2  752   0.998   4.952   0.822 -0.2669 -0.8728 -0.2187
  249TIP3    H1  753   1.025   4.999   0.744  1.9976 -0.2725  0.8586
  249TIP3    H2  754   1.023   4.861   0.806 -0.0155 -0.7909 -0.2865
  250TIP3   OH2  755   3.332   1.982   3.986 -0.2030  0.1513  0.2328
  250TIP3    H1  756   3.356   2.017   3.900  0.2794 -0.5276  0.0856
  250TIP3    H2  757   3.300   1.894   3.968 -0.3184  0.0894  0.7295
  251TIP3   OH2  758   3.166   3.671   4.390 -0.6144  0.0444 -0.0523
  251TIP3    H1  759   3.127   3.618   4.321  0.7049 -0.3575 -0.5213
  251TIP3    H2  760   3.107   3.662   4.465 -1.0765 -1.0274 -0.5384
  252TIP3   OH2  761   0.649   0.137   0.571  0.2395 -0.3992  0.0286
  252TIP3    H1  762   0.645   0.135   0.666 -0.6428  0.7148  0.0373
  252TIP3    H2  763   0.722   0.197   0.552  0.4721 -0.6894 -0.0073
  253TIP3   OH2  764   0.169   5.499   3.382  1.0860  0.2839 -0.1781
  253TIP3    H1  765   0.172   5.407   3.407  1.3482  0.8692  2.1036
  253TIP3    H2  766   0.075   5.517   3.371  1.0207 -0.2012 -0.4542
  254TIP3   OH2  767   4.247   5.230   3.311 -0.1989 -1.1173  0.2521
  254TIP3    H1  768   4.219   5.139   3.316  0.7777 -1.5242 -1.0940
  254TIP3    H2  769   4.231   5.255   3.220  0.3169 -0.2046  0.3969
  255TIP3   OH2  770   4.299   2.766   3.598 -0.0992 -0.2786 -0.3831
  255TIP3    H1  771   4.343   2.703   3.654 -1.2245 -1.4838 -0.7986
  255TIP3    H2  772   4.370   2.816   3.557  0.8137 -1.2297  0.0016
  256TIP3   OH2  773   1.158   3.024   4.598 -0.1250 -0.7504 -0.1332
  256TIP3    H1  774   1.178   3.055   4.510 -0.8933 -1.8143 -0.7035
  256TIP3    H2  775   1.074   2.979   4.589 -0.6682 -0.0786  1.3288
  257TIP3   OH2  776   3.943   5.784   3.108 -1.0801 -0.3918 -0.0199
  257TIP3    H1  777   3.988   5.862   3.075  1.1568 -1.8860 -0.7565
  257TIP3    H2  778   3.911   5.811   3.195  0.2471  1.1426  0.0578
  258TIP3   OH2  779   2.162   2.728   3.524 -0.4846 -0.0275  0.5139
  258TIP3    H1  780   2.195   2.785   3.454 -0.5236  0.3547  0.8012
  258TIP3    H2  781   2.232   2.728   3.590  0.3327 -1.8021 -0.2836
  259TIP3   OH2  782   5.288   3.280   0.732 -0.6493  0.1652 -0.4349
  259TIP3    H1  783   5.348   3.350   0.705  0.9200 -0.6403  0.7886
  259TIP3    H2  784   5.345   3.205   0.749 -1.6046  0.0494  3.1477
  260TIP3   OH2  785   0.604   4.791   4.978 -0.4567 -0.1547 -0.2052
  260TIP3    H1  786   0.524   4.844   4.990 -0.4729  0.0647 -1.2476
  260TIP3    H2  787   0.672   4.855   4.958 -0.0827 -0.3756  0.3410
  261TIP3   OH2  788   1.730   2.836   4.682  0.0883  0.4381 -0.5626
  261TIP3    H1  789   1.824   2.835   4.700  0.1650  1.2932 -0.8667
  261TIP3    H2  790   1.706   2.929   4.682 -1.0854  0.1851  1.1856
  262TIP3   OH2  791   5.210   4.689   2.304 -0.5948  0.0177 -0.5023
  262TIP3    H1  792   5.245   4.768   2.347  1.0837 -0.5249 -0.7728
  262TIP3    H2  793   5.167   4.640   2.374  0.0715  0.2582  0.0902
  263TIP3   OH2  794   4.699   2.082   1.145  0.9902  0.3579  0.4796
  263TIP3    H1  795   4.636   2.081   1.217 -0.2842  0.3279 -0.5776
  263TIP3    H2  796   4.656   2.135   1.077  3.1721  2.4246  0.5913
  264TIP3   OH2  797   0.865   3.358   4.526  0.3567 -0.1840  0.3096
  264TIP3    H1  798   0.771   3.369   4.539  0.2579  0.0550 -0.5334
  264TIP3    H2  799   0.902   3.445   4.540  0.8881 -0.8448  3.7992
  265TIP3   OH2  800   5.417   0.874   2.778  0.1847 -0.4073 -0.2995
  265TIP3    H1  801   5.431   0.934   2.852 -2.3591  0.1474 -0.1726
  265TIP3    H2  802   5.432   0.787   2.815 -0.5170 -0.1029  0.7570
  266TIP3   OH2  803   5.683   0.040   1.063 -0.0554 -0.8116  0.0247
  266TIP3    H1  804   5.593   0.008   1.071 -1.2816  1.8887 -1.4685
  266TIP3    H2  805   5.683   0.122   1.112  1.5710 -0.7029 -0.1119
  267TIP3   OH2  806   4.513   2.327   2.679  0.0481 -0.1238 -0.0292
  267TIP3    H1  807   4.501   2.420   2.662  0.4611 -0.1410 -0.4220
  267TIP3    H2  808   4.581   2.300   2.618  1.6732 -0.1645  1.7229
  268TIP3   OH2  809   2.820   1.221   4.551 -0.3847 -0.3061 -0.0727
  268TIP3    H1  810   2.873   1.272   4.612  0.1570 -0.1472 -0.6705
  268TIP3    H2  811   2.736   1.210   4.596 -0.1308  0.1609  0.5262
  269TIP3   OH2  812   4.186   3.948   0.251  0.0350 -0.0998 -0.2451
  269TIP3    H1  813   4.251   3.943   0.181  0.8505  1.0125  0.4102
  269TIP3    H2  814   4.142   4.032   0.236 -1.1969 -0.7851 -0.6109
  270TIP3   OH2  815   4.501   0.326   2.674  0.1110  0.0538 -0.2386
  270TIP3    H1  816   4.426   0.373   2.639 -1.0125 -2.2722 -1.1665
  270TIP3    H2  817   4.496   0.338   2.769 -0.4188  1.3140 -0.4104
  271TIP3   OH2  818   4.094   3.438   3.701 -0.4247  0.0966  0.0163
  271TIP3    H1  819   4.080   3.372   3.769 -1.7603  0.9102  0.5907
  271TIP3    H2  820   4.109   3.519   3.750  2.0611  0.1171 -0.6640
  272TIP3   OH2  821   1.829   0.147   4.400  0.3875 -0.0202 -0.1770
  272TIP3    H1  822   1.861   0.233   4.429  1.9948 -0.1022 -1.5721
  272TIP3    H2  823   1.874   0.132   4.317 -2.4793 -0.6743 -1.7468
  273TIP3   OH2  824   3.636   0.334   3.731 -0.1119  0.1631  0.0978
  273TIP3    H1  825   3.563   0.354   3.673  0.3457  1.0593 -0.1909
  273TIP3    H2  826   3.712   0.328   3.673 -0.1122 -1.9707  0.2289
  274TIP3   OH2  827   1.107   4.443   1.858  0.2982 -0.1004 -0.0739
  274TIP3    H1  828   1.019   4.415   1.837  0.9801 -0.7193 -2.3071
  274TIP3    H2  829   1.097   4.534   1.886 -1.2243 -0.7212  1.6299
  275TIP3   OH2  830   0.199   2.233   4.390  0.4020 -0.3810  0.2920
  275TIP3    H1  831   0.151   2.288   4.452 -0.4252  1.0092 -1.4889
  275TIP3    H2  832   0.133   2.173   4.355  0.7687 -0.8509  0.3819
  276TIP3   OH2  833   3.602   1.160   3.773 -0.1050  0.5299  0.0328
  276TIP3    H1  834   3.534   1.226   3.784 -2.2503 -1.6621  0.9412
  276TIP3    H2  835   3.583   1.120   3.688 -1.7020 -1.7926  1.3590
  277TIP3   OH2  836   3.599   0.504   0.327 -0.1396  0.0815  0.4246
  277TIP3    H1  837   3.568   0.591   0.303 -1.5108 -0.6287 -0.5243
  277TIP3    H2  838   3.694   0.509   0.320 -0.1945  1.5214  0.5026
  278TIP3   OH2  839   0.198   5.181   5.001  0.1194  0.5852  0.3518
  278TIP3    H1  840   0.186   5.268   4.962 -0.1316 -0.2639 -1.5789
  278TIP3    H2  841   0.277   5.147   4.959  0.3824 -0.0191  1.3179
  279TIP3   OH2  842   1.030   5.787   0.767  0.3804 -0.2853 -0.4102
  279TIP3    H1  843   0.975   5.866   0.771  0.7599  0.0551 -1.4876
  279TIP3    H2  844   0.973   5.722   0.726  0.7157  0.0340 -1.4177
  280TIP3   OH2  845   2.123   5.774   0.620  0.9075  0.3716 -0.9548
  280TIP3    H1  846   2.063   5.848   0.612 -0.1505 -0.6531 -3.2730
  280TIP3    H2  847   2.207   5.807   0.590  0.8261  1.0329 -0.4717
  281TIP3   OH2  848   1.514   2.341   1.536 -0.6375 -0.1625 -0.0727
  281TIP3    H1  849   1.488   2.426   1.571 -0.0914 -0.9769  2.4984
  281TIP3    H2  850   1.565   2.300   1.606  0.2546 -2.0911 -1.7298
  282TIP3   OH2  851   4.527   0.688   2.196  0.0617  0.1127  0.0771
  282TIP3    H1  852   4.434   0.675   2.175  0.2461 -1.0251 -0.1053
  282TIP3    H2  853   4.572   0.674   2.113  0.5264 -1.0525  0.5074
  283TIP3   OH2  854   0.161   4.526   2.568 -0.0464 -0.1192 -0.7473
  283TIP3    H1  855   0.143   4.432   2.559  0.5535 -0.1604 -1.6312
  283TIP3    H2  856   0.187   4.536   2.660 -2.8434 -0.3154  0.1607
  284TIP3   OH2  857   5.198   4.564   3.132  0.2162 -0.2600 -0.4702
  284TIP3    H1  858   5.151   4.554   3.050  0.8691 -0.7374 -0.7987
  284TIP3    H2  859   5.262   4.493   3.132  2.4885  1.6468 -1.1243
  285TIP3   OH2  860   1.928   1.113   4.369  0.1579 -0.1414  0.0635
  285TIP3    H1  861   1.996   1.094   4.434 -0.0990  1.5191  0.8904
  285TIP3    H2  862   1.850   1.134   4.421  0.5259  3.4967 -0.5480
  286TIP3   OH2  863   4.416   5.586   1.458  0.4617 -0.1573 -0.4650
  286TIP3    H1  864   4.511   5.602   1.459  0.4372  0.4132  2.5636
  286TIP3    H2  865   4.377   5.672   1.446  0.2577 -0.4495 -2.1948
  287TIP3   OH2  866   4.181   2.521   3.505  0.1861 -0.5696 -0.4237
  287TIP3    H1  867   4.122   2.523   3.580  0.3940 -2.0604 -0.1967
  287TIP3    H2  868   4.239   2.595   3.519 -1.3860  0.7339 -0.4750
  288TIP3   OH2  869   0.409   5.407   2.529 -0.1866  0.4179  0.2628
  288TIP3    H1  870   0.323   5.419   2.571  0.7033  0.6942  2.1246
  288TIP3    H2  871   0.464   5.476   2.567  0.9081  0.1428 -0.7669
  289TIP3   OH2  872   1.753   0.107   5.120 -0.2312  0.0562 -0.5224
  289TIP3    H1  873   1.810   0.181   5.143 -0.5074  0.7012 -1.8069
  289TIP3    H2  874   1.685   0.108   5.187  0.5728  0.0299  0.3290
  290TIP3   OH2  875   0.484   2.860   0.346  0.2074  0.1288 -0.2454
  290TIP3    H1  876   0.411   2.902   0.299  0.0518  0.0424 -0.0811
  290TIP3    H2  877   0.560   2.874   0.289 -0.1400 -0.7222 -0.9431
  291TIP3   OH2  878   3.602   3.116   2.339 -0.2103 -0.0556  0.2456
  291TIP3    H1  879   3.602   3.020   2.340 -0.7388 -0.0599  0.2106
  291TIP3    H2  880   3.587   3.141   2.430  1.3607  0.0161  0.5083
  292TIP3   OH2  881   2.419   3.954   2.059 -0.2472 -0.4000  0.4123
  292TIP3    H1  882   2.388   3.892   2.125 -2.0781 -0.2648 -0.2631
  292TIP3    H2  883   2.418   4.039   2.104  2.0593 -0.7572  1.2724
  293TIP3   OH2  884   5.291   1.484   3.710 -0.1445  0.1018  0.0949
  293TIP3    H1  885   5.321   1.529   3.631  2.2455  1.0018  1.4256
  293TIP3    H2  886   5.232   1.547   3.752 -0.7732 -0.0544 -0.5257
  294TIP3   OH2  887   6.079   3.913   0.796 -0.0929 -0.0033  0.7122
  294TIP3    H1  888   6.102   3.830   0.836 -0.7238 -1.0696 -1.0208
  294TIP3    H2  889   6.004   3.945   0.846 -0.2331 -0.7887  1.0119
  295TIP3   OH2  890   4.378   5.770   4.074 -0.4714 -0.0951  1.1110
  295TIP3    H1  891   4.307   5.706   4.076 -0.3101 -0.5800 -2.1575
  295TIP3    H2  892   4.456   5.719   4.051 -0.3148  1.1113 -1.4634
  296TIP3   OH2  893   5.269   5.641   2.816  0.4318 -0.0968  0.1792
  296TIP3    H1  894   5.349   5.685   2.843  0.6414  0.2903 -1.0026
  296TIP3    H2  895   5.298   5.558   2.778  0.4068  0.5616 -1.3520
  297TIP3   OH2  896   0.689   4.107   3.027 -0.0546  0.1202  0.0891
  297TIP3    H1  897   0.687   4.012   3.035  0.1456  0.1296  0.2483
  297TIP3    H2  898   0.708   4.139   3.115  1.3749  0.2438 -0.2419
  298TIP3   OH2  899   4.962   2.960   3.149 -0.2829  0.1952  0.3974
  298TIP3    H1  900   4.875   2.998   3.135 -0.3377 -0.2571 -0.5422
  298TIP3    H2  901   4.956   2.918   3.235 -0.9635  0.2492  0.3798
  299TIP3   OH2  902   3.164   2.224   4.893  0.1382 -0.0018 -0.4101
  299TIP3    H1  903   3.110   2.257   4.821 -0.7143  0.0454  0.2429
  299TIP3    H2  904   3.215   2.300   4.922  2.4754 -0.5599 -2.6316
  300TIP3   OH2  905   2.395   2.095   0.234  0.2089 -0.8437  0.6934
  300TIP3    H1  906   2.489   2.074   0.240  0.4213  0.1682  1.2512
  300TIP3    H2  907   2.390   2.187   0.260 -0.8761 -0.7071  0.0652
  301TIP3   OH2  908   5.301   3.626   2.004  0.1636 -0.4537  0.8595
  301TIP3    H1  909   5.242   3.623   1.928  0.6643 -0.6185  0.4719
  301TIP3    H2  910   5.374   3.568   1.980 -0.5833 -2.0406  2.2428
  302TIP3   OH2  911   1.021   5.560   3.930 -0.2196 -0.2968 -0.1911
  302TIP3    H1  912   0.944   5.609   3.960 -0.3637  0.1952 -1.3194
  302TIP3    H2  913   1.095   5.606   3.970 -0.4727 -0.4299  0.4425
  303TIP3   OH2  914   0.305   4.468   3.465  0.5400 -0.0366  0.1083
  303TIP3    H1  915   0.307   4.408   3.539  0.0103 -1.4767 -1.0077
  303TIP3    H2  916   0.388   4.516   3.471  1.9733 -2.3240 -0.1148
  304TIP3   OH2  917   1.346   3.100   0.304  0.3343  0.0894  0.0653
  304TIP3    H1  918   1.316   3.166   0.241  0.4182  0.7558  0.7065
  304TIP3    H2  919   1.355   3.020   0.252 -1.4908  0.1249 -0.3760
  305TIP3   OH2  920   1.391   2.037   2.768 -0.5910 -0.4401 -0.1332
  305TIP3    H1  921   1.353   1.949   2.766 -1.9682  0.1064 -2.3358
  305TIP3    H2  922   1.477   2.028   2.726  0.1126 -1.0114  1.3609
  306TIP3   OH2  923   5.593   0.067   4.978 -0.3209  0.1958 -0.3362
  306TIP3    H1  924   5.515   0.118   4.957 -1.1632 -1.0732 -0.4196
  306TIP3    H2  925   5.640   0.120   5.042 -1.4339  0.8333 -0.0128
  307TIP3   OH2  926   5.975   0.151   3.956  0.0690  0.2222 -0.0774
  307TIP3    H1  927   6.047   0.127   4.014  0.8468  2.4356 -0.0551
  307TIP3    H2  928   5.961   0.244   3.971 -1.9261  0.1388 -1.0662
  308TIP3   OH2  929   0.980   2.442   1.469  0.1245  0.2178  0.6147
  308TIP3    H1  930   1.020   2.508   1.412 -1.2263  0.8273  0.3317
  308TIP3    H2  931   1.054   2.392   1.503  1.2793  2.4120  1.5232
  309TIP3   OH2  932   2.253   3.057   3.744  0.6908 -0.0295 -0.1936
  309TIP3    H1  933   2.304   3.104   3.810 -2.0434 -0.1375  2.1902
  309TIP3    H2  934   2.175   3.111   3.731  0.9430 -0.2028 -3.1619
  310TIP3   OH2  935   6.292   0.163   4.274  0.2874  0.0557 -0.5284
  310TIP3    H1  936   6.305   0.085   4.219 -0.8355  0.2217 -1.0644
  310TIP3    H2  937   6.208   0.147   4.318 -0.8749  1.6905 -1.9881
  311TIP3   OH2  938   2.678   4.455   2.722  0.3276 -0.3811  0.3552
  311TIP3    H1  939   2.700   4.378   2.669  1.9129  0.2250  0.0933
  311TIP3    H2  940   2.595   4.485   2.687 -0.4221 -2.0662  0.5746
  312TIP3   OH2  941   5.514   1.763   4.816  0.4165 -0.0583 -0.1260
  312TIP3    H1  942   5.610   1.759   4.810  0.3567 -2.8043 -0.6231
  312TIP3    H2  943   5.493   1.719   4.898 -0.4153  0.6772  0.0659
  313TIP3   OH2  944   3.254   3.866   3.518  0.2304 -0.0348  0.1452
  313TIP3    H1  945   3.216   3.812   3.587 -2.6329  0.8868 -0.5576
  313TIP3    H2  946   3.279   3.947   3.563  0.3561 -0.2502  0.4649
  314TIP3   OH2  947   1.548   1.380   1.910 -0.0565  0.2990 -0.1093
  314TIP3    H1  948   1.629   1.414   1.871  0.8081 -1.1761  0.3384
  314TIP3    H2  949   1.527   1.303   1.858 -0.7839  0.2661  0.2318
  315TIP3   OH2  950   5.898   2.021   4.647  0.8433 -0.1710 -0.5879
  315TIP3    H1  951   5.970   1.985   4.595  2.3109  0.9117  0.6015
  315TIP3    H2  952   5.932   2.023   4.737 -0.9666 -0.3363  0.1363
  316TIP3   OH2  953   5.655   0.631   0.464  0.3737  0.3008 -0.6365
  316TIP3    H1  954   5.632   0.560   0.404 -1.4226  1.3828 -1.3252
  316TIP3    H2  955   5.679   0.704   0.407  1.7060  0.4314  0.0486
  317TIP3   OH2  956   3.651   1.133   3.488  0.4331  0.1547  0.6387
  317TIP3    H1  957   3.670   1.157   3.397 -1.4660  2.3674  0.7258
  317TIP3    H2  958   3.736   1.137   3.532  1.2921 -0.3641 -0.8944
  318TIP3   OH2  959   4.452   1.702   1.299 -0.0523  0.0497 -0.2829
  318TIP3    H1  960   4.481   1.646   1.227 -1.9688 -1.5274  0.0702
  318TIP3    H2  961   4.357   1.708   1.287 -0.5397 -0.8136  2.4429
  319TIP3   OH2  962   4.376   1.692   4.488  0.3698 -0.0339  0.0339
  319TIP3    H1  963   4.428   1.752   4.542 -0.8914  0.7419  0.4176
  319TIP3    H2  964   4.328   1.639   4.551 -1.6012  1.3029 -0.2397
  320TIP3   OH2  965   5.324   0.799   3.271  0.7651 -0.2087 -0.6380
  320TIP3    H1  966   5.285   0.850   3.200  1.7319  0.2794 -0.8331
  320TIP3    H2  967   5.252   0.744   3.303  0.4749 -0.9830 -2.4652
  321TIP3   OH2  968   1.338   2.699   1.815  0.0310 -0.2083 -0.5624
  321TIP3    H1  969   1.399   2.758   1.770 -0.1872  0.6410  0.2346
  321TIP3    H2  970   1.392   2.654   1.880 -0.3399  1.2198  0.7763
  322TIP3   OH2  971   3.884   1.116   1.328  0.3887  0.1950 -0.6000
  322TIP3    H1  972   3.926   1.030   1.334  1.5126  0.7256 -0.7504
  322TIP3    H2  973   3.956   1.178   1.327 -0.3257  1.0657 -2.5331
  323TIP3   OH2  974   0.349   2.337   4.153  0.0123  0.8569 -0.4196
  323TIP3    H1  975   0.435   2.323   4.113  0.0277  0.1310 -0.1423
  323TIP3    H2  976   0.350   2.284   4.232 -1.3555 -0.6421 -1.3521
  324TIP3   OH2  977   4.674   1.940   3.193 -0.3089 -0.2165  0.1778
  324TIP3    H1  978   4.605   1.942   3.126 -0.2696  1.5989  0.1583
  324TIP3    H2  979   4.746   1.891   3.153 -1.3403 -1.6556 -0.0068
  325TIP3   OH2  980   5.861   3.534   1.064  0.0161  0.2047  0.3646
  325TIP3    H1  981   5.791   3.486   1.020  1.1450 -0.7120 -0.4789
  325TIP3    H2  982   5.848   3.515   1.157 -1.7132  1.2468  0.3779
  326TIP3   OH2  983   4.749   5.959   1.346  0.4261 -0.5422 -0.4278
  326TIP3    H1  984   4.690   5.948   1.421  0.8235 -0.0701 -0.0366
  326TIP3    H2  985   4.708   5.910   1.275  1.1737 -2.9510  0.6995
  327TIP3   OH2  986   0.208   3.407   1.160  0.3538 -0.0346 -0.1797
  327TIP3    H1  987   0.190   3.327   1.208  2.1313 -1.1092 -1.2025
  327TIP3    H2  988   0.248   3.466   1.224  0.7915 -0.6742  0.1370
  328TIP3   OH2  989   3.276   2.757   1.225  0.4172 -0.5202 -0.0013
  328TIP3    H1  990   3.245   2.841   1.192  0.8367 -0.2227  0.3522
  328TIP3    H2  991   3.197   2.715   1.260  0.6424  1.1380  2.8480
  329TIP3   OH2  992   2.553   4.786   4.786  0.5186  0.1268 -0.0661
  329TIP3    H1  993   2.619   4.734   4.740  0.6768  1.3250 -1.2599
  329TIP3    H2  994   2.519   4.846   4.719  0.0724  1.2938  1.1635
  330TIP3   OH2  995   5.850   1.015   2.812 -0.0296 -0.1628 -0.6513
  330TIP3    H1  996   5.772   1.044   2.765 -0.8069 -1.8694 -0.4729
  330TIP3    H2  997   5.818   0.952   2.876  1.4255 -0.3976 -0.1159
  331TIP3   OH2  998   0.860   1.739   4.585  0.1939  0.2010 -0.0065
  331TIP3    H1  999   0.804   1.815   4.598 -0.8088 -0.3502 -1.0148
  331TIP3    H2 1000   0.825   1.673   4.645 -1.1616 -0.6131 -1.6393
  332TIP3   OH2 1001   3.660   0.217   3.968 -0.0871 -0.2230 -0.3374
  332TIP3    H1 1002   3.754   0.230   3.956 -0.1224 -1.5631 -2.4438
  332TIP3    H2 1003   3.621   0.248   3.887 -1.6699  1.6798  1.0540
  333TIP3   OH2 1004   4.947   3.935   4.425  0.7146 -0.7101 -0.4241
  333TIP3    H1 1005   4.925   3.893   4.508 -1.0865 -0.6486 -0.8329
  333TIP3    H2 1006   4.934   4.028   4.440  0.9965 -0.6389 -0.6044
  334TIP3   OH2 1007   1.303   0.999   1.154  0.8824 -0.5673 -0.0631
  334TIP3    H1 1008   1.392   0.966   1.158  0.6649 -1.1170  0.5882
  334TIP3    H2 1009   1.251   0.932   1.199  0.1329 -0.3017 -0.5191
  335TIP3   OH2 1010   5.897   1.992   3.818 -0.1716  0.0177 -0.0948
  335TIP3    H1 1011   5.974   2.031   3.776 -0.1909  0.5145  0.3182
  335TIP3    H2 1012   5.929   1.911   3.857  0.2047  0.3522  0.2969
  336TIP3   OH2 1013   2.606   3.986   4.065  0.0778 -0.4227  0.2157
  336TIP3    H1 1014   2.681   4.038   4.093  1.4449 -2.4282  0.4974
  336TIP3    H2 1015   2.619   3.973   3.971 -0.0564 -0.5574  0.2152
  337TIP3   OH2 1016   0.871   1.592   3.694  0.0701  0.1764  0.1773
  337TIP3    H1 1017   0.906   1.607   3.606  0.5293 -1.8960 -0.0611
  337TIP3    H2 1018   0.792   1.539   3.679 -0.8853  1.3354  0.9485
  338TIP3   OH2 1019   4.393   5.170   1.898  1.1691 -0.0509  0.2833
  338TIP3    H1 1020   4.374   5.078   1.917  0.2544  0.1077  0.1714
  338TIP3    H2 1021   4.369   5.182   1.806 -0.5055  0.7263  0.7689
  339TIP3   OH2 1022   2.751   4.974   2.230  0.2057 -0.0928  0.3639
  339TIP3    H1 1023   2.671   4.922   2.220 -0.9269  1.3125  1.6913
  339TIP3    H2 1024   2.783   4.953   2.318 -1.0960  2.4187  1.5500
  340TIP3   OH2 1025   3.990   3.217   2.132 -0.0709 -0.3392  0.1723
  340TIP3    H1 1026   3.896   3.234   2.138 -0.1282  0.2229 -1.5341
  340TIP3    H2 1027   4.027   3.259   2.210 -0.8475  3.0772 -1.0992
  341TIP3   OH2 1028   0.271   2.454   2.117  0.1673 -0.0897  0.1842
  341TIP3    H1 1029   0.297   2.514   2.047  0.5577 -0.2833  0.1625
  341TIP3    H2 1030   0.241   2.376   2.072  0.7676 -0.3560  0.2360
  342TIP3   OH2 1031   1.832   1.745   4.403 -0.1592 -0.3652 -0.8410
  342TIP3    H1 1032   1.771   1.687   4.448  0.4263 -0.2327  0.1589
  342TIP3    H2 1033   1.780   1.822   4.380 -0.0126  0.5214  1.5647
  343TIP3   OH2 1034   5.380   1.107   0.781 -0.4829  0.0995  0.4425
  343TIP3    H1 1035   5.456   1.057   0.749  0.1151  0.8044  0.7420
  343TIP3    H2 1036   5.312   1.089   0.717 -0.0443 -0.4999  0.1303
  344TIP3   OH2 1037   5.265   2.233   1.462 -0.2033 -0.4777 -0.3516
  344TIP3    H1 1038   5.280   2.323   1.491 -0.8363  0.1277 -1.8130
  344TIP3    H2 1039   5.349   2.189   1.478  0.2475  0.4738 -0.0071
  345TIP3   OH2 1040   6.238   1.354   1.962 -0.0886  0.7167  1.3073
  345TIP3    H1 1041   6.289   1.274   1.970 -1.8731 -0.6504 -0.0211
  345TIP3    H2 1042   6.192   1.362   2.045  0.2813  0.5008  1.5349
  346TIP3   OH2 1043   3.642   2.018   0.207 -0.1680  0.4352 -0.3415
  346TIP3    H1 1044   3.605   1.930   0.200  0.6649  0.0269  0.1996
  346TIP3    H2 1045   3.578   2.067   0.260 -0.8230  0.2783 -0.9713
  347TIP3   OH2 1046   3.844   0.120   4.341 -0.4162  0.2414  0.0538
  347TIP3    H1 1047   3.904   0.131   4.268 -0.2608  2.0355  0.4017
  347TIP3    H2 1048   3.886   0.054   4.397  0.2094 -0.0284 -0.7235
  348TIP3   OH2 1049   5.741   1.356   0.874 -0.1390  0.6211 -0.4052
  348TIP3    H1 1050   5.696   1.326   0.795  0.4023  0.9406 -0.8509
  348TIP3    H2 1051   5.690   1.432   0.903  1.0625  2.1042 -1.9371
  349TIP3   OH2 1052   0.176   5.812   1.915 -0.2996 -0.2755 -0.7668
  349TIP3    H1 1053   0.178   5.865   1.835 -0.1081  0.7428 -0.1072
  349TIP3    H2 1054   0.249   5.845   1.967 -1.6605  0.5142  0.7176
  350TIP3   OH2 1055   3.248   4.650   1.366 -0.0840  0.3650  0.1958
  350TIP3    H1 1056   3.169   4.686   1.328 -0.1623 -0.5539 -0.5584
  350TIP3    H2 1057   3.319   4.699   1.326 -0.1999 -0.1061 -0.6088
  351TIP3   OH2 1058   5.660   3.830   1.705 -0.0311  0.6055 -0.4509
  351TIP3    H1 1059   5.591   3.765   1.694  2.0397 -2.1735  1.5732
  351TIP3    H2 1060   5.733   3.798   1.652  0.2884  2.6465 -1.3358
  352TIP3   OH2 1061   2.505   5.900   1.207 -0.3976 -0.0447  0.0280
  352TIP3    H1 1062   2.526   5.884   1.299 -1.6506 -0.8107  0.2061
  352TIP3    H2 1063   2.438   5.968   1.209  0.3591  0.7359 -0.3988
  353TIP3   OH2 1064   5.640   1.990   0.772  0.3156  0.6343  0.1795
  353TIP3    H1 1065   5.684   1.934   0.836 -0.0776  0.3296  0.1828
  353TIP3    H2 1066   5.561   1.943   0.748 -0.1475  1.2958  0.3675
  354TIP3   OH2 1067   5.458   2.733   3.941  0.5352 -0.4263  0.2240
  354TIP3    H1 1068   5.449   2.699   3.852 -0.0902 -0.2537  0.2165
  354TIP3    H2 1069   5.552   2.733   3.957  0.7591  0.6843 -0.8908
  355TIP3   OH2 1070   1.359   0.995   1.668  0.3829 -0.3966  0.3007
  355TIP3    H1 1071   1.378   0.931   1.598 -1.5017 -0.8596  0.1491
  355TIP3    H2 1072   1.280   1.039   1.638  0.1554  0.1449  1.6651
  356TIP3   OH2 1073   2.698   0.554   1.993 -0.3620 -0.0299  0.7815
  356TIP3    H1 1074   2.719   0.484   2.055 -0.9801 -0.7375  0.2215
  356TIP3    H2 1075   2.603   0.563   1.998 -0.3590  0.2862  0.3420
  357TIP3   OH2 1076   5.679   0.305   1.141 -0.2093  0.6853  0.2920
  357TIP3    H1 1077   5.686   0.315   1.236  0.3881 -3.7941  0.9284
  357TIP3    H2 1078   5.586   0.312   1.123 -0.5589 -0.3321  1.5602
  358TIP3   OH2 1079   2.794   3.061   4.609  0.1674 -0.1007 -0.5661
  358TIP3    H1 1080   2.782   3.119   4.684  0.4861  0.3738 -0.8818
  358TIP3    H2 1081   2.829   3.117   4.540 -0.4067 -0.4681 -1.1725
  359TIP3   OH2 1082   0.111   1.660   1.548 -0.1707 -0.1283  0.8195
  359TIP3    H1 1083   0.040   1.653   1.485  0.9358 -1.1215 -0.3858
  359TIP3    H2 1084   0.069   1.681   1.631 -1.8971 -1.2556  0.2654
  360TIP3   OH2 1085   1.813   4.726   1.060  0.3516  0.1744  0.0854
  360TIP3    H1 1086   1.778   4.647   1.101 -0.9079  0.5511 -0.2099
  360TIP3    H2 1087   1.908   4.720   1.073  0.0596  0.0247  2.5467
  361TIP3   OH2 1088   2.980   2.189   3.061 -0.0191  0.3038  0.0468
  361TIP3    H1 1089   3.025   2.273   3.070  0.3815  0.3641 -2.0457
  361TIP3    H2 1090   2.950   2.187   2.970 -0.2513 -1.7048  0.1102
  362TIP3   OH2 1091   4.048   2.612   1.494  0.2694  0.1761 -0.3538
  362TIP3    H1 1092   3.978   2.657   1.541  1.3533  1.2836  0.2510
  362TIP3    H2 1093   4.096   2.681   1.450  1.9246 -0.3538  0.5277
  363TIP3   OH2 1094   4.938   4.074   0.835  0.7486  0.1592  0.1596
  363TIP3    H1 1095   4.928   4.010   0.765  0.1630 -1.4484  1.6438
  363TIP3    H2 1096   5.031   4.095   0.835  0.8292 -0.1630 -0.8094
  364TIP3   OH2 1097   5.730   3.859   3.011  0.8116 -0.8069  0.1924
  364TIP3    H1 1098   5.701   3.897   2.927 -0.8644 -1.1305  0.5920
  364TIP3    H2 1099   5.700   3.769   3.007  2.8153 -1.5202  0.1931
  365TIP3   OH2 1100   3.690   5.162   4.739  0.2963  0.3308  0.0178
  365TIP3    H1 1101   3.768   5.216   4.729 -0.4099  1.7270  1.5168
  365TIP3    H2 1102   3.624   5.204   4.685  0.3490 -0.3784 -0.6101
  366TIP3   OH2 1103   0.493   0.282   1.236 -0.3885 -0.0280  0.1177
  366TIP3    H1 1104   0.535   0.313   1.156 -0.8145  0.2364 -0.0027
  366TIP3    H2 1105   0.433   0.214   1.206 -0.0126 -0.4446  0.2968
  367TIP3   OH2 1106   6.089   3.007   1.230  0.0917  0.1416 -0.0536
  367TIP3    H1 1107   6.076   3.082   1.172  0.2506  0.1210 -0.1164
  367TIP3    H2 1108   6.002   2.987   1.264  0.1261  0.6867  0.3740
  368TIP3   OH2 1109   2.186   0.095   4.384 -0.4424  0.0309  0.4157
  368TIP3    H1 1110   2.174   0.049   4.466 -0.3239 -1.4743 -0.3782
  368TIP3    H2 1111   2.162   0.031   4.316 -1.0563  1.3962 -0.7088
  369TIP3   OH2 1112   4.840   2.953   0.482 -0.0587 -0.3473  0.2593
  369TIP3    H1 1113   4.747   2.970   0.496  0.3448  1.5883  0.8090
  369TIP3    H2 1114   4.852   2.862   0.509 -2.2687 -1.5687 -2.3149
  370TIP3   OH2 1115   4.676   3.884   1.415  0.4902 -0.1595 -0.1935
  370TIP3    H1 1116   4.714   3.857   1.331  1.9633  0.7489  0.1392
  370TIP3    H2 1117   4.662   3.978   1.406  0.2778 -0.1295  0.4395
  371TIP3   OH2 1118   0.218   3.668   2.430 -0.9014  0.0259 -0.1521
  371TIP3    H1 1119   0.213   3.590   2.374  0.2944  0.3092 -0.6832
  371TIP3    H2 1120   0.310   3.674   2.453 -1.0998  0.9230  0.4179
  372TIP3   OH2 1121   1.303   0.914   4.794  0.8791 -0.6093  0.2265
  372TIP3    H1 1122   1.291   0.819   4.793  2.4030 -0.8202  0.0035
  372TIP3    H2 1123   1.230   0.947   4.741 -0.8350 -1.4647  1.9234
  373TIP3   OH2 1124   1.578   2.676   3.227  0.6889 -0.3214  0.1016
  373TIP3    H1 1125   1.606   2.759   3.189  0.0056 -0.3239 -0.4115
  373TIP3    H2 1126   1.539   2.700   3.311 -4.0409  0.5655 -2.0267
  374TIP3   OH2 1127   5.104   4.136   0.097 -0.1806 -0.0272 -0.2866
  374TIP3    H1 1128   5.162   4.211   0.086 -1.0400  0.4076 -2.3794
  374TIP3    H2 1129   5.125   4.078   0.023 -1.3034 -0.6130 -0.1742
  375TIP3   OH2 1130   0.274   4.065   0.481  0.4277 -0.2178 -0.7283
  375TIP3    H1 1131   0.205   4.131   0.489 -0.1286 -0.4086 -3.0407
  375TIP3    H2 1132   0.246   3.994   0.539  0.4915  1.0825  0.9837
  376TIP3   OH2 1133   1.939   0.796   2.864 -0.1930 -0.6342  0.8545
  376TIP3    H1 1134   2.000   0.857   2.906 -0.8038 -1.1215  2.5082
  376TIP3    H2 1135   1.963   0.710   2.898  0.1721 -1.2644 -0.8839
  377TIP3   OH2 1136   3.777   0.180   0.298  0.1226  0.0918 -0.0765
  377TIP3    H1 1137   3.791   0.272   0.277 -0.3195  0.1253 -0.2489
  377TIP3    H2 1138   3.723   0.182   0.377 -0.9793  0.0042 -0.8017
  378TIP3   OH2 1139   5.114   2.962   4.463 -0.7957 -0.0537  0.0414
  378TIP3    H1 1140   5.052   3.031   4.441  0.2702  0.7627 -0.5349
  378TIP3    H2 1141   5.101   2.895   4.395 -3.1610 -1.3951  1.6701
  379TIP3   OH2 1142   1.039   2.546   0.228 -0.2904  0.4234 -0.0836
  379TIP3    H1 1143   0.962   2.595   0.199 -0.9819 -0.5372  0.0808
  379TIP3    H2 1144   1.052   2.479   0.161 -1.0671 -0.9379  1.0534
  380TIP3   OH2 1145   1.074   0.562   2.533 -0.4050  0.4189  0.2915
  380TIP3    H1 1146   1.014   0.550   2.460  1.1545  0.6176 -1.0806
  380TIP3    H2 1147   1.127   0.638   2.509  2.5216 -1.5563 -0.1569
  381TIP3   OH2 1148   0.606   5.644   3.604  0.2893 -0.3378 -0.4998
  381TIP3    H1 1149   0.611   5.729   3.648  0.9758 -0.9996  0.7387
  381TIP3    H2 1150   0.512   5.623   3.603 -0.0290  0.9475 -1.8881
  382TIP3   OH2 1151   0.720   4.254   2.414 -0.4842 -0.0657  0.0928
  382TIP3    H1 1152   0.631   4.274   2.444 -0.6498 -1.6851  0.7705
  382TIP3    H2 1153   0.776   4.313   2.465 -1.0760  0.0288  0.6443
  383TIP3   OH2 1154   0.786   3.578   1.166  0.1775  0.5277  0.1011
  383TIP3    H1 1155   0.757   3.602   1.254 -2.1215 -0.2918 -0.3575
  383TIP3    H2 1156   0.706   3.582   1.113  1.3260  0.0584 -1.7489
  384TIP3   OH2 1157   4.131   2.241   4.939  0.6840  0.2978 -0.2594
  384TIP3    H1 1158   4.119   2.312   5.003 -2.7592 -0.9429  0.7186
  384TIP3    H2 1159   4.092   2.275   4.859  0.1662 -0.0221 -0.1471
  385TIP3   OH2 1160   5.160   0.171   0.870 -0.8632 -0.3476 -0.1756
  385TIP3    H1 1161   5.106   0.097   0.897 -1.1193  0.3748  1.3947
  385TIP3    H2 1162   5.098   0.232   0.830 -0.6801 -0.8617 -1.2966
  386TIP3   OH2 1163   2.039   0.180   0.334  0.7672 -0.5708  0.0434
  386TIP3    H1 1164   2.028   0.272   0.357 -0.3338 -0.3790 -1.1732
  386TIP3    H2 1165   2.073   0.181   0.245 -1.3933 -1.3214 -0.8587
  387TIP3   OH2 1166   3.141   2.775   3.335  0.4375 -0.7102  0.1350
  387TIP3    H1 1167   3.059   2.770   3.383  0.5682 -1.1190  0.3223
  387TIP3    H2 1168   3.186   2.693   3.355  0.9935 -0.3937  0.2169
  388TIP3   OH2 1169   6.069   1.734   4.731  0.1163  0.6104  0.0476
  388TIP3    H1 1170   6.082   1.812   4.786 -2.5464  0.3685  1.1754
  388TIP3    H2 1171   6.091   1.660   4.789  3.4813  0.3677 -1.2679
  389TIP3   OH2 1172   3.812   2.197   1.364 -0.3937  0.2426  0.4798
  389TIP3    H1 1173   3.805   2.120   1.420 -2.5798  1.0925  1.4638
  389TIP3    H2 1174   3.740   2.190   1.302 -0.9261  1.6883  0.8831
  390TIP3   OH2 1175   0.759   2.448   5.068 -0.6252  0.2804 -0.0532
  390TIP3    H1 1176   0.749   2.378   5.132 -4.2478 -0.5818 -1.3129
  390TIP3    H2 1177   0.766   2.528   5.121 -0.2673 -0.6585  1.3725
  391TIP3   OH2 1178   3.246   0.444   4.689  0.2174  0.2657 -0.7382
  391TIP3    H1 1179   3.325   0.389   4.680 -0.5140 -0.7244 -1.3309
  391TIP3    H2 1180   3.175   0.381   4.698 -0.4628  1.1606  0.3343
  392TIP3   OH2 1181   4.284   4.130   3.135 -0.4628  0.4781  0.3160
  392TIP3    H1 1182   4.251   4.175   3.212  0.1581  1.3938  0.0556
  392TIP3    H2 1183   4.270   4.192   3.063 -1.4734 -0.5384 -0.4105
  393TIP3   OH2 1184   0.943   1.110   3.846  0.6986  0.0297 -0.3792
  393TIP3    H1 1185   0.931   1.199   3.813 -0.5854 -0.3790 -1.0723
  393TIP3    H2 1186   1.028   1.083   3.811  1.5220  1.2630  0.5534
  394TIP3   OH2 1187   0.802   0.081   1.040 -0.0505  0.4883  0.3425
  394TIP3    H1 1188   0.801   0.018   1.113 -0.4620  0.0957 -0.0002
  394TIP3    H2 1189   0.825   0.164   1.081 -1.3430  0.4913  1.1040
  395TIP3   OH2 1190   1.290   5.031   0.441 -0.4960 -0.7882 -0.4759
  395TIP3    H1 1191   1.303   5.122   0.414  1.4271 -0.5101  1.1488
  395TIP3    H2 1192   1.377   5.002   0.469 -1.9558 -1.2419  4.4262
  396TIP3   OH2 1193   4.170   1.572   4.103 -0.1736 -0.7224  0.2667
  396TIP3    H1 1194   4.193   1.571   4.010 -3.4644 -1.1876 -0.6513
  396TIP3    H2 1195   4.189   1.661   4.131  0.8665 -0.5682 -0.8211
  397TIP3   OH2 1196   1.184   5.875   3.926  0.0738  0.3598  0.2227
  397TIP3    H1 1197   1.249   5.939   3.956 -0.5610  0.7850  0.7061
  397TIP3    H2 1198   1.101   5.905   3.963 -0.0457 -1.4449  1.5395
  398TIP3   OH2 1199   2.081   2.844   1.615  0.3077  0.5448 -0.3827
  398TIP3    H1 1200   2.050   2.807   1.532 -1.2327  0.8834  0.0236
  398TIP3    H2 1201   2.020   2.812   1.680  0.5684  1.5664  0.3935
  399TIP3   OH2 1202   5.482   3.712   2.387  0.2755 -0.5050 -0.0834
  399TIP3    H1 1203   5.567   3.672   2.375  0.9619  0.9432 -0.2957
  399TIP3    H2 1204   5.454   3.736   2.298 -0.9174 -2.0088 -0.1610
  400TIP3   OH2 1205   0.645   4.575   0.700 -0.8022 -0.0041 -0.1505
  400TIP3    H1 1206   0.622   4.663   0.669 -1.3972  0.1463  0.6998
  400TIP3    H2 1207   0.691   4.535   0.626 -1.4422  0.6483 -0.9174
  401TIP3   OH2 1208   2.840   4.249   0.852  0.3163  0.1017 -0.6095
  401TIP3    H1 1209   2.804   4.163   0.831  0.4056  0.0449 -0.5278
  401TIP3    H2 1210   2.771   4.292   0.902  0.9202 -0.5504  0.8144
  402TIP3   OH2 1211   3.335   5.385   3.789  0.1072 -0.0271  0.3486
  402TIP3    H1 1212   3.410   5.430   3.827 -0.3988  0.5387  0.7033
  402TIP3    H2 1213   3.269   5.454   3.780 -0.0419 -0.3094 -0.8603
  403TIP3   OH2 1214   1.772   0.545   0.339  0.1369 -0.1770  0.0094
  403TIP3    H1 1215   1.760   0.518   0.247  0.5621 -1.6003  0.3366
  403TIP3    H2 1216   1.700   0.502   0.385 -0.8502  1.6026  0.1803
  404TIP3   OH2 1217   0.435   2.791   2.566 -0.8155  0.0757 -0.6721
  404TIP3    H1 1218   0.526   2.783   2.538 -0.4476  0.5791  0.3423
  404TIP3    H2 1219   0.414   2.707   2.605 -0.0092  0.7238  1.2549
  405TIP3   OH2 1220   0.155   2.970   0.953 -0.8194  0.0828 -0.0591
  405TIP3    H1 1221   0.112   3.036   0.899 -1.9421  2.4811  3.4243
  405TIP3    H2 1222   0.086   2.907   0.973 -1.1749  0.7115  0.7496
  406TIP3   OH2 1223   3.299   2.769   1.685  0.3532 -0.6921  0.1474
  406TIP3    H1 1224   3.218   2.806   1.651  0.9510 -0.6874 -1.3313
  406TIP3    H2 1225   3.345   2.844   1.723  0.0546 -0.5468  0.2332
  407TIP3   OH2 1226   1.289   4.287   4.971 -0.2730  0.1047 -0.0066
  407TIP3    H1 1227   1.343   4.225   4.921  1.4024  2.4731 -1.3024
  407TIP3    H2 1228   1.352   4.345   5.014 -1.7598  1.6883  0.1519
  408TIP3   OH2 1229   1.287   5.061   1.550  0.2421 -0.0465  0.2803
  408TIP3    H1 1230   1.312   5.084   1.460  0.4278  1.0636  0.5991
  408TIP3    H2 1231   1.194   5.084   1.555  0.4032  0.5654  0.5715
  409TIP3   OH2 1232   5.103   1.440   0.367 -0.1233  0.0081  0.6007
  409TIP3    H1 1233   5.025   1.407   0.324 -0.6658 -1.0229  2.2740
  409TIP3    H2 1234   5.158   1.362   0.380  1.1990  0.6993 -0.4994
  410TIP3   OH2 1235   3.711   0.117   3.287  0.5352  0.2233  0.3251
  410TIP3    H1 1236   3.630   0.164   3.266  0.9655  0.5410 -0.6332
  410TIP3    H2 1237   3.735   0.072   3.206  0.9762 -0.3885  0.7865
  411TIP3   OH2 1238   0.462   4.834   2.341 -0.5185  0.4123 -0.2015
  411TIP3    H1 1239   0.466   4.747   2.301 -1.5714  0.9773 -1.6061
  411TIP3    H2 1240   0.478   4.818   2.434 -1.2418 -1.3756 -0.3456
  412TIP3   OH2 1241   3.028   0.243   3.823  0.7453 -0.1984 -0.1650
  412TIP3    H1 1242   3.027   0.202   3.737  2.9486 -0.1099 -0.2964
  412TIP3    H2 1243   2.941   0.282   3.833  0.6473  0.3555 -2.6145
  413TIP3   OH2 1244   3.785   1.471   1.290 -0.0853 -0.3678  0.4156
  413TIP3    H1 1245   3.726   1.539   1.324 -1.8210 -1.7871  0.3897
  413TIP3    H2 1246   3.848   1.457   1.360 -2.1155 -1.4877  2.1534
  414TIP3   OH2 1247   1.283   0.609   4.740 -0.0267 -0.0701  0.1810
  414TIP3    H1 1248   1.307   0.606   4.647 -0.8688  0.3435 -0.0655
  414TIP3    H2 1249   1.307   0.523   4.774  0.8411 -0.0166 -0.2761
  415TIP3   OH2 1250   0.789   2.925   1.655 -0.0328  0.7983 -1.1052
  415TIP3    H1 1251   0.864   2.908   1.597  0.6971  2.4305 -0.6954
  415TIP3    H2 1252   0.756   2.838   1.678  3.2820 -0.1450  0.6867
  416TIP3   OH2 1253   3.924   0.918   4.640  0.2509  0.2330  0.5457
  416TIP3    H1 1254   3.911   1.003   4.596 -1.6575  1.7665  3.7156
  416TIP3    H2 1255   4.019   0.913   4.654  0.5258  1.2548 -0.7229
  417TIP3   OH2 1256   3.787   2.825   5.073 -0.4212 -0.5100  0.4860
  417TIP3    H1 1257   3.846   2.893   5.040 -2.3858  1.1045  0.1119
  417TIP3    H2 1258   3.814   2.746   5.026  0.5563  0.4753 -0.6984
  418TIP3   OH2 1259   6.223   3.804   2.406  0.6153  0.4032 -0.3987
  418TIP3    H1 1260   6.188   3.844   2.326  0.1024 -0.1689 -0.4686
  418TIP3    H2 1261   6.308   3.770   2.380  2.1610  3.4505  0.2356
  419TIP3   OH2 1262   2.146   3.805   3.638  0.0100  0.4719  0.1274
  419TIP3    H1 1263   2.115   3.786   3.726 -0.0995  1.1508  0.2348
  419TIP3    H2 1264   2.076   3.856   3.598  0.1844  0.4147 -0.2594
  420TIP3   OH2 1265   5.323   5.382   1.701 -0.2660 -0.1670  0.3486
  420TIP3    H1 1266   5.381   5.424   1.764  1.4466 -1.9404  0.0675
  420TIP3    H2 1267   5.258   5.337   1.754  0.0561 -0.1356  0.7730
  421TIP3   OH2 1268   4.765   5.586   3.872  0.1549  0.1883 -0.1276
  421TIP3    H1 1269   4.691   5.640   3.847 -1.3963 -1.6082  0.3073
  421TIP3    H2 1270   4.781   5.530   3.796  1.2903  0.7614 -0.3300
  422TIP3   OH2 1271   2.815   0.411   1.497  0.2820  0.4049  0.3035
  422TIP3    H1 1272   2.807   0.377   1.586  0.9163  0.4862  0.3965
  422TIP3    H2 1273   2.724   0.422   1.467  0.0515 -0.8486  0.4606
  423TIP3   OH2 1274   4.888   1.615   1.199 -0.5518 -0.3286 -0.0223
  423TIP3    H1 1275   4.807   1.606   1.248 -0.0269  1.5720  1.3206
  423TIP3    H2 1276   4.884   1.704   1.162 -0.2200 -1.1392 -2.1443
  424TIP3   OH2 1277   3.086   3.024   1.281  0.1762  0.0663 -0.1907
  424TIP3    H1 1278   3.152   3.030   1.212 -0.4641 -2.2009 -1.0884
  424TIP3    H2 1279   3.008   3.064   1.243  0.0134 -0.5800 -0.5513
  425TIP3   OH2 1280   1.218   0.595   3.191 -0.1079 -0.3132  0.0891
  425TIP3    H1 1281   1.184   0.570   3.105 -0.9556  0.3122  0.2275
  425TIP3    H2 1282   1.140   0.614   3.242  0.4453  1.1218  0.4432
  426TIP3   OH2 1283   1.672   2.402   1.277 -0.3137  0.8604 -0.2674
  426TIP3    H1 1284   1.592   2.435   1.237  0.3006  1.4869 -1.0101
  426TIP3    H2 1285   1.662   2.422   1.370 -1.1211  0.7096 -0.3162
  427TIP3   OH2 1286   5.633   3.549   3.545 -0.6961 -0.0181 -0.4021
  427TIP3    H1 1287   5.592   3.598   3.474  0.5936  0.5777 -0.7674
  427TIP3    H2 1288   5.567   3.548   3.614 -0.8349  2.1965 -0.4112
  428TIP3   OH2 1289   2.767   5.267   4.289  0.7066  0.0192  0.2182
  428TIP3    H1 1290   2.687   5.292   4.335  0.4508 -1.3997  0.5686
  428TIP3    H2 1291   2.745   5.187   4.242  1.8728 -0.3320  0.2238
  429TIP3   OH2 1292   5.192   1.752   1.069  0.3349  0.0305  0.2212
  429TIP3    H1 1293   5.131   1.801   1.014 -0.9723 -1.1846  0.5389
  429TIP3    H2 1294   5.166   1.774   1.159 -0.6190 -1.5940  0.3790
  430TIP3   OH2 1295   4.228   4.946   1.646  0.0665  0.8770 -0.0293
  430TIP3    H1 1296   4.226   4.926   1.739 -0.6852 -0.4966 -0.3026
  430TIP3    H2 1297   4.306   4.902   1.613 -2.3070 -3.2329 -0.8801
  431TIP3   OH2 1298   2.860   3.236   3.740 -0.3660 -0.1701  0.1587
  431TIP3    H1 1299   2.778   3.241   3.790 -0.4923 -2.9547  0.3604
  431TIP3    H2 1300   2.922   3.196   3.799  0.4004 -0.5609 -0.8829
  432TIP3   OH2 1301   4.604   1.597   0.147 -0.5913  0.3384  0.1532
  432TIP3    H1 1302   4.667   1.668   0.155  0.7887 -0.9705  1.4928
  432TIP3    H2 1303   4.643   1.538   0.081  0.1676 -0.9798  1.7095
  433TIP3   OH2 1304   3.663   3.036   0.137 -0.2759  0.0335 -0.1905
  433TIP3    H1 1305   3.604   3.094   0.185  1.3891  0.6093  1.2507
  433TIP3    H2 1306   3.640   2.948   0.167  0.9618  0.4021  2.0397
  434TIP3   OH2 1307   3.893   5.391   1.875 -0.5660  0.1965  0.8009
  434TIP3    H1 1308   3.836   5.318   1.899 -1.1270  0.7893  1.2849
  434TIP3    H2 1309   3.935   5.417   1.956 -1.0194  0.9675  0.7981
  435TIP3   OH2 1310   1.372   4.273   1.357  0.0682  0.3896  0.3723
  435TIP3    H1 1311   1.285   4.259   1.394 -0.0127 -0.0077  0.0364
  435TIP3    H2 1312   1.432   4.248   1.428 -0.0855  0.3662  0.4954
  436TIP3   OH2 1313   1.497   3.527   0.056  0.4354  0.4237  0.1736
  436TIP3    H1 1314   1.498   3.612   0.101 -0.7366  0.2775  0.5311
  436TIP3    H2 1315   1.486   3.463   0.126  0.1253  0.0763 -0.1855
  437TIP3   OH2 1316   6.195   0.850   3.232 -0.4589  0.5603  0.7049
  437TIP3    H1 1317   6.223   0.836   3.323  0.0731  0.0233  0.4620
  437TIP3    H2 1318   6.108   0.810   3.228 -1.1987  2.0038  1.3877
  438TIP3   OH2 1319   6.173   4.922   5.073 -0.5522 -0.4900 -0.1142
  438TIP3    H1 1320   6.130   4.928   5.159 -1.9820 -0.8074 -0.7679
  438TIP3    H2 1321   6.177   5.013   5.043  3.0169  0.0953  1.6365
  439TIP3   OH2 1322   3.259   1.654   3.294 -0.1156 -0.1567 -0.2674
  439TIP3    H1 1323   3.249   1.584   3.359  1.5330 -0.1892 -0.0153
  439TIP3    H2 1324   3.227   1.616   3.212 -3.3458  0.2512  0.6532
  440TIP3   OH2 1325   4.713   3.221   3.815 -0.1412  0.2962 -0.4094
  440TIP3    H1 1326   4.793   3.192   3.859 -0.8026  0.9648  1.3361
  440TIP3    H2 1327   4.655   3.145   3.819 -0.3788  0.5095  0.3642
  441TIP3   OH2 1328   0.555   0.557   0.373  0.5672 -0.1427 -0.4248
  441TIP3    H1 1329   0.478   0.502   0.387 -1.3200  2.1310 -1.2210
  441TIP3    H2 1330   0.576   0.591   0.460  1.5185 -1.7126  0.0071
  442TIP3   OH2 1331   1.850   5.477   2.020  0.2276  0.7337  0.2253
  442TIP3    H1 1332   1.780   5.465   2.085  0.1964  1.0267  0.2446
  442TIP3    H2 1333   1.924   5.428   2.056 -0.3755 -0.7279 -0.4494
  443TIP3   OH2 1334   3.849   0.697   0.966 -0.3443 -0.4331  0.4386
  443TIP3    H1 1335   3.914   0.760   0.933 -1.1772  0.4992  0.5201
  443TIP3    H2 1336   3.805   0.744   1.037 -0.7719 -1.2352  0.7082
  444TIP3   OH2 1337   5.982   2.228   3.456  0.3024  0.7165 -0.5655
  444TIP3    H1 1338   5.929   2.178   3.395  1.7858 -1.5104 -0.1352
  444TIP3    H2 1339   6.041   2.280   3.401  1.0135 -0.5834 -1.0569
  445TIP3   OH2 1340   4.463   2.579   4.492 -0.0387 -0.1496 -0.6143
  445TIP3    H1 1341   4.512   2.607   4.569 -1.2447  0.3440  0.0044
  445TIP3    H2 1342   4.415   2.657   4.465 -3.8939 -1.5281  1.4386
  446TIP3   OH2 1343   4.677   3.772   0.970  0.2281  0.3133 -0.4065
  446TIP3    H1 1344   4.637   3.706   1.026  1.7909 -0.9131 -0.6456
  446TIP3    H2 1345   4.761   3.791   1.012  1.9230 -1.3858 -2.7263
  447TIP3   OH2 1346   3.510   5.972   0.667 -0.0305 -0.4738 -0.8523
  447TIP3    H1 1347   3.594   5.991   0.709 -0.8370  0.3812  0.4471
  447TIP3    H2 1348   3.533   5.922   0.588  1.6254 -0.9657 -0.0977
  448TIP3   OH2 1349   4.449   0.006   1.961 -0.4624  0.6157  0.0321
  448TIP3    H1 1350   4.501   0.080   1.992  1.2311  1.4947 -4.1851
  448TIP3    H2 1351   4.359   0.038   1.961 -0.1319  1.5842  1.0314
  449TIP3   OH2 1352   2.753   1.510   1.102  0.8438  0.1251  0.0466
  449TIP3    H1 1353   2.835   1.490   1.056  0.3651 -0.5550 -0.5404
  449TIP3    H2 1354   2.751   1.606   1.107  3.3101  0.1932  3.1065
  450TIP3   OH2 1355   5.533   4.772   1.811  0.1220 -0.7470 -0.1108
  450TIP3    H1 1356   5.621   4.790   1.779 -0.2089 -0.7154 -1.0442
  450TIP3    H2 1357   5.534   4.799   1.903  0.5398  1.0554 -0.6221
  451TIP3   OH2 1358   5.938   3.665   3.568 -0.0606 -0.0722  0.4187
  451TIP3    H1 1359   5.884   3.739   3.542 -0.6195 -0.6479 -0.0839
  451TIP3    H2 1360   5.895   3.629   3.646  0.4390  0.3725  0.9064
  452TIP3   OH2 1361   5.957   0.722   1.192  0.0232  0.0767 -0.2323
  452TIP3    H1 1362   5.967   0.733   1.287 -1.5408  0.3830 -0.0846
  452TIP3    H2 1363   6.000   0.638   1.173 -0.5081 -0.4666  0.8986
  453TIP3   OH2 1364   1.080   5.073   3.549  0.3567 -0.3722  0.0090
  453TIP3    H1 1365   1.121   5.157   3.529  0.9198 -0.4004  0.9580
  453TIP3    H2 1366   0.989   5.084   3.522 -0.2364  1.4467  2.3473
  454TIP3   OH2 1367   4.612   4.022   3.336 -0.2526  0.1160 -0.4898
  454TIP3    H1 1368   4.563   3.973   3.401 -0.1583 -0.5919 -0.9430
  454TIP3    H2 1369   4.698   4.037   3.377 -0.9305  1.7121  0.4684
  455TIP3   OH2 1370   3.643   4.571   3.793  0.2541  0.6963  0.4805
  455TIP3    H1 1371   3.714   4.616   3.747 -1.2904  2.6693 -0.0921
  455TIP3    H2 1372   3.641   4.483   3.755  0.1802  1.6903 -1.9841
  456TIP3   OH2 1373   5.535   3.778   0.932 -0.3403 -0.8298  0.0965
  456TIP3    H1 1374   5.590   3.761   0.855  0.9386 -0.5059  0.9185
  456TIP3    H2 1375   5.565   3.715   0.997  1.5737  1.6408  1.7705
  457TIP3   OH2 1376   5.765   5.211   4.356 -0.1330 -0.4418 -0.2469
  457TIP3    H1 1377   5.736   5.296   4.322 -0.2038 -0.0421  0.7658
  457TIP3    H2 1378   5.859   5.208   4.335  0.1631  0.4717  0.8087
  458TIP3   OH2 1379   2.417   3.060   3.201 -0.4499  0.9340  0.0496
  458TIP3    H1 1380   2.452   3.026   3.119 -2.2654  1.2273 -0.8934
  458TIP3    H2 1381   2.323   3.066   3.186 -0.5740  3.1892  1.3377
  459TIP3   OH2 1382   0.209   1.004   1.764 -0.1311  0.1542  0.1965
  459TIP3    H1 1383   0.188   1.095   1.740 -0.2202  0.2815  0.7442
  459TIP3    H2 1384   0.202   1.003   1.859 -0.5100 -0.5264  0.1648
  460TIP3   OH2 1385   5.852   4.050   4.633  0.6103  0.8179 -0.2227
  460TIP3    H1 1386   5.903   4.039   4.713  0.3984  0.3517 -0.1499
  460TIP3    H2 1387   5.828   4.143   4.633 -0.5541  0.5497  0.9734
  461TIP3   OH2 1388   2.087   4.944   4.599 -0.7969 -0.3072  0.2321
  461TIP3    H1 1389   2.027   4.890   4.650  0.4614 -0.2259  1.8609
  461TIP3    H2 1390   2.090   5.028   4.645  2.1125 -0.9668  1.4553
  462TIP3   OH2 1391   3.616   3.710   3.985 -0.1689 -0.0999  0.0020
  462TIP3    H1 1392   3.653   3.709   4.073  1.1011 -2.1047 -0.5003
  462TIP3    H2 1393   3.525   3.682   3.997 -0.1518  0.1250  0.7182
  463TIP3   OH2 1394   5.324   2.475   1.098 -0.3007  0.0049 -0.3330
  463TIP3    H1 1395   5.284   2.433   1.023  0.0911 -2.5102  0.7618
  463TIP3    H2 1396   5.251   2.509   1.149 -0.7945 -1.0562 -0.3166
  464TIP3   OH2 1397   2.046   5.460   0.516  0.0307 -0.4308 -0.4014
  464TIP3    H1 1398   2.055   5.409   0.436 -0.2525  0.2138 -0.8568
  464TIP3    H2 1399   2.006   5.542   0.487  0.0357 -0.1452  0.3848
  465TIP3   OH2 1400   2.600   4.463   2.992  0.4273 -0.3487 -0.3557
  465TIP3    H1 1401   2.600   4.374   2.959  0.0260 -0.7760  0.7513
  465TIP3    H2 1402   2.618   4.518   2.915 -2.6742 -1.1055 -1.7725
  466TIP3   OH2 1403   3.098   0.642   1.782 -0.7019 -0.3277 -0.4282
  466TIP3    H1 1404   3.061   0.725   1.812 -0.2792 -0.0448 -0.6824
  466TIP3    H2 1405   3.068   0.578   1.847  0.9652  0.4296  1.1732
  467TIP3   OH2 1406   1.901   0.400   4.510  0.0880  0.3150 -0.6182
  467TIP3    H1 1407   1.989   0.386   4.546 -0.1633 -2.4107 -0.8198
  467TIP3    H2 1408   1.844   0.398   4.587  0.0251 -0.2058 -0.6724
  468TIP3   OH2 1409   1.872   0.789   0.266  0.0278  0.4155  0.2585
  468TIP3    H1 1410   1.866   0.698   0.297  0.7489 -0.1192 -1.0936
  468TIP3    H2 1411   1.871   0.841   0.346 -0.1352 -0.7981  1.0831
  469TIP3   OH2 1412   4.626   1.522   4.041  0.1390  0.1742  0.3974
  469TIP3    H1 1413   4.572   1.522   4.120 -0.3362  1.6368  0.0990
  469TIP3    H2 1414   4.681   1.444   4.050 -1.7228 -1.1472  0.9028
  470TIP3   OH2 1415   2.540   2.858   1.486  0.0037  0.3060  0.9655
  470TIP3    H1 1416   2.536   2.766   1.510 -1.1081  0.4476  1.3852
  470TIP3    H2 1417   2.513   2.905   1.565 -0.1742  0.9510  0.5347
  471TIP3   OH2 1418   1.421   0.080   1.475 -0.2333 -0.4694  0.1598
  471TIP3    H1 1419   1.446  -0.003   1.435 -1.2083 -0.9102  0.4368
  471TIP3    H2 1420   1.490   0.142   1.448  1.2508 -1.6583  1.0381
  472TIP3   OH2 1421   2.250   0.822   2.937 -0.1210 -0.1155  0.2207
  472TIP3    H1 1422   2.267   0.772   2.858  1.4607 -1.1985  1.1876
  472TIP3    H2 1423   2.211   0.904   2.906  0.4853 -0.4946 -1.6599
  473TIP3   OH2 1424   2.092   5.818   2.217 -0.1655  0.7802  0.8749
  473TIP3    H1 1425   2.132   5.903   2.237  0.9607  0.4516  0.1110
  473TIP3    H2 1426   2.097   5.811   2.122 -1.6724  0.5270  0.7958
  474TIP3   OH2 1427   3.264   3.484   3.392 -0.2143  0.2501 -0.1536
  474TIP3    H1 1428   3.177   3.516   3.416  0.0267  0.8856 -0.1126
  474TIP3    H2 1429   3.307   3.468   3.476  0.1125  1.0566 -0.1605
  475TIP3   OH2 1430   2.655   3.406   2.763  0.2772  0.1391 -0.2437
  475TIP3    H1 1431   2.615   3.348   2.829 -2.3536  0.5976 -1.2860
  475TIP3    H2 1432   2.712   3.348   2.712  0.2197 -0.8237  0.7479
  476TIP3   OH2 1433   0.745   3.478   0.260 -0.6105  0.5184  0.2643
  476TIP3    H1 1434   0.705   3.394   0.236  0.8686 -0.5592  1.3986
  476TIP3    H2 1435   0.830   3.478   0.215 -0.1845  0.9628  1.0552
  477TIP3   OH2 1436   3.748   2.243   3.872  0.0252 -0.7988 -0.2963
  477TIP3    H1 1437   3.780   2.193   3.797  2.9548  0.6313 -0.1478
  477TIP3    H2 1438   3.664   2.279   3.843  0.4190 -1.4190 -2.3720
  478TIP3   OH2 1439   3.711   1.107   4.522 -0.0353  0.0962 -0.3458
  478TIP3    H1 1440   3.793   1.154   4.507 -0.1412  0.3376 -0.1793
  478TIP3    H2 1441   3.658   1.123   4.444  0.0614 -0.0252 -0.4353
  479TIP3   OH2 1442   3.822   3.797   0.588  0.6510 -0.3548  0.1488
  479TIP3    H1 1443   3.809   3.883   0.547  1.1719  0.2523  1.2021
  479TIP3    H2 1444   3.915   3.779   0.574  0.4318 -0.9939 -0.5152
  480TIP3   OH2 1445   4.236   4.506   2.889  1.0708 -0.5806 -0.4976
  480TIP3    H1 1446   4.283   4.568   2.834 -0.4042  0.5025 -0.5929
  480TIP3    H2 1447   4.143   4.527   2.876  0.6470 -0.3120  2.3569
  481TIP3   OH2 1448   5.765   4.266   3.097 -0.4262 -0.0801  0.1648
  481TIP3    H1 1449   5.831   4.198   3.085 -2.0155 -1.7280  0.3728
  481TIP3    H2 1450   5.711   4.261   3.019  0.1597  1.8796 -0.4362
  482TIP3   OH2 1451   2.309   1.786   2.682  0.0233 -0.2723 -0.3220
  482TIP3    H1 1452   2.269   1.738   2.755 -0.6620 -0.3705 -0.7460
  482TIP3    H2 1453   2.336   1.718   2.621  0.9510 -0.2091  0.0046
  483TIP3   OH2 1454   5.028   2.000   2.283 -0.4948  0.2032  0.1972
  483TIP3    H1 1455   4.934   1.984   2.274 -0.5206  0.6648 -0.3970
  483TIP3    H2 1456   5.069   1.918   2.256 -0.7094  0.1676 -0.0189
  484TIP3   OH2 1457   0.982   5.608   4.355 -0.2328  0.0215 -0.7326
  484TIP3    H1 1458   1.063   5.624   4.404 -1.5367  0.4137  1.4736
  484TIP3    H2 1459   0.994   5.655   4.273  1.2521  1.2255  0.1022
  485TIP3   OH2 1460   5.379   0.198   1.750  0.4732  0.2734  0.1052
  485TIP3    H1 1461   5.329   0.119   1.769  2.1258 -1.1859 -1.2389
  485TIP3    H2 1462   5.461   0.188   1.798  1.1803  0.5837 -0.9804
  486TIP3   OH2 1463   0.812   3.561   4.013 -0.0323  0.1508  0.2095
  486TIP3    H1 1464   0.847   3.545   3.925  0.7473 -0.6572  0.6601
  486TIP3    H2 1465   0.722   3.529   4.009  0.3860 -1.0339  0.0531
  487TIP3   OH2 1466   0.168   1.154   1.028  0.1527  1.0122 -0.1439
  487TIP3    H1 1467   0.105   1.214   1.068 -0.0552  0.9970 -0.4460
  487TIP3    H2 1468   0.151   1.161   0.934  0.7240  1.1446 -0.2410
  488TIP3   OH2 1469   4.362   5.544   3.197 -0.5430  0.8740  0.3633
  488TIP3    H1 1470   4.324   5.554   3.284 -3.0967  0.5259 -0.6123
  488TIP3    H2 1471   4.293   5.574   3.138  0.8173  0.3378 -1.5920
  489TIP3   OH2 1472   3.063   3.873   4.753 -0.2242 -0.1163  0.0525
  489TIP3    H1 1473   2.969   3.861   4.764 -0.2737  0.4820  0.2803
  489TIP3    H2 1474   3.102   3.796   4.795 -0.6905 -1.8704 -2.5081
  490TIP3   OH2 1475   1.363   0.697   5.172 -0.1390  0.2452 -0.3263
  490TIP3    H1 1476   1.425   0.697   5.099  0.0184 -3.3050 -0.3337
  490TIP3    H2 1477   1.295   0.759   5.145  0.0657 -0.6827 -3.3664
  491TIP3   OH2 1478   6.206   2.506   2.217 -0.4667 -0.2394 -0.2625
  491TIP3    H1 1479   6.280   2.558   2.186  1.1609 -3.0834 -1.5271
  491TIP3    H2 1480   6.204   2.520   2.311  0.2809  1.5517 -0.4779
  492TIP3   OH2 1481   3.355   4.218   0.499  0.4760 -0.2544 -0.3704
  492TIP3    H1 1482   3.301   4.257   0.567 -2.1470 -1.7795 -1.4466
  492TIP3    H2 1483   3.376   4.131   0.531 -1.0758 -1.1163 -1.5868
  493TIP3   OH2 1484   1.602   4.603   0.421 -0.2808 -0.1116 -0.7580
  493TIP3    H1 1485   1.523   4.551   0.433 -1.9125  2.5215  0.8555
  493TIP3    H2 1486   1.659   4.548   0.367 -2.5396 -2.7604 -0.6527
  494TIP3   OH2 1487   6.113   2.280   3.965 -0.6377 -0.2787  0.3456
  494TIP3    H1 1488   6.024   2.286   3.998 -1.0986  1.1753 -0.9974
  494TIP3    H2 1489   6.103   2.255   3.873  0.3604 -0.4176  0.2619
  495TIP3   OH2 1490   0.449   3.562   0.143 -0.4756  0.1070 -0.1474
  495TIP3    H1 1491   0.540   3.554   0.117 -0.3335  1.2748 -0.0541
  495TIP3    H2 1492   0.406   3.486   0.104  0.4017 -0.0915 -0.7492
  496TIP3   OH2 1493   4.404   2.362   0.572 -0.1407 -0.1850 -0.1905
  496TIP3    H1 1494   4.429   2.452   0.550  0.0075 -0.8675 -3.1924
  496TIP3    H2 1495   4.317   2.352   0.534 -0.3670 -1.1666  0.5621
  497TIP3   OH2 1496   4.351   4.543   0.037  0.6429  0.7967 -0.1365
  497TIP3    H1 1497   4.384   4.597   0.109  0.0014  1.0844 -0.0458
  497TIP3    H2 1498   4.399   4.461   0.045  1.1682  1.1197  0.1220
  498TIP3   OH2 1499   1.641   1.921   0.585  0.2744  0.1816  1.0428
  498TIP3    H1 1500   1.627   1.892   0.675 -0.5062 -0.1496  0.8210
  498TIP3    H2 1501   1.598   1.855   0.531  0.4693  0.5385  0.4358
  499TIP3   OH2 1502   3.631   2.333   3.461 -0.3342 -0.1011  0.5461
  499TIP3    H1 1503   3.555   2.278   3.442  1.3843 -2.0426 -1.2208
  499TIP3    H2 1504   3.684   2.279   3.520  0.4560  0.5034  0.3940
  500TIP3   OH2 1505   2.264   5.348   1.738 -0.1804  0.2918  0.1441
  500TIP3    H1 1506   2.266   5.369   1.644  1.2708  1.2131  0.3524
  500TIP3    H2 1507   2.171   5.353   1.761 -0.7446 -1.2042 -1.4805
  501TIP3   OH2 1508   4.110   4.837   4.019  0.0615  0.0633  0.3722
  501TIP3    H1 1509   4.132   4.922   4.057 -1.4715 -0.4952  2.7660
  501TIP3    H2 1510   4.186   4.782   4.037  0.2823  0.4316  0.5665
  502TIP3   OH2 1511   3.229   3.121   1.570 -0.3548 -0.2407 -0.4346
  502TIP3    H1 1512   3.251   3.163   1.653 -0.0848 -0.0271 -0.6105
  502TIP3    H2 1513   3.305   3.138   1.514 -1.3334  1.3221 -1.3738
  503TIP3   OH2 1514   1.767   0.080   2.393  0.0505  0.1243  0.1043
  503TIP3    H1 1515   1.672   0.080   2.396  0.0109  2.2965  2.0488
  503TIP3    H2 1516   1.793   0.042   2.477  0.9119 -0.5317 -0.4435
  504TIP3   OH2 1517   0.636   0.159   4.195  0.1829 -0.2737 -0.0450
  504TIP3    H1 1518   0.599   0.194   4.114  0.2172 -0.5565 -0.1840
  504TIP3    H2 1519   0.565   0.109   4.234  0.2631 -0.3958 -0.0566
  505TIP3   OH2 1520   1.642   3.350   4.908  0.1437  0.1489  0.5952
  505TIP3    H1 1521   1.582   3.402   4.855  1.5604  1.5947  0.3549
  505TIP3    H2 1522   1.726   3.357   4.864  0.3335 -2.7377  0.3127
  506TIP3   OH2 1523   1.715   4.500   4.877 -0.4475  0.5398  0.0424
  506TIP3    H1 1524   1.792   4.443   4.879 -0.2688  0.6527 -1.6722
  506TIP3    H2 1525   1.734   4.564   4.809 -1.9768  0.6732 -0.3161
  507TIP3   OH2 1526   3.748   4.849   1.943 -0.0875  0.1145 -0.1316
  507TIP3    H1 1527   3.658   4.816   1.938 -0.2005  0.5236 -0.8298
  507TIP3    H2 1528   3.769   4.877   1.854  0.4101  0.8623  0.2086
  508TIP3   OH2 1529   0.345   1.885   4.688 -0.0390 -0.3852  0.2129
  508TIP3    H1 1530   0.288   1.826   4.637 -1.3349  0.1877  0.9493
  508TIP3    H2 1531   0.367   1.955   4.626  0.3425 -0.8982 -0.2451
  509TIP3   OH2 1532   2.759   0.385   2.188  0.0264 -0.3025  0.2535
  509TIP3    H1 1533   2.712   0.303   2.174  1.2903 -0.9012 -0.6617
  509TIP3    H2 1534   2.779   0.385   2.282 -1.2239 -0.3349  0.5349
  510TIP3   OH2 1535   4.762   3.497   3.919  0.1999 -0.0779 -0.7645
  510TIP3    H1 1536   4.847   3.476   3.956  1.2866  1.0297 -2.5062
  510TIP3    H2 1537   4.743   3.424   3.859  0.6893  0.4052 -1.5358
  511TIP3   OH2 1538   2.670   5.877   3.105  0.3036  0.1170 -0.2043
  511TIP3    H1 1539   2.590   5.920   3.075  0.5606 -0.0342 -1.1654
  511TIP3    H2 1540   2.649   5.783   3.102  0.7198  0.0377 -1.1455
  512TIP3   OH2 1541   5.092   3.657   4.765 -0.6935 -0.1514  0.2950
  512TIP3    H1 1542   5.134   3.584   4.719  0.2789  1.8394 -2.1852
  512TIP3    H2 1543   5.011   3.619   4.801  0.7390 -2.8783  0.8940
  513TIP3   OH2 1544   5.438   4.342   1.918  0.4909 -0.1209  0.1344
  513TIP3    H1 1545   5.473   4.268   1.869  1.6457  0.8780 -0.6187
  513TIP3    H2 1546   5.516   4.387   1.951 -0.2207  0.2845  1.3000
  514TIP3   OH2 1547   4.753   1.447   2.167  0.4537 -0.5218  0.1412
  514TIP3    H1 1548   4.802   1.407   2.238 -0.4435 -0.5472  0.7589
  514TIP3    H2 1549   4.794   1.413   2.087  1.7163 -0.1818  0.6254
  515TIP3   OH2 1550   4.041   2.668   4.700  0.3248  0.6860  0.4186
  515TIP3    H1 1551   4.003   2.703   4.619 -2.1406  1.0624  1.6307
  515TIP3    H2 1552   4.111   2.729   4.722  0.5173  1.0209 -1.0119
  516TIP3   OH2 1553   4.527   4.540   4.308  0.5564  0.1618 -0.7759
  516TIP3    H1 1554   4.596   4.604   4.324  0.2835  0.1386  0.6812
  516TIP3    H2 1555   4.446   4.588   4.327  0.3358 -0.5192  0.0742
  517TIP3   OH2 1556   5.952   2.026   0.915 -1.0372 -0.1482  0.1242
  517TIP3    H1 1557   6.010   2.064   0.981 -1.8829  1.2062  0.1176
  517TIP3    H2 1558   5.875   1.997   0.965 -1.3614  0.2034 -0.1723
  518TIP3   OH2 1559   5.771   3.906   3.808 -0.0029  0.1525 -0.0258
  518TIP3    H1 1560   5.801   3.922   3.718 -1.3205  0.5369 -0.4106
  518TIP3    H2 1561   5.714   3.830   3.802  0.6171 -0.3774  0.6475
  519TIP3   OH2 1562   1.779   3.497   3.984  0.1296 -0.1703  0.2670
  519TIP3    H1 1563   1.788   3.425   3.922  1.2037  1.6110 -1.7999
  519TIP3    H2 1564   1.845   3.480   4.051  2.3727  0.2881 -1.7284
  520TIP3   OH2 1565   0.758   5.126   1.826  0.0304  0.4861 -0.0246
  520TIP3    H1 1566   0.689   5.146   1.762  1.1816 -1.9241 -2.2523
  520TIP3    H2 1567   0.713   5.079   1.896 -1.2058  2.8012  0.8246
  521TIP3   OH2 1568   6.242   5.670   4.335 -0.2861  0.2676 -0.3075
  521TIP3    H1 1569   6.298   5.651   4.410 -2.5899  0.4741  1.5842
  521TIP3    H2 1570   6.178   5.599   4.334 -1.3372  1.1892 -1.0238
  522TIP3   OH2 1571   6.027   5.870   0.937  0.1502 -0.1526 -0.6227
  522TIP3    H1 1572   6.094   5.805   0.957 -0.6529 -1.5281 -2.2233
  522TIP3    H2 1573   5.946   5.821   0.930 -0.2469  0.7175 -3.3117
  523TIP3   OH2 1574   0.452   4.136   1.118 -0.0469 -0.0897  0.1653
  523TIP3    H1 1575   0.507   4.083   1.059 -0.6595  0.6291 -1.0958
  523TIP3    H2 1576   0.428   4.076   1.188  0.7432 -0.9724 -0.2925
  524TIP3   OH2 1577   5.780   0.139   1.405 -0.2219  0.0117 -0.6470
  524TIP3    H1 1578   5.734   0.082   1.467  1.6026  2.0156  2.8935
  524TIP3    H2 1579   5.750   0.227   1.428  0.5469  0.8542 -2.6951
  525TIP3   OH2 1580   3.493   3.653   3.723  0.5440 -0.1684 -0.1810
  525TIP3    H1 1581   3.565   3.674   3.781  0.6648  1.4487 -0.8522
  525TIP3    H2 1582   3.440   3.733   3.720 -0.7112 -0.9688 -0.5105
  526TIP3   OH2 1583   0.200   4.803   2.820  0.0580 -0.3101  1.0400
  526TIP3    H1 1584   0.217   4.711   2.838 -0.5958 -0.0491  3.2151
  526TIP3    H2 1585   0.105   4.813   2.831 -0.1328  0.3396 -0.7469
  527TIP3   OH2 1586   6.035   4.448   1.214  0.0550  0.2688  0.1079
  527TIP3    H1 1587   5.958   4.494   1.183  0.6478  1.1647 -0.0628
  527TIP3    H2 1588   6.092   4.441   1.137 -1.0407 -3.0222 -0.5705
  528TIP3   OH2 1589   1.071   3.012   1.174 -0.0581 -0.6944  0.4846
  528TIP3    H1 1590   1.065   3.067   1.096  0.7323  1.4740  1.8499
  528TIP3    H2 1591   1.119   3.066   1.238  0.5259 -2.8839  2.0322
  529TIP3   OH2 1592   6.242   0.926   0.483  0.2415 -0.3301 -0.3513
  529TIP3    H1 1593   6.169   0.985   0.463 -0.3216 -0.4620  1.1924
  529TIP3    H2 1594   6.219   0.887   0.567  1.4726 -1.3881 -0.4790
  530TIP3   OH2 1595   5.984   3.316   3.387 -0.4983 -0.4751 -0.1653
  530TIP3    H1 1596   5.920   3.250   3.359 -1.8180  0.1670  1.1488
  530TIP3    H2 1597   5.960   3.334   3.478 -1.3892  3.1308 -0.9893
  531TIP3   OH2 1598   4.343   1.367   4.200 -0.8581  0.2159 -0.0056
  531TIP3    H1 1599   4.294   1.441   4.166  0.7103  1.3856  0.1793
  531TIP3    H2 1600   4.314   1.292   4.147 -1.9120  1.1026 -0.7063
  532TIP3   OH2 1601   4.973   2.412   2.698 -0.2106  0.1261 -0.8358
  532TIP3    H1 1602   5.019   2.490   2.668  2.1535 -0.4142  1.1620
  532TIP3    H2 1603   5.037   2.342   2.690 -1.1552 -0.9550  0.6780
  533TIP3   OH2 1604   5.031   3.402   4.008 -0.3344 -0.1508  0.0988
  533TIP3    H1 1605   5.104   3.378   4.066  0.7311 -0.9374 -1.4864
  533TIP3    H2 1606   4.999   3.319   3.974 -0.3366  0.3374 -1.1307
  534TIP3   OH2 1607   4.864   0.830   0.914 -0.0831  0.1891  0.0303
  534TIP3    H1 1608   4.832   0.848   1.002 -3.8277  0.2018 -1.1622
  534TIP3    H2 1609   4.892   0.915   0.880 -0.7227  0.5849  0.4808
  535TIP3   OH2 1610   5.396   0.167   1.078  0.2284 -0.1890 -1.0099
  535TIP3    H1 1611   5.324   0.206   1.028  0.4728  1.8685  0.1089
  535TIP3    H2 1612   5.355   0.134   1.158  0.2162 -1.0428 -1.3671
  536TIP3   OH2 1613   5.234   5.395   4.260 -0.5497  0.1079 -0.0230
  536TIP3    H1 1614   5.261   5.304   4.276  0.3823  0.2822 -0.5317
  536TIP3    H2 1615   5.302   5.448   4.301 -1.3169  0.6010  0.6558
  537TIP3   OH2 1616   2.334   1.239   1.059 -0.5121  0.5418 -0.0638
  537TIP3    H1 1617   2.349   1.216   1.150  0.1388  1.6179  0.1169
  537TIP3    H2 1618   2.242   1.217   1.043 -0.5196 -0.0237  0.7249
  538TIP3   OH2 1619   2.937   5.318   3.308 -0.4532 -0.5807  0.0453
  538TIP3    H1 1620   3.029   5.300   3.327 -0.6629 -0.1903  1.5713
  538TIP3    H2 1621   2.900   5.233   3.285 -0.0075 -0.9744  0.7415
  539TIP3   OH2 1622   3.299   0.696   2.105 -0.4975 -0.3938 -0.1584
  539TIP3    H1 1623   3.245   0.756   2.054 -0.5905 -0.1566  0.2102
  539TIP3    H2 1624   3.237   0.633   2.141 -0.3026 -1.2008 -1.2020
  540TIP3   OH2 1625   3.900   0.121   2.558 -0.3474  0.4991  0.7350
  540TIP3    H1 1626   3.963   0.184   2.592  0.0218  0.8765 -0.5905
  540TIP3    H2 1627   3.894   0.141   2.465 -1.3076 -0.5033  0.5624
  541TIP3   OH2 1628   1.426   5.704   3.347  0.0472  0.3215 -0.2343
  541TIP3    H1 1629   1.366   5.777   3.331  1.7868  1.9012  0.0258
  541TIP3    H2 1630   1.467   5.688   3.262  0.7456  0.7059  0.0144
  542TIP3   OH2 1631   0.134   0.170   2.226  0.5442  0.0967 -0.3575
  542TIP3    H1 1632   0.056   0.200   2.179  1.1321 -0.3185 -1.6348
  542TIP3    H2 1633   0.172   0.251   2.261 -0.2645  0.3401 -0.0109
  543TIP3   OH2 1634   0.070   4.263   2.133  0.2712 -0.7298 -0.3301
  543TIP3    H1 1635   0.044   4.188   2.079 -0.0548 -0.9886  0.1700
  543TIP3    H2 1636  -0.008   4.282   2.186 -0.4595  1.4600 -2.0837
  544TIP3   OH2 1637   4.659   5.194   1.727 -0.1224  0.3994 -0.4962
  544TIP3    H1 1638   4.617   5.229   1.805 -1.3822 -3.0319  0.5570
  544TIP3    H2 1639   4.753   5.194   1.749 -0.4603 -0.6747  1.1836
  545TIP3   OH2 1640   0.479   5.209   2.802 -0.0833  0.4538 -0.0154
  545TIP3    H1 1641   0.452   5.149   2.733  0.5346  0.4738 -0.2756
  545TIP3    H2 1642   0.397   5.252   2.829 -0.3571  0.3092 -0.5992
  546TIP3   OH2 1643   4.186   0.357   1.702 -0.3092  0.0738  0.6693
  546TIP3    H1 1644   4.189   0.447   1.673 -0.0788  0.4302  1.7449
  546TIP3    H2 1645   4.275   0.324   1.690 -0.7146 -0.4780 -1.0752
  547TIP3   OH2 1646   3.509   0.155   1.525  0.0859  0.2635 -0.8427
  547TIP3    H1 1647   3.558   0.203   1.458 -0.7292  1.1646 -0.8143
  547TIP3    H2 1648   3.471   0.080   1.479 -0.0303  0.5817 -1.2717
  548TIP3   OH2 1649   0.853   1.871   0.304 -0.0200  0.1072 -1.1107
  548TIP3    H1 1650   0.932   1.821   0.324  1.3661  2.4945 -0.0816
  548TIP3    H2 1651   0.871   1.910   0.218 -0.2581  0.2689 -1.0882
  549TIP3   OH2 1652   1.261   3.281   0.132 -0.0565  0.0172 -0.1163
  549TIP3    H1 1653   1.244   3.338   0.207  0.3067  1.0679 -0.8201
  549TIP3    H2 1654   1.349   3.305   0.103  0.5278 -1.6115  0.1752
  550TIP3   OH2 1655   2.217   5.630   1.991 -0.3336 -0.2966  0.1103
  550TIP3    H1 1656   2.203   5.547   2.037  0.2976  0.2268  1.2767
  550TIP3    H2 1657   2.130   5.667   1.981 -0.4842 -0.4439  0.8458
  551TIP3   OH2 1658   0.683   2.860   4.459  0.2233 -0.0799  0.6163
  551TIP3    H1 1659   0.755   2.800   4.439 -1.0870 -1.1192 -1.4509
  551TIP3    H2 1660   0.614   2.803   4.494 -0.5372  0.4278 -0.0289
  552TIP3   OH2 1661   0.173   0.755   0.937  1.0570  0.6572  0.3488
  552TIP3    H1 1662   0.105   0.738   1.002  0.7311 -0.2566 -0.2179
  552TIP3    H2 1663   0.249   0.783   0.989  1.2737 -1.4845  1.2856
  553TIP3   OH2 1664   2.521   0.203   4.146  0.7035 -0.0532  0.3395
  553TIP3    H1 1665   2.457   0.272   4.130  1.5542 -0.0792 -4.6503
  553TIP3    H2 1666   2.605   0.249   4.152  1.0418 -0.4888 -0.9111
  554TIP3   OH2 1667   2.514   3.427   1.710  0.1167 -0.3203  0.3837
  554TIP3    H1 1668   2.509   3.459   1.800  0.6232  0.4751  0.1444
  554TIP3    H2 1669   2.603   3.393   1.701  0.1858 -0.0758  0.0945
  555TIP3   OH2 1670   4.903   2.049   0.346 -0.5220 -0.1738  0.0592
  555TIP3    H1 1671   4.972   1.983   0.355 -2.3380 -2.0525  1.0177
  555TIP3    H2 1672   4.924   2.094   0.264  1.1646 -1.4906 -0.2925
  556TIP3   OH2 1673   1.598   4.415   2.098  0.2126  0.0718 -0.0314
  556TIP3    H1 1674   1.659   4.388   2.167  1.6327 -0.0420 -1.2744
  556TIP3    H2 1675   1.528   4.350   2.101  0.8742 -0.6409  0.5073
  557TIP3   OH2 1676   3.612   3.352   2.773 -0.9858  0.8840 -0.5208
  557TIP3    H1 1677   3.555   3.359   2.850 -0.0648  1.1001  0.1679
  557TIP3    H2 1678   3.585   3.271   2.730 -3.1067  1.9392 -1.3168
  558TIP3   OH2 1679   6.153   2.409   0.781 -0.0093 -0.8694 -0.0014
  558TIP3    H1 1680   6.224   2.473   0.786 -0.9462  0.2147 -0.0372
  558TIP3    H2 1681   6.194   2.330   0.748  0.8969  0.2014 -1.5912
  559TIP3   OH2 1682   5.007  -0.014   1.706 -0.4504 -0.0734  0.4934
  559TIP3    H1 1683   4.982  -0.030   1.615 -0.9093  0.5007  0.5117
  559TIP3    H2 1684   5.003   0.081   1.715  0.0084 -0.0972  0.9987
  560TIP3   OH2 1685   3.016   0.284   3.291 -0.3003  0.0441  0.9901
  560TIP3    H1 1686   3.057   0.298   3.206 -0.0007 -1.1598  0.9227
  560TIP3    H2 1687   2.978   0.369   3.313 -1.4017  0.1058 -0.8816
  561TIP3   OH2 1688   3.817   3.804   3.816 -0.3937  0.5039  0.7144
  561TIP3    H1 1689   3.735   3.799   3.866 -0.2321 -2.1550  0.8487
  561TIP3    H2 1690   3.885   3.805   3.883 -0.2119 -2.1036  0.6524
  562TIP3   OH2 1691   3.458   0.688   1.397 -0.1390  0.6435 -0.0018
  562TIP3    H1 1692   3.445   0.770   1.445 -0.6982  0.0767  0.8572
  562TIP3    H2 1693   3.429   0.620   1.458  1.7234 -0.3213 -0.1072
  563TIP3   OH2 1694   3.647   2.221   2.949  0.1341  0.0767  0.8486
  563TIP3    H1 1695   3.582   2.241   3.016 -3.2820  0.2343 -2.2105
  563TIP3    H2 1696   3.677   2.307   2.918  0.7391  0.0232  1.2666
  564TIP3   OH2 1697   4.842   4.959   3.349 -0.1458  0.0812  0.1729
  564TIP3    H1 1698   4.874   5.036   3.303 -0.6352  0.2843  0.1609
  564TIP3    H2 1699   4.888   4.886   3.309 -1.1147  0.1770 -1.1693
  565TIP3   OH2 1700   4.582   3.630   1.832  0.0347  0.2567 -0.1186
  565TIP3    H1 1701   4.603   3.715   1.793  0.5259  0.5277  0.6955
  565TIP3    H2 1702   4.560   3.651   1.923 -0.4636 -0.4225 -0.0751
  566TIP3   OH2 1703   4.829   3.584   4.894  0.6477  0.5286  0.0640
  566TIP3    H1 1704   4.831   3.653   4.960 -2.0511 -0.0071  0.8549
  566TIP3    H2 1705   4.759   3.610   4.834 -1.0805 -1.8262  0.8779
  567TIP3   OH2 1706   2.489   4.384   0.337  0.0257 -0.5241  0.3058
  567TIP3    H1 1707   2.502   4.309   0.279 -1.5804 -1.1271  0.6701
  567TIP3    H2 1708   2.441   4.349   0.412  2.0787  0.2323  2.0817
  568TIP3   OH2 1709   1.922   5.557   0.051  0.8067 -0.5487 -0.1099
  568TIP3    H1 1710   1.939   5.467   0.022 -0.0609 -0.7127 -0.1310
  568TIP3    H2 1711   1.948   5.611  -0.024  0.4757 -0.8381 -0.4353
  569TIP3   OH2 1712   2.381   5.102   4.257 -0.3538 -0.7346 -0.1882
  569TIP3    H1 1713   2.309   5.064   4.206 -0.3457 -1.7724  0.5458
  569TIP3    H2 1714   2.432   5.026   4.286  0.0388 -0.1138  0.7738
  570TIP3   OH2 1715   1.917   5.416   4.323 -0.0446 -0.1912  0.1579
  570TIP3    H1 1716   2.005   5.391   4.293  0.8018  2.5621  0.0752
  570TIP3    H2 1717   1.899   5.355   4.395  0.7624 -2.5208 -1.4726
  571TIP3   OH2 1718   5.151   2.465   2.319 -0.3096  0.3926 -0.6515
  571TIP3    H1 1719   5.132   2.384   2.367  2.4700  0.0346  0.0019
  571TIP3    H2 1720   5.209   2.514   2.376  1.8086  0.6957 -2.8879
  572TIP3   OH2 1721   4.000   1.390   5.044 -0.2824  0.1160 -0.2536
  572TIP3    H1 1722   4.093   1.410   5.055 -0.5642  0.9462  0.8152
  572TIP3    H2 1723   3.960   1.417   5.126 -1.4727 -0.2629 -0.6865
  573TIP3   OH2 1724   5.340   5.430   3.867 -0.3665 -0.2657 -0.7856
  573TIP3    H1 1725   5.362   5.362   3.930 -1.5948  0.0420  0.0244
  573TIP3    H2 1726   5.387   5.406   3.787  4.1838  1.2137  1.1279
  574TIP3   OH2 1727   3.901   3.149   3.810 -0.4452  0.8306  0.0654
  574TIP3    H1 1728   3.906   3.180   3.901 -1.5353  0.3706  0.2954
  574TIP3    H2 1729   3.822   3.094   3.808 -0.0573  0.3021 -1.0023
  575TIP3   OH2 1730   4.737   0.325   1.755  0.1588  0.6207  0.5389
  575TIP3    H1 1731   4.708   0.387   1.821 -0.5122  1.3284 -0.3865
  575TIP3    H2 1732   4.723   0.371   1.671  1.7663  0.0756 -0.0591
  576TIP3   OH2 1733   3.333   4.864   2.051  0.1383  0.5755  0.0537
  576TIP3    H1 1734   3.294   4.821   2.127 -2.1697  0.3198 -1.1716
  576TIP3    H2 1735   3.385   4.796   2.009 -1.1711 -0.2589 -0.2934
  577TIP3   OH2 1736   3.213   1.769   4.721  0.2911 -0.2566 -0.0629
  577TIP3    H1 1737   3.167   1.688   4.743 -0.6327  0.6470  1.5787
  577TIP3    H2 1738   3.143   1.829   4.692  0.8283  0.2426 -0.3542
  578TIP3   OH2 1739   1.652   1.945   1.161 -0.8132 -0.1896 -0.2485
  578TIP3    H1 1740   1.721   1.999   1.200 -0.1722  0.0930 -1.6993
  578TIP3    H2 1741   1.576   2.003   1.154 -1.0038 -0.3060  0.7394
  579TIP3   OH2 1742   3.065   2.511   2.222  0.6761 -0.0913  0.1223
  579TIP3    H1 1743   3.009   2.522   2.299  1.1931 -0.8207  0.6132
  579TIP3    H2 1744   3.016   2.452   2.165  0.2797  0.4714 -0.1244
  580TIP3   OH2 1745   3.586   4.075   1.205  0.3659  0.4423 -0.5376
  580TIP3    H1 1746   3.617   4.147   1.151  0.4101  0.6667 -0.2129
  580TIP3    H2 1747   3.496   4.098   1.227  1.2099  1.7697  1.8483
  581TIP3   OH2 1748   3.797   4.788   0.427  0.0892 -0.2778  0.4600
  581TIP3    H1 1749   3.785   4.790   0.522  0.5969  1.6160  0.5256
  581TIP3    H2 1750   3.849   4.866   0.408  2.0020 -1.8317 -1.1284
  582TIP3   OH2 1751   1.243   4.902   3.102 -0.2537 -0.3202 -0.0171
  582TIP3    H1 1752   1.188   4.835   3.061 -0.0902 -0.5346  0.1093
  582TIP3    H2 1753   1.263   4.963   3.032  2.2587 -2.0816 -0.9912
  583TIP3   OH2 1754   5.104   4.989   4.361  0.0266 -0.2280  0.2216
  583TIP3    H1 1755   5.058   5.047   4.302  0.5626  0.3938  0.3993
  583TIP3    H2 1756   5.186   4.968   4.315 -0.1204 -0.7648  0.2002
  584TIP3   OH2 1757   1.271   3.282   5.084  0.1817 -0.7433  0.1806
  584TIP3    H1 1758   1.325   3.215   5.126 -0.1715 -0.8172  0.5295
  584TIP3    H2 1759   1.255   3.249   4.996  1.2551 -0.4067 -0.1595
  585TIP3   OH2 1760   0.357   2.297   3.711 -0.3112  0.2444 -0.8913
  585TIP3    H1 1761   0.367   2.385   3.748 -1.3397  0.3967 -0.9394
  585TIP3    H2 1762   0.355   2.310   3.617  1.7279 -0.0840 -1.0183
  586TIP3   OH2 1763   4.611   3.943   4.603 -0.0971  0.3027  0.1327
  586TIP3    H1 1764   4.624   3.855   4.639  0.0168  0.9535  1.7455
  586TIP3    H2 1765   4.646   4.002   4.669 -2.3925  1.6886  0.2180
  587TIP3   OH2 1766   4.620   1.181   1.342  0.3328 -0.0237  0.1051
  587TIP3    H1 1767   4.542   1.178   1.287 -0.0390  1.2159  0.5250
  587TIP3    H2 1768   4.687   1.221   1.287  0.2503  0.2629  0.2091
  588TIP3   OH2 1769   4.551   0.798   3.187  0.0729  0.5221 -0.4330
  588TIP3    H1 1770   4.621   0.836   3.239 -0.8301  0.7647  0.6425
  588TIP3    H2 1771   4.490   0.762   3.251 -0.3608 -0.4576 -1.3720
  589TIP3   OH2 1772   2.651   3.467   4.455 -0.1817  0.1937  0.2618
  589TIP3    H1 1773   2.650   3.479   4.360  1.0036 -1.0029  0.0600
  589TIP3    H2 1774   2.717   3.399   4.470 -0.4462  0.2524  1.9363
  590TIP3   OH2 1775   0.674   1.164   0.819 -0.0490 -0.3678 -0.0962
  590TIP3    H1 1776   0.760   1.183   0.855  0.2078 -0.5768 -0.5796
  590TIP3    H2 1777   0.612   1.197   0.884  0.3406  2.4162 -1.0095
  591TIP3   OH2 1778   2.182   3.597   0.852 -0.2651 -0.2737  0.1997
  591TIP3    H1 1779   2.217   3.517   0.890 -0.0541 -0.0745  0.4284
  591TIP3    H2 1780   2.257   3.639   0.810 -0.7327 -1.1363 -1.6031
  592TIP3   OH2 1781   0.898   2.224   2.972 -0.1014 -0.3563 -0.0123
  592TIP3    H1 1782   0.846   2.212   2.892 -1.3295 -0.6685  0.7961
  592TIP3    H2 1783   0.987   2.205   2.946 -0.7468 -2.4329 -0.8791
  593TIP3   OH2 1784   5.126   1.044   4.494  0.3699  0.3487  0.0693
  593TIP3    H1 1785   5.218   1.028   4.515 -0.1413 -2.2239  0.6325
  593TIP3    H2 1786   5.126   1.068   4.402  1.7485  2.4129  0.5359
  594TIP3   OH2 1787   4.146   4.099   1.158  0.6391  0.5011 -0.0390
  594TIP3    H1 1788   4.100   4.092   1.075  0.3237  1.4224  0.0439
  594TIP3    H2 1789   4.079   4.084   1.224  0.7614  0.3901  0.0616
  595TIP3   OH2 1790   1.973   2.240   1.524 -0.2586  0.1559  0.6028
  595TIP3    H1 1791   1.958   2.300   1.597  0.2880  1.3473 -0.2279
  595TIP3    H2 1792   2.030   2.172   1.560 -1.2245 -0.1089  1.6712
  596TIP3   OH2 1793   4.017   0.706   2.271  0.0090 -0.0685 -0.2510
  596TIP3    H1 1794   3.952   0.740   2.210  0.9908 -2.3110 -2.7286
  596TIP3    H2 1795   3.972   0.705   2.356 -2.3895  0.5377 -1.4434
  597TIP3   OH2 1796   4.510   0.826   2.454 -0.2525 -0.3443  0.0172
  597TIP3    H1 1797   4.548   0.779   2.381 -1.1541  0.2970 -0.8972
  597TIP3    H2 1798   4.415   0.822   2.439 -0.4083  0.5504  0.6562
  598TIP3   OH2 1799   2.858   5.334   4.035  0.2192  0.1346 -0.3253
  598TIP3    H1 1800   2.811   5.323   4.117  0.1787  2.0234 -0.0655
  598TIP3    H2 1801   2.938   5.282   4.046 -0.8010 -1.4386  0.0108
  599TIP3   OH2 1802   1.871   4.970   3.220 -0.8558 -0.1765  0.2030
  599TIP3    H1 1803   1.785   4.928   3.227  0.0795 -2.0090  1.4706
  599TIP3    H2 1804   1.908   4.962   3.308  0.1574  1.6601 -0.0079
  600TIP3   OH2 1805   2.952   4.163   4.644  0.2315 -0.4263  0.1717
  600TIP3    H1 1806   2.984   4.210   4.722  1.7251 -0.0373 -0.6424
  600TIP3    H2 1807   2.921   4.079   4.678  0.3715 -0.0625  1.2576
  601TIP3   OH2 1808   1.113   1.379   0.116 -0.1418 -0.1518  0.0283
  601TIP3    H1 1809   1.181   1.401   0.179 -0.6337 -0.2020  0.5860
  601TIP3    H2 1810   1.031   1.389   0.165 -0.4603 -1.8339 -0.0966
  602TIP3   OH2 1811   4.246   1.586   2.814  0.0813  0.3465 -0.5757
  602TIP3    H1 1812   4.240   1.522   2.884  3.0067 -0.3031 -0.7924
  602TIP3    H2 1813   4.301   1.656   2.850  0.5125  0.6526 -1.7720
  603TIP3   OH2 1814   6.155   2.850   0.149  0.4146 -0.7742 -0.7250
  603TIP3    H1 1815   6.097   2.891   0.213 -1.2732 -3.3166 -0.5095
  603TIP3    H2 1816   6.237   2.837   0.197  0.2911  0.3597 -0.1684
  604TIP3   OH2 1817   2.503   5.762   4.411 -0.0209  0.1410  0.3018
  604TIP3    H1 1818   2.457   5.837   4.450 -0.6627 -0.0530 -0.0793
  604TIP3    H2 1819   2.511   5.700   4.483 -0.7635 -0.0126  0.2513
  605TIP3   OH2 1820   0.894   5.264   2.969  0.7083 -0.5145 -0.7677
  605TIP3    H1 1821   0.872   5.248   2.877 -0.5668 -2.2987 -0.2161
  605TIP3    H2 1822   0.985   5.293   2.968  0.4715  0.2812 -2.6419
  606TIP3   OH2 1823   1.272   1.296   3.708  0.1563 -0.0567  0.3457
  606TIP3    H1 1824   1.253   1.316   3.616 -2.6495  0.8791  1.0352
  606TIP3    H2 1825   1.246   1.204   3.719  3.6118 -1.3010 -0.4436
  607TIP3   OH2 1826   0.206   4.585   4.591 -0.2067 -0.4693 -0.3912
  607TIP3    H1 1827   0.262   4.509   4.608  1.9321  0.6704 -1.9342
  607TIP3    H2 1828   0.159   4.599   4.673  0.7571 -2.2899  0.5360
  608TIP3   OH2 1829   6.350   5.766   1.455  0.1872 -0.3914 -0.3131
  608TIP3    H1 1830   6.316   5.701   1.393 -1.0415  1.0545 -1.2032
  608TIP3    H2 1831   6.273   5.798   1.501  0.7200  0.7672 -0.2036
  609TIP3   OH2 1832   2.131   3.250   0.191 -0.0513  0.0082  0.4962
  609TIP3    H1 1833   2.063   3.294   0.242 -1.1967 -0.8415 -0.2592
  609TIP3    H2 1834   2.159   3.177   0.247 -0.1210  0.0613  0.6008
  610TIP3   OH2 1835   1.115   2.690   3.682 -0.3153 -0.8570 -0.4593
  610TIP3    H1 1836   1.073   2.773   3.661  0.4931 -0.7818 -1.9792
  610TIP3    H2 1837   1.111   2.640   3.600 -0.2202 -2.0651  0.2459
  611TIP3   OH2 1838   4.721   5.607   4.155  0.6923 -0.7199  0.2582
  611TIP3    H1 1839   4.744   5.531   4.102 -0.4402 -0.4876 -0.5788
  611TIP3    H2 1840   4.765   5.681   4.112 -1.6912 -0.2275 -1.5155
  612TIP3   OH2 1841   3.599   4.333   3.919  0.7564 -0.8425 -0.4251
  612TIP3    H1 1842   3.667   4.398   3.938 -0.9730  0.9065  0.0950
  612TIP3    H2 1843   3.620   4.302   3.830  1.3339  0.8238 -0.9104
  613TIP3   OH2 1844   5.302   5.068   2.405  0.1328  0.2300  0.8114
  613TIP3    H1 1845   5.308   5.138   2.470 -1.6262 -0.4326  1.7635
  613TIP3    H2 1846   5.391   5.031   2.401  0.9416  2.0955  0.7172
  614TIP3   OH2 1847   6.256   2.843   3.979 -0.0471  1.0306  0.1493
  614TIP3    H1 1848   6.268   2.789   4.058  0.7077 -0.6024 -1.0184
  614TIP3    H2 1849   6.342   2.842   3.936 -1.0508 -0.3332 -2.0006
  615TIP3   OH2 1850   5.580   5.781   1.879 -0.2593  0.0680  0.2374
  615TIP3    H1 1851   5.626   5.848   1.829 -4.2872  1.6984 -1.8059
  615TIP3    H2 1852   5.533   5.730   1.812 -2.1221 -0.7799  2.0755
  616TIP3   OH2 1853   0.178   4.049   4.203 -0.5937  0.0904 -0.6450
  616TIP3    H1 1854   0.118   3.997   4.255 -1.0877  0.6762 -0.6236
  616TIP3    H2 1855   0.245   3.986   4.174 -1.4848 -0.6837 -1.1042
  617TIP3   OH2 1856   0.095   2.302   4.058 -0.2148  0.3430 -0.2589
  617TIP3    H1 1857   0.190   2.312   4.063 -0.0812 -0.8812 -0.1828
  617TIP3    H2 1858   0.069   2.273   4.145 -0.4269 -1.0833 -0.7771
  618TIP3   OH2 1859   1.203   3.669   1.042 -0.7399  0.1030 -0.1499
  618TIP3    H1 1860   1.261   3.593   1.044  0.0652  0.7137 -0.1534
  618TIP3    H2 1861   1.220   3.715   1.124  0.0045  1.1808 -0.8838
  619TIP3   OH2 1862   5.809   5.865   1.365 -0.2668  0.2010 -0.1299
  619TIP3    H1 1863   5.880   5.842   1.305 -1.0186  0.7956 -1.2763
  619TIP3    H2 1864   5.733   5.817   1.333 -0.7421  0.7205  0.1912
  620TIP3   OH2 1865   1.501   3.196   4.692  0.0417  0.3406  0.8643
  620TIP3    H1 1866   1.429   3.149   4.735  0.2937  0.1919  1.1259
  620TIP3    H2 1867   1.468   3.285   4.681 -1.6190 -0.5156 -2.2912
  621TIP3   OH2 1868   5.897   3.831   0.282  0.2378  0.1638 -0.0518
  621TIP3    H1 1869   5.940   3.904   0.238 -0.2058  0.5821  0.1998
  621TIP3    H2 1870   5.967   3.790   0.333  0.2393  1.1648  0.7779
  622TIP3   OH2 1871   0.930   2.103   5.177  0.7607  0.2423 -0.0008
  622TIP3    H1 1872   0.974   2.138   5.100 -0.5561 -0.4055 -1.0921
  622TIP3    H2 1873   0.950   2.166   5.247  0.0108  2.1768 -1.4374
  623TIP3   OH2 1874   3.053   5.261   4.322  0.4804  0.6680 -0.2543
  623TIP3    H1 1875   2.962   5.286   4.307  0.3585  1.2203  1.2714
  623TIP3    H2 1876   3.102   5.343   4.315  0.6946  0.5778  0.1566
  624TIP3   OH2 1877   2.910   3.825   2.019 -0.3940 -0.8846  0.2607
  624TIP3    H1 1878   2.900   3.776   1.937  1.3029  0.0826 -0.5915
  624TIP3    H2 1879   2.821   3.837   2.051 -0.9653 -2.8870 -0.4623
  625TIP3   OH2 1880   5.728   2.199   4.294 -0.3743 -0.0971 -0.3491
  625TIP3    H1 1881   5.638   2.187   4.324 -0.7983  0.6121 -1.2793
  625TIP3    H2 1882   5.734   2.147   4.214 -0.2673  0.6592 -0.8405
  626TIP3   OH2 1883   0.430   3.837   3.238  0.0922  0.4460 -0.3970
  626TIP3    H1 1884   0.337   3.820   3.256  0.0059 -0.2912 -1.4145
  626TIP3    H2 1885   0.445   3.926   3.269 -0.3476 -0.2121  1.9451
  627TIP3   OH2 1886   5.202   4.464   1.043 -0.1095 -0.2002  0.0012
  627TIP3    H1 1887   5.210   4.476   0.948 -1.5801  0.9522 -0.0071
  627TIP3    H2 1888   5.229   4.548   1.080 -0.2822 -0.3921  0.5653
  628TIP3   OH2 1889   1.520   4.452   5.061  0.5024 -0.0933 -0.5440
  628TIP3    H1 1890   1.570   4.410   5.131 -0.8515 -2.0867 -0.7266
  628TIP3    H2 1891   1.577   4.447   4.985  0.0313 -2.4862 -0.7886
  629TIP3   OH2 1892   0.935   2.852   0.771  0.2733 -0.2333 -0.3826
  629TIP3    H1 1893   0.894   2.912   0.708 -0.9566 -1.0540 -0.3995
  629TIP3    H2 1894   0.902   2.765   0.746  0.7373 -0.7179  0.6428
  630TIP3   OH2 1895   4.011   0.733   2.733  0.0392 -0.3990  0.3499
  630TIP3    H1 1896   3.998   0.669   2.804 -0.5512 -2.3531 -1.4316
  630TIP3    H2 1897   4.102   0.721   2.707  0.5690  1.0441  1.3629
  631TIP3   OH2 1898   0.984   4.096   0.345  0.2796  0.2773  0.0719
  631TIP3    H1 1899   1.012   4.074   0.256 -1.1268  0.1601 -0.3532
  631TIP3    H2 1900   1.005   4.189   0.354 -1.4654  0.8354 -1.1540
  632TIP3   OH2 1901   5.271   1.303   1.643  0.0186  0.3612 -0.2141
  632TIP3    H1 1902   5.227   1.222   1.617 -0.3597  0.8044 -1.0226
  632TIP3    H2 1903   5.305   1.339   1.561 -0.7456  1.5427 -0.0408
  633TIP3   OH2 1904   0.257   1.269   3.750 -0.1210  0.9055 -0.0653
  633TIP3    H1 1905   0.347   1.271   3.782 -0.0911  0.0510 -0.0684
  633TIP3    H2 1906   0.227   1.180   3.768 -1.0563  1.2491  0.1676
  634TIP3   OH2 1907   4.156   5.302   2.395  0.2225 -0.5471 -0.2821
  634TIP3    H1 1908   4.177   5.394   2.378 -1.3534 -0.2495 -0.7587
  634TIP3    H2 1909   4.060   5.298   2.391  0.1084 -1.7910  1.8673
  635TIP3   OH2 1910   2.596   4.917   1.585  0.1069  0.1540 -0.4169
  635TIP3    H1 1911   2.646   4.861   1.526  0.2310 -1.3578  1.0417
  635TIP3    H2 1912   2.659   4.981   1.617  0.6674 -0.5537 -0.0711
  636TIP3   OH2 1913   1.372   2.532   2.461 -0.1259  0.2493 -0.2175
  636TIP3    H1 1914   1.466   2.541   2.445 -0.2837  0.3499 -1.1324
  636TIP3    H2 1915   1.358   2.438   2.475 -0.0961  0.0327 -1.5291
  637TIP3   OH2 1916   0.165   0.501   2.202  0.0298 -0.2896  0.7590
  637TIP3    H1 1917   0.148   0.594   2.218 -1.1078 -0.4541  0.5720
  637TIP3    H2 1918   0.223   0.475   2.274 -0.0729  0.4368  1.1167
  638TIP3   OH2 1919   6.248   1.141   4.531 -0.1999  0.0677  0.4339
  638TIP3    H1 1920   6.276   1.050   4.523 -1.7626 -0.3927 -0.1095
  638TIP3    H2 1921   6.164   1.136   4.577 -0.3529  1.2304  0.3072
  639TIP3   OH2 1922   1.389   2.120   4.443 -0.0948 -0.1898 -0.1150
  639TIP3    H1 1923   1.447   2.190   4.473  0.2859 -1.1737  1.5810
  639TIP3    H2 1924   1.378   2.064   4.520 -0.3785 -2.0028 -1.4167
  640TIP3   OH2 1925   0.398   2.045   4.469  0.2336 -0.4483 -0.1218
  640TIP3    H1 1926   0.314   2.014   4.436  0.4939 -0.6021 -0.6382
  640TIP3    H2 1927   0.400   2.138   4.445 -0.5201 -0.0100  1.3745
  641TIP3   OH2 1928   0.314   2.093   2.427 -0.4667 -0.5092 -1.0150
  641TIP3    H1 1929   0.375   2.051   2.366 -0.0768 -1.1043 -0.2390
  641TIP3    H2 1930   0.281   2.169   2.380  1.7682  0.5335 -1.0584
  642TIP3   OH2 1931   3.346   0.408   0.198  0.0092  0.1452 -0.1504
  642TIP3    H1 1932   3.261   0.428   0.236  0.0167 -1.4894  0.7920
  642TIP3    H2 1933   3.409   0.460   0.248 -0.1140 -1.0744  1.3212
  643TIP3   OH2 1934   4.062   3.645   2.584  0.2697 -0.2323  0.6975
  643TIP3    H1 1935   3.984   3.701   2.586 -0.3369 -1.0424  0.4747
  643TIP3    H2 1936   4.111   3.674   2.507 -0.2783 -0.3258  0.3120
  644TIP3   OH2 1937   4.507   4.156   0.811  0.6857 -0.4522 -0.2611
  644TIP3    H1 1938   4.525   4.201   0.728  0.4078  0.7925  0.3354
  644TIP3    H2 1939   4.443   4.089   0.788  0.4436  0.0267 -1.0280
  645TIP3   OH2 1940   2.205   5.217   5.025  0.1091  0.1139  0.0644
  645TIP3    H1 1941   2.206   5.313   5.023 -0.1843  0.1097 -0.3129
  645TIP3    H2 1942   2.155   5.195   5.104 -1.6258  0.2751 -0.9616
  646TIP3   OH2 1943   4.427   3.651   4.561  0.2221  0.4831 -0.1064
  646TIP3    H1 1944   4.476   3.647   4.478  0.4946  1.2115  0.0094
  646TIP3    H2 1945   4.490   3.625   4.628 -0.2726 -1.0991 -0.2115
  647TIP3   OH2 1946   0.361   0.582   4.485  0.2043 -0.2277 -0.1562
  647TIP3    H1 1947   0.281   0.561   4.532  1.2669 -0.3860  1.6989
  647TIP3    H2 1948   0.394   0.498   4.453 -1.2133  0.0196 -2.4979
  648TIP3   OH2 1949   1.691   1.868   1.493  0.5173 -0.2835 -0.1896
  648TIP3    H1 1950   1.720   1.914   1.414  2.2706 -1.4698 -0.2837
  648TIP3    H2 1951   1.753   1.894   1.561  0.0571 -0.6125  0.3715
  649TIP3   OH2 1952   0.593   1.130   4.475  0.0779 -0.0897 -0.2016
  649TIP3    H1 1953   0.558   1.201   4.529 -3.0859 -1.0945 -0.7725
  649TIP3    H2 1954   0.568   1.154   4.385 -1.3671 -2.0459 -0.3666
  650TIP3   OH2 1955   4.811   2.007   3.892 -0.2883 -0.0572 -0.3773
  650TIP3    H1 1956   4.815   2.023   3.798 -1.0246 -0.5722 -0.5045
  650TIP3    H2 1957   4.778   1.918   3.900 -0.4074  0.0467  0.3766
  651TIP3   OH2 1958   4.781   2.123   0.017 -0.3044 -0.0825 -0.4537
  651TIP3    H1 1959   4.783   2.188  -0.053  0.7090  0.4706  0.0605
  651TIP3    H2 1960   4.850   2.152   0.078 -1.1023 -0.5968  0.7228
  652TIP3   OH2 1961   3.615   4.934   0.970  0.2092 -0.0688  0.1590
  652TIP3    H1 1962   3.537   4.882   0.984  0.0629 -0.0155 -0.4083
  652TIP3    H2 1963   3.602   5.014   1.022  0.1489 -0.3115  0.5174
  653TIP3   OH2 1964   3.919   1.590   3.865 -0.0763  0.1444 -1.0163
  653TIP3    H1 1965   3.963   1.612   3.783  1.1616 -1.4449 -0.8347
  653TIP3    H2 1966   3.945   1.659   3.926  2.8972 -1.0922 -0.7129
  654TIP3   OH2 1967   2.788   5.698   0.870  0.1094  0.3818  0.1443
  654TIP3    H1 1968   2.761   5.638   0.801  1.3920 -0.1396  0.0754
  654TIP3    H2 1969   2.721   5.687   0.938 -0.0923 -0.5648 -0.1847
  655TIP3   OH2 1970   1.032   1.606   2.273  0.3121  0.0044 -0.0179
  655TIP3    H1 1971   0.999   1.570   2.356 -1.4265 -1.0508 -1.0986
  655TIP3    H2 1972   0.979   1.564   2.206  2.5547 -0.1477 -1.7967
  656TIP3   OH2 1973   3.401   0.091   0.252  0.0701 -0.0120 -0.1145
  656TIP3    H1 1974   3.306   0.077   0.251  0.2720 -1.5566  0.4164
  656TIP3    H2 1975   3.438   0.005   0.274  1.5063  0.9596  1.5306
  657TIP3   OH2 1976   0.169   1.903   4.927  0.2823 -0.4092  0.2773
  657TIP3    H1 1977   0.223   1.944   4.860 -1.0527  1.3428  0.2189
  657TIP3    H2 1978   0.232   1.866   4.989  1.5273  0.0159 -0.6915
  658TIP3   OH2 1979   2.959   4.473   0.184 -0.0097  0.1203  0.2746
  658TIP3    H1 1980   2.966   4.471   0.279 -0.5912 -1.8921  0.3288
  658TIP3    H2 1981   2.869   4.501   0.167 -0.7288 -1.8997  0.4453
  659TIP3   OH2 1982   4.435   5.467   0.424 -0.3751  0.1685  0.6961
  659TIP3    H1 1983   4.518   5.483   0.468  0.0119 -1.3658  0.5780
  659TIP3    H2 1984   4.440   5.519   0.343  1.7569 -2.0638 -0.7654
  660TIP3   OH2 1985   4.083   4.081   1.532  0.3888 -0.6268  0.4170
  660TIP3    H1 1986   4.140   4.157   1.522  0.0576  0.4122  4.4713
  660TIP3    H2 1987   4.001   4.106   1.490  0.9997  0.2937 -0.2800
  661TIP3   OH2 1988   4.882   0.283   0.258 -0.4790 -0.1303  0.3475
  661TIP3    H1 1989   4.803   0.252   0.213  0.1427 -0.9259 -0.2109
  661TIP3    H2 1990   4.867   0.262   0.351 -1.6720  1.3234  0.5290
  662TIP3   OH2 1991   3.525   3.019   3.449 -0.5618 -1.2564 -0.3814
  662TIP3    H1 1992   3.555   2.951   3.389 -2.2842 -1.3455 -1.2046
  662TIP3    H2 1993   3.436   3.040   3.419 -0.2175  1.1187  0.0579
  663TIP3   OH2 1994   4.862   1.911   0.820 -0.4885  0.3811  0.1162
  663TIP3    H1 1995   4.768   1.902   0.833 -0.5869 -0.8956 -1.1939
  663TIP3    H2 1996   4.871   1.981   0.756 -0.6941 -0.6623 -1.0996
  664TIP3   OH2 1997   2.079   2.139   1.011  0.2298 -0.2828 -0.3020
  664TIP3    H1 1998   2.159   2.087   1.019  1.0038  0.9668  0.5012
  664TIP3    H2 1999   2.105   2.227   1.038 -1.2335  0.3436 -0.8192
  665TIP3   OH2 2000   1.806   0.700   4.425  0.4965 -0.2950  0.8240
  665TIP3    H1 2001   1.766   0.729   4.507 -0.2667 -1.0476  0.7220
  665TIP3    H2 2002   1.852   0.619   4.448  1.2639  0.1125  0.7546
  666TIP3   OH2 2003   5.974   0.002   0.380 -0.2123 -0.1565 -0.2074
  666TIP3    H1 2004   5.917   0.066   0.423  0.5795  0.1558  0.4179
  666TIP3    H2 2005   5.948   0.005   0.288 -0.7378  0.4810 -0.0514
  667TIP3   OH2 2006   0.464   5.569   2.195 -0.1078 -0.1529  0.5912
  667TIP3    H1 2007   0.410   5.498   2.228 -0.3071 -0.6283 -0.6751
  667TIP3    H2 2008   0.413   5.606   2.122  0.3317  0.7860  0.7469
  668TIP3   OH2 2009   4.442   1.883   1.096  1.0798  0.7600 -0.1142
  668TIP3    H1 2010   4.473   1.855   1.182  1.1844 -1.1080 -0.7165
  668TIP3    H2 2011   4.352   1.912   1.110  0.9707  0.0989  0.5526
  669TIP3   OH2 2012   2.728   1.047   4.866  0.2082 -0.0138  0.2202
  669TIP3    H1 2013   2.789   0.990   4.819 -0.2591 -0.5320  0.2305
  669TIP3    H2 2014   2.783   1.098   4.925  0.5628 -0.9867  0.7565
  670TIP3   OH2 2015   3.556   2.953   3.730  0.5054 -0.0904  0.1317
  670TIP3    H1 2016   3.634   2.897   3.738  1.8428  1.5603 -0.6739
  670TIP3    H2 2017   3.566   2.996   3.645 -0.3370  1.5549  0.8237
  671TIP3   OH2 2018   6.311   1.343   1.099 -0.3372 -0.1333 -0.2454
  671TIP3    H1 2019   6.234   1.374   1.146 -0.8967 -0.2190 -1.0818
  671TIP3    H2 2020   6.278   1.319   1.012  0.1304 -2.6140  0.1775
  672TIP3   OH2 2021   6.338   3.192   1.167  0.1973  0.2531  0.0756
  672TIP3    H1 2022   6.269   3.153   1.221 -0.3740  2.0307  0.7461
  672TIP3    H2 2023   6.330   3.150   1.082 -1.3391  0.0024  0.3182
  673TIP3   OH2 2024   0.503   3.796   4.480 -0.0861  0.3110  0.0562
  673TIP3    H1 2025   0.435   3.864   4.474  0.8051  1.4132  1.5173
  673TIP3    H2 2026   0.456   3.714   4.471 -1.4596  1.0746 -0.0561
  674TIP3   OH2 2027   6.062   1.441   0.319 -0.0363 -0.7182 -0.4239
  674TIP3    H1 2028   6.156   1.458   0.318 -0.5669  3.2252  0.1389
  674TIP3    H2 2029   6.042   1.424   0.411 -0.3438  3.3249  0.4496
  675TIP3   OH2 2030   4.773   3.986   2.062  0.0711 -0.6165  0.1396
  675TIP3    H1 2031   4.839   3.926   2.029  0.0928  0.4306 -1.8320
  675TIP3    H2 2032   4.726   4.016   1.984  0.2388  2.1325  0.9933
  676TIP3   OH2 2033   3.404   0.004   2.094  0.0971  0.1296 -0.5240
  676TIP3    H1 2034   3.434   0.083   2.139 -1.3422  0.6949 -0.5067
  676TIP3    H2 2035   3.351   0.036   2.021  0.8006 -0.8093 -1.4669
  677TIP3   OH2 2036   3.273   5.571   2.099  0.4273  0.1353 -0.1027
  677TIP3    H1 2037   3.300   5.495   2.048 -1.4088 -0.3290 -0.4851
  677TIP3    H2 2038   3.317   5.561   2.184  1.4442 -0.4899 -0.6923
  678TIP3   OH2 2039   3.387   1.780   4.978 -0.1450  0.5493 -0.4271
  678TIP3    H1 2040   3.337   1.717   4.925  0.6013  0.9809 -1.6748
  678TIP3    H2 2041   3.475   1.743   4.983 -0.0891  0.7454  0.1493
  679TIP3   OH2 2042   4.442   5.499   2.408  0.3363 -0.4416 -0.5078
  679TIP3    H1 2043   4.351   5.529   2.409  1.2286  2.6197  0.5546
  679TIP3    H2 2044   4.475   5.519   2.496  2.9184  1.7974 -1.8462
  680TIP3   OH2 2045   5.873   0.052   4.678 -0.4601  0.1144  0.0189
  680TIP3    H1 2046   5.913   0.116   4.618 -0.1067 -0.8212 -0.7660
  680TIP3    H2 2047   5.884   0.091   4.765 -0.8463  1.4290 -0.4927
  681TIP3   OH2 2048   6.171   2.460   0.149 -0.2717 -0.0783 -0.1526
  681TIP3    H1 2049   6.101   2.466   0.214 -1.3837  0.9351 -1.3743
  681TIP3    H2 2050   6.132   2.495   0.069  1.4384 -0.1174 -1.0498
  682TIP3   OH2 2051   4.379   0.311   4.466  0.0484 -0.0279  0.1695
  682TIP3    H1 2052   4.326   0.233   4.487  0.7762 -0.6343 -0.1892
  682TIP3    H2 2053   4.323   0.362   4.407  0.3417 -1.3243 -1.3109
  683TIP3   OH2 2054   6.263   0.779   0.746  0.4636 -0.0440 -0.2557
  683TIP3    H1 2055   6.312   0.782   0.828  0.8575 -2.4140 -0.3228
  683TIP3    H2 2056   6.176   0.748   0.771 -0.3109  1.8556 -0.4407
  684TIP3   OH2 2057   5.885   0.497   2.002  0.4312  0.0990 -0.4546
  684TIP3    H1 2058   5.813   0.512   1.942  2.5054  1.8045 -2.7431
  684TIP3    H2 2059   5.899   0.582   2.045  2.6407  0.6051 -2.0213
  685TIP3   OH2 2060   4.450   1.191   0.700 -0.3042 -0.0726 -0.3238
  685TIP3    H1 2061   4.539   1.181   0.736 -0.0065  0.3722 -0.9193
  685TIP3    H2 2062   4.460   1.175   0.607 -0.8415  0.0794 -0.4089
  686TIP3   OH2 2063   3.057   4.242   1.329 -0.0029  0.0313  0.6459
  686TIP3    H1 2064   3.115   4.293   1.385  1.0854  1.2106 -1.4058
  686TIP3    H2 2065   3.042   4.160   1.376  1.5889  0.5816  2.1941
  687TIP3   OH2 2066   5.365   4.233   3.826  0.1524  0.3011  0.2625
  687TIP3    H1 2067   5.385   4.174   3.898  0.4747 -0.7138 -0.6210
  687TIP3    H2 2068   5.274   4.260   3.841  0.7179  1.3732  1.8848
  688TIP3   OH2 2069   3.127   4.579   1.979 -0.1812 -0.0758  0.2189
  688TIP3    H1 2070   3.092   4.524   2.049 -0.1208 -1.2055 -0.6100
  688TIP3    H2 2071   3.222   4.579   1.995 -0.2439  0.3207  0.5939
  689TIP3   OH2 2072   1.532   2.944   2.390 -0.2697 -0.5184 -0.2012
  689TIP3    H1 2073   1.550   2.897   2.308 -0.3161 -2.7518  0.9693
  689TIP3    H2 2074   1.587   3.022   2.386  0.5552 -1.1345 -1.8935
  690TIP3   OH2 2075   3.347   4.253   4.792 -0.4389  0.1445 -0.2545
  690TIP3    H1 2076   3.315   4.247   4.882  2.0913 -1.6878  0.6173
  690TIP3    H2 2077   3.334   4.165   4.756  0.6988  0.2240 -0.8925
  691TIP3   OH2 2078   5.587   3.296   5.132 -0.0201 -0.3193  0.1784
  691TIP3    H1 2079   5.574   3.312   5.226 -0.3515  0.8065 -0.0464
  691TIP3    H2 2080   5.592   3.384   5.093  0.6100 -0.7740 -0.7907
  692TIP3   OH2 2081   1.321   1.786   3.986  0.4838  0.2711 -0.3162
  692TIP3    H1 2082   1.231   1.796   4.014  0.7433  1.7245  0.0459
  692TIP3    H2 2083   1.326   1.695   3.955 -0.9642  0.0303  0.0824
  693TIP3   OH2 2084   2.105   4.148   0.950  0.0444  0.1650 -0.2963
  693TIP3    H1 2085   2.119   4.055   0.965  1.0302  0.3498  0.0317
  693TIP3    H2 2086   2.172   4.173   0.887 -0.1262  0.6767 -0.2836
  694TIP3   OH2 2087   1.926   3.116   1.562 -0.0154  0.1000  0.0362
  694TIP3    H1 2088   1.998   3.138   1.504 -0.1798 -1.4955 -0.8438
  694TIP3    H2 2089   1.946   3.028   1.594 -2.5443 -1.3624 -1.9779
  695TIP3   OH2 2090   3.740   1.801   1.155  0.1501  0.1136 -0.4296
  695TIP3    H1 2091   3.779   1.882   1.121 -1.6413  0.2956 -2.2462
  695TIP3    H2 2092   3.685   1.770   1.084 -0.1448 -2.0820  0.6890
  696TIP3   OH2 2093   1.040   2.205   2.568 -0.2950 -0.1498  0.0448
  696TIP3    H1 2094   1.070   2.188   2.658 -1.0527  1.4313  0.6387
  696TIP3    H2 2095   1.005   2.121   2.539  0.6256 -0.8838  0.9445
  697TIP3   OH2 2096   3.664   4.089   2.703  0.0512 -0.1966  0.0723
  697TIP3    H1 2097   3.569   4.095   2.714 -0.1522 -0.2777 -1.5081
  697TIP3    H2 2098   3.698   4.100   2.792 -1.5221 -2.1891  1.0308
  698TIP3   OH2 2099   1.082   0.400   0.432  0.6487 -0.1281 -0.9243
  698TIP3    H1 2100   1.096   0.493   0.451  0.2694 -0.1195 -0.6648
  698TIP3    H2 2101   1.147   0.354   0.485  2.2979  0.0686 -2.6742
  699TIP3   OH2 2102   3.248   5.534   0.569  0.3888  0.0824  0.0790
  699TIP3    H1 2103   3.331   5.563   0.608 -0.1972  0.8118  0.8241
  699TIP3    H2 2104   3.181   5.564   0.631 -0.5774  1.2141 -1.4574
  700TIP3   OH2 2105   4.388   2.028   4.904 -0.2374  0.0880  0.6049
  700TIP3    H1 2106   4.412   2.021   4.812 -3.3826 -0.7835 -0.2753
  700TIP3    H2 2107   4.335   2.107   4.909 -1.0391 -0.4833  1.4056
  701TIP3   OH2 2108   1.464   5.854   1.124 -0.2276 -0.5727 -0.2281
  701TIP3    H1 2109   1.458   5.831   1.031 -0.5711 -1.1083 -0.0812
  701TIP3    H2 2110   1.465   5.770   1.169 -1.0826 -0.3080  0.3079
  702TIP3   OH2 2111   1.990   5.326   1.799  0.3014  0.3808 -0.1766
  702TIP3    H1 2112   1.974   5.234   1.776 -0.0602  0.7815 -1.6183
  702TIP3    H2 2113   1.923   5.346   1.864  0.5116 -0.4271  0.3032
  703TIP3   OH2 2114   3.330   0.890   3.712 -0.0275 -0.0187  0.0529
  703TIP3    H1 2115   3.293   0.909   3.626  2.5311  0.5870 -0.9942
  703TIP3    H2 2116   3.330   0.794   3.717  0.8285 -0.1087 -1.1517
  704TIP3   OH2 2117   0.632   0.601   2.595  0.4712 -0.9213 -0.2082
  704TIP3    H1 2118   0.625   0.677   2.654  1.8514 -2.1539  1.6430
  704TIP3    H2 2119   0.674   0.534   2.648 -0.3870 -2.8942 -1.9197
  705TIP3   OH2 2120   0.782   5.841   0.141  0.5499 -0.1424  0.2647
  705TIP3    H1 2121   0.755   5.891   0.217  0.3898  0.6060 -0.2723
  705TIP3    H2 2122   0.711   5.777   0.128  0.2995  0.1035  0.4051
  706TIP3   OH2 2123   1.243   1.697   0.003 -0.6901 -0.1831 -0.5692
  706TIP3    H1 2124   1.177   1.738  -0.052 -0.4992  1.2297  0.2230
  706TIP3    H2 2125   1.196   1.671   0.082 -0.6207 -0.6906 -0.6885
  707TIP3   OH2 2126   1.952   2.208   4.710 -0.2952 -0.0069  0.5617
  707TIP3    H1 2127   1.990   2.172   4.630 -0.0050  1.4292  0.0261
  707TIP3    H2 2128   1.996   2.162   4.781  1.1052  0.3119 -0.0765
  708TIP3   OH2 2129   2.181   0.571   0.395  0.4535 -0.2474 -0.1409
  708TIP3    H1 2130   2.125   0.585   0.471  1.1896 -0.0938  0.3873
  708TIP3    H2 2131   2.257   0.523   0.429  0.3093 -1.1185 -0.9771
  709TIP3   OH2 2132   1.046   3.718   0.188  0.7309 -0.2847 -0.1633
  709TIP3    H1 2133   0.997   3.740   0.109  0.1312 -1.4918 -0.1495
  709TIP3    H2 2134   1.105   3.647   0.161 -1.2751 -2.5116  0.9991
  710TIP3   OH2 2135   4.594   1.885   0.868 -0.1543 -0.4142  0.2549
  710TIP3    H1 2136   4.509   1.867   0.827 -0.9558  1.1402  1.1406
  710TIP3    H2 2137   4.572   1.911   0.958  1.1861  0.7562  0.2818
  711TIP3   OH2 2138   5.295   0.024   1.417  0.2940 -0.2593 -0.0590
  711TIP3    H1 2139   5.216   0.062   1.380 -0.9828 -0.2937  2.4372
  711TIP3    H2 2140   5.353   0.099   1.432 -0.3033  0.0960  0.4864
  712TIP3   OH2 2141   1.282   3.631   4.281  0.2189 -0.3499 -0.2960
  712TIP3    H1 2142   1.296   3.724   4.300 -0.9769  0.1132 -1.5897
  712TIP3    H2 2143   1.367   3.590   4.301  0.9687  1.1118 -0.3387
  713TIP3   OH2 2144   0.302   3.467   2.230 -0.3671 -0.2875  0.2231
  713TIP3    H1 2145   0.309   3.427   2.316 -0.8507  2.0458  1.4281
  713TIP3    H2 2146   0.268   3.397   2.174  0.1592 -1.9323  1.8321
  714TIP3   OH2 2147   2.094   1.733   0.165  0.1777 -0.2311 -0.6220
  714TIP3    H1 2148   2.082   1.811   0.111  0.8409 -0.8639 -1.7323
  714TIP3    H2 2149   2.171   1.752   0.218 -0.5411  0.4397  0.1930
  715TIP3   OH2 2150   6.210   3.803   3.224 -0.1009  0.3058 -0.0674
  715TIP3    H1 2151   6.264   3.725   3.233  1.0507  1.1014  0.2513
  715TIP3    H2 2152   6.130   3.773   3.182  1.3559 -0.5889 -2.3582
  716TIP3   OH2 2153   4.134   3.619   2.304 -0.3222  0.2615  0.1830
  716TIP3    H1 2154   4.164   3.550   2.363 -0.0596  0.9001  0.8196
  716TIP3    H2 2155   4.091   3.573   2.232  3.4047 -0.8271 -1.5782
  717TIP3   OH2 2156   1.911   0.648   0.997  0.3492 -0.1162  0.5792
  717TIP3    H1 2157   1.974   0.579   1.016  1.2024 -0.0402 -1.6104
  717TIP3    H2 2158   1.888   0.634   0.905 -0.9047  1.3900  0.6229
  718TIP3   OH2 2159   3.247   5.620   4.971 -0.3587 -0.2652  0.2268
  718TIP3    H1 2160   3.254   5.715   4.963 -0.5298 -0.2400  0.3619
  718TIP3    H2 2161   3.283   5.586   4.889  2.5395 -0.2219  1.3738
  719TIP3   OH2 2162   4.241   4.925   1.919  0.1455  0.3785  0.6652
  719TIP3    H1 2163   4.249   4.923   2.014  0.2659 -0.7805  0.6454
  719TIP3    H2 2164   4.287   4.846   1.889 -0.5629  0.3130 -0.2999
  720TIP3   OH2 2165   3.561   3.272   3.575 -0.2860  0.5237  0.2830
  720TIP3    H1 2166   3.557   3.196   3.518  0.7025  0.0825  0.7699
  720TIP3    H2 2167   3.597   3.342   3.519  1.3215 -0.0809  0.4905
  721TIP3   OH2 2168   2.332   2.821  -0.021  0.0817  0.4008  0.0843
  721TIP3    H1 2169   2.282   2.747   0.013  0.8169  0.2197  0.8015
  721TIP3    H2 2170   2.322   2.890   0.045  1.3381  0.1206  0.6021
  722TIP3   OH2 2171   0.997   3.911   4.377  0.0455  0.5031 -0.3301
  722TIP3    H1 2172   1.045   3.870   4.304  0.8796 -0.9057  0.9401
  722TIP3    H2 2173   0.917   3.860   4.385  0.5515 -0.1923  0.5234
  723TIP3   OH2 2174   1.630   2.364   0.555  0.3671  0.2505 -0.1588
  723TIP3    H1 2175   1.602   2.273   0.545 -1.7268  1.0292 -2.1263
  723TIP3    H2 2176   1.647   2.374   0.649 -0.1086 -1.9464  0.2080
  724TIP3   OH2 2177   6.126   5.723   3.544  0.5316  0.1540  0.1655
  724TIP3    H1 2178   6.178   5.731   3.624  0.5307 -0.6244  0.2472
  724TIP3    H2 2179   6.141   5.634   3.514 -1.6659 -0.5146  0.8296
  725TIP3   OH2 2180   3.976   5.621   1.599 -0.0031  0.1315  0.6027
  725TIP3    H1 2181   3.919   5.562   1.549  1.4783  0.4905 -1.6887
  725TIP3    H2 2182   3.931   5.705   1.597 -0.5219 -0.1306  0.9462
  726TIP3   OH2 2183   0.563   0.799   3.684 -0.1106  0.4150  1.1045
  726TIP3    H1 2184   0.492   0.839   3.634 -0.2733 -0.8235  0.2919
  726TIP3    H2 2185   0.600   0.870   3.735 -0.8323  1.4375  0.2402
  727TIP3   OH2 2186   3.352   2.604   2.168 -0.5866  0.2252  0.0585
  727TIP3    H1 2187   3.271   2.574   2.210 -0.0615 -0.7162  0.4116
  727TIP3    H2 2188   3.421   2.556   2.212  0.0378 -0.3899 -1.5333
  728TIP3   OH2 2189   0.168   1.435   0.448  0.0826 -0.5771 -0.2080
  728TIP3    H1 2190   0.254   1.477   0.441 -1.1115  1.8127 -1.8479
  728TIP3    H2 2191   0.185   1.352   0.492  3.2284 -0.2171 -0.5514
  729TIP3   OH2 2192   6.147   5.261   2.642 -0.5375 -0.0916 -0.2092
  729TIP3    H1 2193   6.094   5.182   2.643  0.9463 -1.1587 -1.5476
  729TIP3    H2 2194   6.195   5.257   2.559  2.4592  0.2096  1.3686
  730TIP3   OH2 2195   3.628   0.011   4.174  0.6322 -0.0117 -0.2212
  730TIP3    H1 2196   3.620   0.066   4.096 -0.0710  1.2611  0.7140
  730TIP3    H2 2197   3.710   0.039   4.215  0.0251  0.7137  0.5203
  731TIP3   OH2 2198   6.008   3.590   5.197  0.7432 -0.3617 -0.0543
  731TIP3    H1 2199   6.004   3.602   5.102 -0.1038  2.6117  0.2620
  731TIP3    H2 2200   6.100   3.603   5.219  0.6869  0.5116 -0.3161
  732TIP3   OH2 2201   4.635   5.771   0.301  0.0420  0.3732 -0.0315
  732TIP3    H1 2202   4.675   5.813   0.225 -1.2311  0.2789 -0.7781
  732TIP3    H2 2203   4.597   5.843   0.352  0.3708  0.3828  0.2005
  733TIP3   OH2 2204   0.795   2.622   3.946 -1.0649 -0.2702  0.0893
  733TIP3    H1 2205   0.762   2.647   4.032 -0.3889 -0.0201  0.2832
  733TIP3    H2 2206   0.776   2.698   3.891  1.2657  0.8806  0.7517
  734TIP3   OH2 2207   3.787   5.141   0.134 -0.5514  0.1777  0.0393
  734TIP3    H1 2208   3.789   5.076   0.063 -1.1926 -0.5882  0.7029
  734TIP3    H2 2209   3.695   5.148   0.157 -0.2062 -0.9455  2.0056
  735TIP3   OH2 2210   5.454   1.849   3.702  0.0342  0.0890  0.5727
  735TIP3    H1 2211   5.479   1.839   3.794 -0.8995  0.7180  0.9133
  735TIP3    H2 2212   5.365   1.884   3.705  0.0783  0.3424 -0.5738
  736TIP3   OH2 2213   4.137   4.898   2.282 -0.0631 -0.0740 -0.4944
  736TIP3    H1 2214   4.214   4.847   2.305  1.0740  1.3716 -0.8981
  736TIP3    H2 2215   4.172   4.971   2.230 -1.7921  0.2158 -1.3279
  737TIP3   OH2 2216   0.371   0.830   4.388  0.3776  0.2604  0.0255
  737TIP3    H1 2217   0.395   0.740   4.408 -0.5768 -0.1508 -0.6553
  737TIP3    H2 2218   0.434   0.857   4.320  1.4277  0.5327  1.0614
  738TIP3   OH2 2219   2.456   3.730   4.812  0.5304  0.2750  0.1803
  738TIP3    H1 2220   2.502   3.773   4.885  2.4938  0.2604 -0.9816
  738TIP3    H2 2221   2.467   3.637   4.829 -2.7494  0.0989  2.0891
  739TIP3   OH2 2222   1.273   2.829   3.389  0.2596  0.0023  0.4154
  739TIP3    H1 2223   1.223   2.884   3.449  0.7117  0.2719  0.5534
  739TIP3    H2 2224   1.302   2.889   3.320  0.5079 -0.1172  0.4132
  740TIP3   OH2 2225   3.663   2.797   2.778  0.4888 -0.6757  0.4271
  740TIP3    H1 2226   3.706   2.882   2.789 -0.1694 -0.3703  0.6774
  740TIP3    H2 2227   3.689   2.747   2.856  1.6570 -1.0623 -0.1787
  741TIP3   OH2 2228   2.708   2.153   4.377  0.0326  0.4847  0.2284
  741TIP3    H1 2229   2.621   2.113   4.379  0.4506 -0.7175 -2.2506
  741TIP3    H2 2230   2.736   2.146   4.286  2.2797  1.8664  0.7362
  742TIP3   OH2 2231   1.499   0.073   2.502  0.2672  0.6128 -0.4217
  742TIP3    H1 2232   1.463   0.130   2.569 -0.5658 -0.0473 -0.2845
  742TIP3    H2 2233   1.462  -0.013   2.522 -0.5777  0.5321 -2.1367
  743TIP3   OH2 2234   5.488   5.818   4.425  0.6027 -0.6154 -0.0024
  743TIP3    H1 2235   5.553   5.807   4.355  1.0794 -1.6272  0.5789
  743TIP3    H2 2236   5.499   5.908   4.454 -0.4148  0.2144 -2.0213
  744TIP3   OH2 2237   5.281   5.675   5.075  0.5068 -0.0553 -0.2444
  744TIP3    H1 2238   5.189   5.693   5.053 -0.0650 -2.9340 -0.6269
  744TIP3    H2 2239   5.282   5.671   5.171  0.3125  0.3584 -0.2227
  745TIP3   OH2 2240   4.623   0.957   4.788 -0.1641 -0.2897  0.2460
  745TIP3    H1 2241   4.684   0.966   4.861 -0.7153 -0.2114  0.7043
  745TIP3    H2 2242   4.647   1.026   4.727 -0.3279  0.2757  0.8136
  746TIP3   OH2 2243   4.425   0.238   1.774 -0.0305  0.0461  0.7103
  746TIP3    H1 2244   4.352   0.230   1.835 -1.4192 -0.1530 -0.8915
  746TIP3    H2 2245   4.503   0.218   1.826 -1.2984 -1.8691  1.9928
  747TIP3   OH2 2246   2.310   0.360   4.074  0.2303 -0.1667  0.6271
  747TIP3    H1 2247   2.230   0.386   4.120  0.8652  1.3001  0.9347
  747TIP3    H2 2248   2.297   0.390   3.984  0.7067  0.7131  0.8399
  748TIP3   OH2 2249   4.313   1.494   0.410  0.3611 -0.6432  0.2283
  748TIP3    H1 2250   4.344   1.478   0.499 -0.3526  1.0885  0.8331
  748TIP3    H2 2251   4.277   1.410   0.381  0.0116 -1.0667  1.8274
  749TIP3   OH2 2252   0.345   1.500   1.494 -0.0231 -0.6145 -0.1208
  749TIP3    H1 2253   0.273   1.560   1.514 -1.6955 -2.8952  1.2138
  749TIP3    H2 2254   0.313   1.449   1.419  0.7669 -0.8031 -0.3381
  750TIP3   OH2 2255   1.314   4.509   3.131 -0.0426  0.3410  0.8254
  750TIP3    H1 2256   1.353   4.553   3.207 -0.4222  0.9070  0.6969
  750TIP3    H2 2257   1.353   4.421   3.132  1.1790  0.8618  0.7543
  751TIP3   OH2 2258   4.555   2.010   1.852  0.3709  0.1335  0.0030
  751TIP3    H1 2259   4.481   1.979   1.800  0.1042 -1.2602  1.1234
  751TIP3    H2 2260   4.590   2.084   1.803 -1.3596  0.4169 -0.8845
  752TIP3   OH2 2261   1.451   2.524   1.189  0.2824 -0.0420 -0.1918
  752TIP3    H1 2262   1.503   2.586   1.137  0.6049 -0.2951 -0.1706
  752TIP3    H2 2263   1.370   2.513   1.138  0.2805  0.2876 -0.2658
  753TIP3   OH2 2264   0.617   0.363   0.978 -0.2963 -0.3678  0.4037
  753TIP3    H1 2265   0.640   0.455   0.994 -1.4517 -0.3381  2.2490
  753TIP3    H2 2266   0.691   0.328   0.929  0.0999  1.5757 -0.5017
  754TIP3   OH2 2267   4.465   2.008   3.040  0.7474  0.1729 -0.0664
  754TIP3    H1 2268   4.407   1.968   2.975 -0.6808  1.8959  0.0600
  754TIP3    H2 2269   4.501   2.085   2.995  1.3357  0.2515  0.5287
  755TIP3   OH2 2270   1.146   5.076   3.803  0.0495  0.2252  0.6397
  755TIP3    H1 2271   1.114   5.063   3.713  0.3926 -0.3765  0.5999
  755TIP3    H2 2272   1.130   5.169   3.821 -1.0470  0.1026  0.3603
  756TIP3   OH2 2273   5.968   0.297   2.154  0.4780 -0.1844 -0.3214
  756TIP3    H1 2274   5.934   0.372   2.106  0.4450 -0.0025 -0.0188
  756TIP3    H2 2275   5.915   0.223   2.125 -2.0346  0.5270  2.0992
  757TIP3   OH2 2276   3.188   0.314   3.057  0.5114 -0.2415 -0.2417
  757TIP3    H1 2277   3.271   0.300   3.102  1.2782  1.8500 -0.8729
  757TIP3    H2 2278   3.174   0.234   3.006  0.9245 -1.5753  1.6383
  758TIP3   OH2 2279   1.795   2.728   2.357 -0.4814  0.0976  0.0095
  758TIP3    H1 2280   1.821   2.792   2.423 -1.9156 -0.5385  1.2381
  758TIP3    H2 2281   1.721   2.681   2.396 -1.9793  0.2834 -2.3841
  759TIP3   OH2 2282   3.391   5.872   4.247  0.5189  0.1527  0.0695
  759TIP3    H1 2283   3.364   5.962   4.267 -0.4142  0.3867 -1.9237
  759TIP3    H2 2284   3.480   5.880   4.215  0.0707  0.5533 -1.1320
  760TIP3   OH2 2285   0.687   3.276   2.096  0.3192  0.0125  0.0331
  760TIP3    H1 2286   0.607   3.315   2.061 -0.1356 -1.4063 -0.6199
  760TIP3    H2 2287   0.659   3.192   2.133  1.6205 -1.0711 -1.2522
  761TIP3   OH2 2288   5.631   0.355   3.949  0.2168 -0.5399  0.0665
  761TIP3    H1 2289   5.579   0.277   3.932  0.0698 -0.6724  1.0485
  761TIP3    H2 2290   5.630   0.404   3.867 -1.0043 -0.8044 -0.0924
  762TIP3   OH2 2291   0.614   1.728   0.002  0.0964  0.1884  0.2302
  762TIP3    H1 2292   0.574   1.646   0.033 -2.6473  1.5873  0.7100
  762TIP3    H2 2293   0.669   1.757   0.075 -1.7551  0.5215  1.5583
  763TIP3   OH2 2294   0.868   4.651   4.354  0.0486  0.1468  0.3045
  763TIP3    H1 2295   0.947   4.615   4.395 -0.8141 -0.8230  1.1599
  763TIP3    H2 2296   0.799   4.636   4.418 -1.3098 -1.2204 -1.3811
  764TIP3   OH2 2297   5.082   4.538   2.882 -0.0347  0.3408 -0.3209
  764TIP3    H1 2298   5.132   4.603   2.832  0.1328  0.1719 -0.3745
  764TIP3    H2 2299   5.000   4.528   2.833  0.2337 -0.0107 -0.7013
  765TIP3   OH2 2300   5.251   4.700   3.933  0.2702  0.1805 -0.0814
  765TIP3    H1 2301   5.171   4.720   3.883 -0.8600 -1.1995  1.0801
  765TIP3    H2 2302   5.301   4.642   3.876  0.5823  1.2101 -0.8982
  766TIP3   OH2 2303   3.220   1.900   0.500 -0.2170 -0.2679 -0.1591
  766TIP3    H1 2304   3.211   1.934   0.411 -0.1869  0.1319 -0.0126
  766TIP3    H2 2305   3.134   1.865   0.522 -0.8057  1.4133  0.3737
  767TIP3   OH2 2306   5.119   2.904   0.699 -0.1037 -0.4066  0.2633
  767TIP3    H1 2307   5.164   2.858   0.628 -0.5940  1.2344 -1.2053
  767TIP3    H2 2308   5.029   2.871   0.697 -0.5871  0.8938 -1.1206
  768TIP3   OH2 2309   1.308   5.035   0.160 -0.6948  1.0993 -0.0925
  768TIP3    H1 2310   1.281   5.012   0.249  1.2950 -0.2626  0.2387
  768TIP3    H2 2311   1.236   5.007   0.104 -0.8987 -0.4065  0.8868
  769TIP3   OH2 2312   3.832   2.659   1.646  0.2218  0.2230  0.0874
  769TIP3    H1 2313   3.798   2.571   1.629 -0.1833  0.4430 -0.2846
  769TIP3    H2 2314   3.754   2.711   1.666  0.6187  0.1129  2.1180
  770TIP3   OH2 2315   3.087   2.445   3.044 -0.0777  0.1832 -0.4360
  770TIP3    H1 2316   3.055   2.536   3.047  1.3964  0.7101 -0.1505
  770TIP3    H2 2317   3.142   2.441   2.967  0.1993 -0.3540 -0.2138
  771TIP3   OH2 2318   2.299   3.239   2.642 -0.2172 -0.3900 -0.5464
  771TIP3    H1 2319   2.380   3.255   2.593 -1.3871 -0.0476 -2.4899
  771TIP3    H2 2320   2.274   3.325   2.676  1.2037 -0.8086  1.8022
  772TIP3   OH2 2321   5.213   4.989   0.765  0.3514  0.1300 -0.5861
  772TIP3    H1 2322   5.124   5.023   0.766  0.6953  1.0726  0.3815
  772TIP3    H2 2323   5.216   4.928   0.838  0.5838  0.3572 -0.4028
  773TIP3   OH2 2324   4.374   3.853   2.268 -0.5514 -0.2277 -0.2400
  773TIP3    H1 2325   4.290   3.883   2.234 -0.7526  1.1403  1.3284
  773TIP3    H2 2326   4.352   3.808   2.350  0.0924 -1.5589 -0.7735
  774TIP3   OH2 2327   5.213   2.836   1.901 -0.2361 -0.0166 -0.3085
  774TIP3    H1 2328   5.182   2.785   1.976  1.7263  1.3609  1.5492
  774TIP3    H2 2329   5.155   2.912   1.899 -0.8244 -0.4672 -0.7533
  775TIP3   OH2 2330   4.965   2.678   2.372  0.6326  0.6833 -0.2360
  775TIP3    H1 2331   5.028   2.606   2.377 -0.0635  0.1417  1.2587
  775TIP3    H2 2332   4.880   2.637   2.383  0.0876  1.5595 -1.0282
  776TIP3   OH2 2333   2.921   4.101   2.845 -0.0616  0.2779  0.1270
  776TIP3    H1 2334   2.849   4.127   2.903 -0.4068  0.3414 -0.3196
  776TIP3    H2 2335   2.996   4.153   2.874  0.2358 -0.9347  1.6215
  777TIP3   OH2 2336   3.290   5.098   2.464 -0.3855  0.1110  0.4584
  777TIP3    H1 2337   3.267   5.044   2.388  1.1181  1.6689 -1.2320
  777TIP3    H2 2338   3.382   5.076   2.481  0.2050  1.8979 -0.1611
  778TIP3   OH2 2339   2.279   1.993   4.711 -0.2093 -0.2736 -0.0164
  778TIP3    H1 2340   2.234   1.982   4.795  1.7131  0.0950  1.0940
  778TIP3    H2 2341   2.332   1.914   4.702 -1.3136 -0.9064 -1.5319
  779TIP3   OH2 2342   0.854   5.036   1.175  0.2194  0.1112 -0.3514
  779TIP3    H1 2343   0.782   5.095   1.199  1.5446  1.6109  0.1533
  779TIP3    H2 2344   0.816   4.977   1.109 -1.8328 -0.0914  0.9267
  780TIP3   OH2 2345   4.223   1.401   1.551 -0.5160 -0.6914 -0.0103
  780TIP3    H1 2346   4.198   1.308   1.551  1.3094 -1.2551 -1.3415
  780TIP3    H2 2347   4.315   1.400   1.577 -0.8133  0.9093  1.2339
  781TIP3   OH2 2348   5.906   5.010   1.903  0.5419 -0.6550  0.0482
  781TIP3    H1 2349   5.967   5.033   1.833 -0.8673 -0.0582 -1.0488
  781TIP3    H2 2350   5.842   5.082   1.903 -1.1518 -2.0966 -0.0483
  782TIP3   OH2 2351   0.090   2.655   0.494  0.1153 -0.2304  0.2237
  782TIP3    H1 2352   0.090   2.589   0.563  1.2869 -0.7405 -0.2418
  782TIP3    H2 2353   0.079   2.605   0.413  1.9944  0.0098 -0.2178
  783TIP3   OH2 2354   4.640   1.509   3.242  0.2577 -0.0856 -0.0048
  783TIP3    H1 2355   4.599   1.482   3.325 -0.3576 -2.4161 -0.9764
  783TIP3    H2 2356   4.567   1.538   3.188  0.0805 -2.0824 -0.9459
  784TIP3   OH2 2357   3.103   2.891   1.519 -0.1608  0.2891 -0.1516
  784TIP3    H1 2358   3.155   2.964   1.552 -1.5114  1.1771  0.1107
  784TIP3    H2 2359   3.072   2.920   1.433  1.5915 -1.1521 -1.3572
  785TIP3   OH2 2360   1.495   5.354   4.994 -0.0972  0.5318 -0.1180
  785TIP3    H1 2361   1.448   5.427   5.033  0.4456  0.6859  0.2519
  785TIP3    H2 2362   1.476   5.280   5.052  0.0147  0.5620 -0.0445
  786TIP3   OH2 2363   5.729   1.925   2.936 -0.0708  0.2564 -0.0837
  786TIP3    H1 2364   5.751   1.945   2.845 -1.4695  0.1745 -0.4579
  786TIP3    H2 2365   5.813   1.930   2.982  0.4913  1.4048 -1.1665
  787TIP3   OH2 2366   2.290   4.611   2.981 -0.2420  0.2081 -0.1858
  787TIP3    H1 2367   2.224   4.679   2.994  0.2617  1.0680 -1.7756
  787TIP3    H2 2368   2.312   4.617   2.888  1.2381 -0.8332  0.0569
  788TIP3   OH2 2369   5.200   0.801   0.679  0.1972  0.4891  0.3857
  788TIP3    H1 2370   5.126   0.758   0.635  0.1110  1.2307 -0.2097
  788TIP3    H2 2371   5.277   0.765   0.636  0.1321  0.7893  0.0166
  789TIP3   OH2 2372   3.975   3.689   0.299  0.8586  0.0861  0.2869
  789TIP3    H1 2373   3.910   3.620   0.307  1.0558 -0.2099 -0.5077
  789TIP3    H2 2374   3.948   3.739   0.222  0.1989  1.4847  1.3832
  790TIP3   OH2 2375   2.047   5.049   4.303 -0.4396  0.6438 -0.6728
  790TIP3    H1 2376   2.073   5.023   4.391 -0.2112  0.5605 -0.7646
  790TIP3    H2 2377   2.096   4.991   4.245 -1.8172 -0.4250 -0.8273
  791TIP3   OH2 2378   0.431   3.951   1.369 -0.4723 -0.0034 -0.1431
  791TIP3    H1 2379   0.456   3.912   1.285 -1.3225 -0.6140 -0.1344
  791TIP3    H2 2380   0.335   3.945   1.370 -0.5063  0.5696  0.6000
  792TIP3   OH2 2381   3.319   2.735   0.943 -0.4630  0.1643 -0.0263
  792TIP3    H1 2382   3.322   2.769   1.032 -1.5353 -2.2284  0.9952
  792TIP3    H2 2383   3.393   2.675   0.938 -1.4723 -1.0917 -0.1268
  793TIP3   OH2 2384   5.637   1.150   1.584 -0.0653  0.5203  0.1716
  793TIP3    H1 2385   5.593   1.067   1.602 -0.2161  0.5278 -0.1461
  793TIP3    H2 2386   5.727   1.125   1.565  0.4204  0.6232  2.1231
  794TIP3   OH2 2387   0.571   1.348   4.769  0.3985  0.0844 -0.0289
  794TIP3    H1 2388   0.496   1.289   4.766  0.3766 -0.0846  1.9910
  794TIP3    H2 2389   0.646   1.290   4.783  0.6474  0.3792 -0.1236
  795TIP3   OH2 2390   5.856   2.571   1.000  0.2855 -0.2089  0.2542
  795TIP3    H1 2391   5.881   2.479   1.003  1.0068 -0.0789 -0.8517
  795TIP3    H2 2392   5.923   2.616   1.052  1.4680 -0.0585 -1.2969
  796TIP3   OH2 2393   6.269   5.057   3.212  0.0439  0.3134 -0.7702
  796TIP3    H1 2394   6.359   5.057   3.244 -0.3085  1.9500  0.3391
  796TIP3    H2 2395   6.218   5.023   3.285 -0.4699  1.5026 -0.5565
  797TIP3   OH2 2396   1.917   1.182   3.138 -0.0988  0.2781  0.4172
  797TIP3    H1 2397   1.868   1.151   3.214  0.7644 -1.5345  0.2936
  797TIP3    H2 2398   2.007   1.152   3.154  0.3510  0.9733 -0.7222
  798TIP3   OH2 2399   2.271   0.939   3.694  0.0278  0.3819 -0.3750
  798TIP3    H1 2400   2.291   0.861   3.641  1.2180 -1.5233  2.6208
  798TIP3    H2 2401   2.176   0.944   3.694 -0.0312 -0.2935 -1.6339
  799TIP3   OH2 2402   0.865   5.372   4.430 -0.1899 -0.2357  0.0550
  799TIP3    H1 2403   0.889   5.462   4.407 -1.1533 -0.6336 -2.9333
  799TIP3    H2 2404   0.778   5.378   4.468 -1.8802 -0.0651 -3.4572
  800TIP3   OH2 2405   2.507   5.247   2.823  0.2068  0.1341 -0.2646
  800TIP3    H1 2406   2.553   5.264   2.905 -1.7851 -1.6100  1.3144
  800TIP3    H2 2407   2.563   5.186   2.775  1.3445  1.1013 -0.1954
  801TIP3   OH2 2408   0.860   3.508   2.034  0.1538 -0.2507 -0.3343
  801TIP3    H1 2409   0.779   3.462   2.012 -0.6333  2.0650 -2.9712
  801TIP3    H2 2410   0.839   3.601   2.019  2.7852  0.6010  0.6894
  802TIP3   OH2 2411   2.521   5.382   1.796 -0.0179 -0.2546 -0.2667
  802TIP3    H1 2412   2.547   5.385   1.888  1.4351 -1.2034 -0.6022
  802TIP3    H2 2413   2.427   5.368   1.798 -0.5297  2.6283  1.0388
  803TIP3   OH2 2414   2.812   1.241   5.056 -0.0258 -0.3491  0.3990
  803TIP3    H1 2415   2.780   1.327   5.085  0.9881  0.5273 -0.9838
  803TIP3    H2 2416   2.863   1.208   5.130 -1.2315 -0.2277  1.3132
  804TIP3   OH2 2417   4.017   5.702   2.195 -0.3796  0.2689 -0.2528
  804TIP3    H1 2418   4.012   5.796   2.214  0.3447 -0.2197  3.0444
  804TIP3    H2 2419   3.928   5.678   2.169 -0.8365  1.6679 -0.0879
  805TIP3   OH2 2420   1.461   2.062   4.803  0.3458 -0.7931 -0.0270
  805TIP3    H1 2421   1.542   2.112   4.807  0.6172 -1.0484 -1.7170
  805TIP3    H2 2422   1.490   1.970   4.800  0.0791 -0.8478 -1.8222
  806TIP3   OH2 2423   3.048   1.610   2.317  0.5782 -0.4394  0.3067
  806TIP3    H1 2424   3.143   1.618   2.318  0.6393 -1.1118  1.2154
  806TIP3    H2 2425   3.021   1.633   2.406 -0.1861  0.5063 -0.1564
  807TIP3   OH2 2426   5.029   5.698   1.651 -0.0670  0.5975 -0.4845
  807TIP3    H1 2427   4.978   5.621   1.626  0.1278  0.9380 -1.9759
  807TIP3    H2 2428   4.971   5.772   1.634 -0.0455  0.8333  0.4096
  808TIP3   OH2 2429   6.297   5.020   4.368  1.1377 -0.7943  0.0023
  808TIP3    H1 2430   6.345   4.938   4.368 -0.3356 -1.7507  2.6389
  808TIP3    H2 2431   6.353   5.081   4.416  1.5569 -0.6695 -0.6331
  809TIP3   OH2 2432   3.545   5.447   0.905 -0.6647 -0.6482 -0.0506
  809TIP3    H1 2433   3.622   5.459   0.849 -0.0754 -2.2778  0.3482
  809TIP3    H2 2434   3.548   5.520   0.967  1.2067 -1.2567  0.6506
  810TIP3   OH2 2435   3.457   1.563   2.782 -0.6146  0.4383 -0.0134
  810TIP3    H1 2436   3.514   1.524   2.715  0.8589  0.4035  1.2165
  810TIP3    H2 2437   3.517   1.611   2.839 -1.9298  1.0437  0.8982
  811TIP3   OH2 2438   5.602   4.628   1.111 -0.6319  0.4300 -0.4303
  811TIP3    H1 2439   5.693   4.633   1.140 -0.6751 -0.5959 -0.0607
  811TIP3    H2 2440   5.554   4.685   1.171 -0.3992  0.0222  0.1541
  812TIP3   OH2 2441   1.040   1.936   3.475  0.2014 -0.4617  0.2035
  812TIP3    H1 2442   0.949   1.912   3.491 -0.2880  0.5494 -0.8876
  812TIP3    H2 2443   1.077   1.860   3.429  0.1910 -1.2581  1.4837
  813TIP3   OH2 2444   5.023   3.733   3.268 -0.1283  0.4392 -0.6252
  813TIP3    H1 2445   4.991   3.811   3.314 -0.5838 -0.2520  0.2633
  813TIP3    H2 2446   4.973   3.732   3.186 -3.6610 -1.3839  1.2989
  814TIP3   OH2 2447   3.487   1.566   1.067  0.0801 -0.0357 -0.3160
  814TIP3    H1 2448   3.460   1.638   1.010 -1.2266 -0.1265  0.1540
  814TIP3    H2 2449   3.582   1.561   1.055  0.3750  2.4074  0.3766
  815TIP3   OH2 2450   3.141   5.770   1.744 -0.0838  0.2443 -0.0566
  815TIP3    H1 2451   3.089   5.692   1.763  0.8620 -0.1699  0.9508
  815TIP3    H2 2452   3.080   5.830   1.701 -1.8043  0.2938  2.2439
  816TIP3   OH2 2453   5.433   0.935   4.106 -0.5137  0.3646  0.4970
  816TIP3    H1 2454   5.447   0.984   4.026  1.1050  0.0433  0.5514
  816TIP3    H2 2455   5.392   0.853   4.078 -2.4796  1.3529  0.3253
  817TIP3   OH2 2456   5.101   5.780   0.097 -0.2617 -0.6059  0.3681
  817TIP3    H1 2457   5.158   5.736   0.034  0.2235  1.3355 -0.5946
  817TIP3    H2 2458   5.161   5.817   0.162 -0.4721  0.5674 -0.0889
  818TIP3   OH2 2459   1.013   3.614   1.815 -0.0674 -0.3609 -0.1685
  818TIP3    H1 2460   0.989   3.575   1.899  1.6079  0.3674  0.6956
  818TIP3    H2 2461   1.012   3.540   1.753 -1.1432 -0.9376  0.5006
  819TIP3   OH2 2462   2.324   5.613   2.328 -0.4614  0.6232 -0.1026
  819TIP3    H1 2463   2.292   5.541   2.274  0.8733 -1.5497  1.8362
  819TIP3    H2 2464   2.250   5.674   2.332 -2.0394 -1.1257 -0.9430
  820TIP3   OH2 2465   0.790   2.378   2.537  0.8336 -0.4482  0.4665
  820TIP3    H1 2466   0.779   2.465   2.575 -0.2951 -0.7233  0.8040
  820TIP3    H2 2467   0.770   2.389   2.444  0.4888 -0.3805  0.5476
  821TIP3   OH2 2468   4.145   1.981   1.979 -0.0709 -0.1740  0.3124
  821TIP3    H1 2469   4.215   1.951   2.036 -1.0123 -1.8486  0.6411
  821TIP3    H2 2470   4.175   2.067   1.948  2.1635 -0.8851  0.3306
  822TIP3   OH2 2471   4.783   5.204   0.606 -0.0601 -0.2811 -0.1187
  822TIP3    H1 2472   4.691   5.214   0.582 -0.4888  0.5934  1.7426
  822TIP3    H2 2473   4.798   5.271   0.672  0.9562 -2.5587  2.1552
  823TIP3   OH2 2474   4.007   2.920   3.989 -0.0227  0.6504  0.2257
  823TIP3    H1 2475   3.965   2.985   4.045  1.5310  0.9249  1.1176
  823TIP3    H2 2476   4.088   2.963   3.959 -0.5850  0.3527 -1.9016
  824TIP3   OH2 2477   4.604   0.412   4.932 -0.6271 -0.1678  0.2538
  824TIP3    H1 2478   4.675   0.352   4.912 -0.1662  0.6634 -0.6994
  824TIP3    H2 2479   4.540   0.398   4.862 -0.6390  0.2425  0.1764
  825TIP3   OH2 2480   2.159   0.564   1.068 -0.4257  0.2396 -0.3201
  825TIP3    H1 2481   2.189   0.655   1.061  1.1192 -0.1923  0.3307
  825TIP3    H2 2482   2.179   0.539   1.158  0.9689 -1.3309 -1.0211
  826TIP3   OH2 2483   4.021   5.916   3.391  0.3622 -0.2491 -0.2057
  826TIP3    H1 2484   3.932   5.913   3.427  1.0251  0.8330  1.7022
  826TIP3    H2 2485   4.039   6.009   3.378  2.0270 -0.1990  1.8201
  827TIP3   OH2 2486   1.830   2.098   0.867 -0.0700  0.1304 -0.1848
  827TIP3    H1 2487   1.908   2.131   0.911  0.1031 -0.7753  0.1863
  827TIP3    H2 2488   1.762   2.163   0.887  0.1929  0.1092  0.7987
  828TIP3   OH2 2489   4.433   3.799   3.801  0.0240  0.5814  0.1606
  828TIP3    H1 2490   4.339   3.792   3.818  0.2630  1.3116  2.0161
  828TIP3    H2 2491   4.472   3.813   3.887  1.8435  0.3501 -0.5841
  829TIP3   OH2 2492   0.536   5.802   3.321  0.6080 -0.1222 -0.9920
  829TIP3    H1 2493   0.544   5.716   3.362 -0.6599 -0.2426 -0.9584
  829TIP3    H2 2494   0.472   5.789   3.251 -0.2590  0.9763 -0.4384
  830TIP3   OH2 2495   2.717   5.595   1.989 -0.0598 -0.5212  0.1081
  830TIP3    H1 2496   2.628   5.629   1.997 -0.2243 -1.1172  0.9698
  830TIP3    H2 2497   2.768   5.668   1.954 -0.1275  1.0800  3.0775
  831TIP3   OH2 2498   1.801   3.703   0.964 -0.2271  0.1511 -0.4833
  831TIP3    H1 2499   1.824   3.647   0.890 -0.0571  0.1381 -0.4206
  831TIP3    H2 2500   1.707   3.691   0.975  0.0823 -1.5768  0.7162
  832TIP3   OH2 2501   3.401   2.960   2.572  0.3823 -0.2515  0.4275
  832TIP3    H1 2502   3.342   2.961   2.648  2.3569  1.3108  2.0465
  832TIP3    H2 2503   3.342   2.966   2.497 -1.5711  0.8147  1.9382
  833TIP3   OH2 2504   0.762   1.773   2.422 -0.2514 -0.1566 -0.4817
  833TIP3    H1 2505   0.738   1.682   2.436  0.1228  0.0543  1.9780
  833TIP3    H2 2506   0.732   1.793   2.333 -1.7690 -2.1956 -0.4848
  834TIP3   OH2 2507   1.433   4.568   4.089  0.1164 -0.0639  0.0992
  834TIP3    H1 2508   1.379   4.563   4.168  0.6477  1.1477  0.5640
  834TIP3    H2 2509   1.429   4.660   4.063  0.0463 -0.4250 -1.2302
  835TIP3   OH2 2510   4.887   5.424   1.027 -0.0894  0.0436  0.3112
  835TIP3    H1 2511   4.925   5.343   1.060  1.1840  1.2560  1.9919
  835TIP3    H2 2512   4.962   5.481   1.009 -0.8454  0.3197 -2.5485
  836TIP3   OH2 2513   4.082   5.453   1.012 -0.5581  0.2529  0.3860
  836TIP3    H1 2514   4.108   5.528   0.959 -0.8917  1.0356  1.3039
  836TIP3    H2 2515   4.139   5.457   1.088 -1.3159  0.2175  0.9622
  837TIP3   OH2 2516   5.883   4.374   0.359 -0.1371 -0.3627 -0.3692
  837TIP3    H1 2517   5.953   4.345   0.417  0.1884 -0.4418 -0.7916
  837TIP3    H2 2518   5.866   4.464   0.384 -0.1611 -0.4670 -0.0018
  838TIP3   OH2 2519   4.590   1.245   3.954  0.1111 -0.3298  0.0104
  838TIP3    H1 2520   4.502   1.225   3.984 -0.9563  1.4157 -1.6827
  838TIP3    H2 2521   4.592   1.217   3.863  1.8179 -1.5920  0.3711
  839TIP3   OH2 2522   3.362   3.721   3.263 -0.1159  0.1622 -0.0871
  839TIP3    H1 2523   3.337   3.632   3.240 -0.0306 -0.0208  0.5139
  839TIP3    H2 2524   3.295   3.750   3.325 -1.3902  1.3212 -1.9328
  840TIP3   OH2 2525   0.419   1.735   2.531 -0.0731  0.2658  0.1706
  840TIP3    H1 2526   0.424   1.645   2.500  1.2567  0.2076  0.4798
  840TIP3    H2 2527   0.493   1.779   2.489 -0.6215  1.1812  0.1362
  841TIP3   OH2 2528   6.027   0.232   2.844 -0.2914 -0.1097  0.1163
  841TIP3    H1 2529   6.029   0.326   2.864  0.8356 -0.4518  1.8492
  841TIP3    H2 2530   6.071   0.225   2.759  1.8189  0.7341  1.0711
  842TIP3   OH2 2531   4.507   5.187   4.856 -0.4402  0.7287 -0.3414
  842TIP3    H1 2532   4.484   5.277   4.832 -0.5100  1.2127  1.3711
  842TIP3    H2 2533   4.599   5.178   4.833 -0.3682  1.3349 -0.2976
  843TIP3   OH2 2534   2.124   3.281   3.262  0.2120 -0.5933  0.2483
  843TIP3    H1 2535   2.053   3.319   3.314 -0.8391 -1.0694 -0.7919
  843TIP3    H2 2536   2.184   3.244   3.326  0.0192  0.6647  1.1895
  844TIP3   OH2 2537   4.262   4.915   0.296 -0.4392  0.0522 -0.2829
  844TIP3    H1 2538   4.168   4.932   0.286 -0.6080 -0.2799  0.7026
  844TIP3    H2 2539   4.303   5.001   0.285 -1.0335  0.5841  1.4311
  845TIP3   OH2 2540   2.720   3.867   1.623  0.1187  0.3687  0.4038
  845TIP3    H1 2541   2.703   3.865   1.717  2.7877  0.2111  0.9394
  845TIP3    H2 2542   2.785   3.799   1.609  1.6826  2.0952 -1.1210
  846TIP3   OH2 2543   2.024   0.179   4.791  0.6171 -0.4969 -0.2646
  846TIP3    H1 2544   2.033   0.134   4.874  1.4140 -1.6127 -0.9189
  846TIP3    H2 2545   2.023   0.108   4.726  0.6766  0.3778 -1.2377
  847TIP3   OH2 2546   1.381   5.218   4.038 -0.0419  0.1124  0.3249
  847TIP3    H1 2547   1.303   5.238   4.088  0.0890  1.8126 -0.0792
  847TIP3    H2 2548   1.442   5.179   4.101 -0.8036 -0.2057  0.8691
  848TIP3   OH2 2549   5.622   1.844   3.913 -0.4097  0.4528  0.1767
  848TIP3    H1 2550   5.630   1.929   3.958 -0.0670  0.4193  0.1785
  848TIP3    H2 2551   5.712   1.817   3.897 -0.5293  0.6189 -0.8269
  849TIP3   OH2 2552   3.395   3.504   2.363  0.2302  0.3139 -0.4385
  849TIP3    H1 2553   3.329   3.444   2.330  0.0074  0.3228 -0.0146
  849TIP3    H2 2554   3.453   3.519   2.288  0.2963 -0.4341 -0.5464
  850TIP3   OH2 2555   5.252   4.001   4.278 -0.1065  0.1387  0.1492
  850TIP3    H1 2556   5.322   4.025   4.216  0.2076  1.4877  0.9807
  850TIP3    H2 2557   5.290   4.018   4.364 -0.9178 -0.6625  0.6790
  851TIP3   OH2 2558   1.170   2.194   3.412  0.1949  0.0160 -0.7064
  851TIP3    H1 2559   1.162   2.100   3.429 -0.4917  0.5035  2.2826
  851TIP3    H2 2560   1.085   2.220   3.377 -1.2219  0.1087  2.4514
  852TIP3   OH2 2561   5.086   2.033   0.116 -0.3684 -0.4287  0.6728
  852TIP3    H1 2562   5.092   1.995   0.204  1.7647 -1.8937 -0.0247
  852TIP3    H2 2563   5.166   2.084   0.106  0.2546 -1.6045 -0.9414
  853TIP3   OH2 2564   5.466   3.494   0.758  1.0425  0.2124 -0.3323
  853TIP3    H1 2565   5.531   3.563   0.741  1.0419  0.5890  1.0966
  853TIP3    H2 2566   5.465   3.484   0.853 -0.9565  0.1666 -0.3133
  854TIP3   OH2 2567   6.128   5.185   0.433  0.7103  0.0957  0.3365
  854TIP3    H1 2568   6.054   5.239   0.459  1.7733  2.1029 -0.5986
  854TIP3    H2 2569   6.124   5.183   0.338  2.5120  1.2902  0.1920
  855TIP3   OH2 2570   1.658   5.468   2.227 -0.5238  0.3659  0.3416
  855TIP3    H1 2571   1.586   5.448   2.167 -0.1004 -0.3534  0.0652
  855TIP3    H2 2572   1.688   5.383   2.257  1.2152  0.5574 -0.7261
  856TIP3   OH2 2573   3.024   0.587   0.986  0.1627  0.1217 -0.2446
  856TIP3    H1 2574   3.077   0.666   0.976 -0.0241  0.1307 -1.3512
  856TIP3    H2 2575   2.959   0.592   0.916  0.6545 -1.3996 -0.8619
  857TIP3   OH2 2576   4.714   2.251   2.528 -0.1270  0.0137  0.4194
  857TIP3    H1 2577   4.788   2.194   2.550  2.7303  2.5947 -1.5623
  857TIP3    H2 2578   4.672   2.208   2.454 -0.2842 -1.2128  1.1888
  858TIP3   OH2 2579   0.645   3.912   1.529  0.0136  0.5244 -0.6340
  858TIP3    H1 2580   0.623   3.844   1.593  0.5079  0.2586 -0.7453
  858TIP3    H2 2581   0.566   3.921   1.476 -0.0542  0.0461 -0.6124
  859TIP3   OH2 2582   1.401   2.964   0.844 -0.3562  0.0961  0.0744
  859TIP3    H1 2583   1.400   2.964   0.748 -0.4230  1.6135  0.0528
  859TIP3    H2 2584   1.359   2.881   0.868  2.0632 -1.6014 -1.1841
  860TIP3   OH2 2585   4.139   1.168   4.108 -0.0406  0.2068 -1.0021
  860TIP3    H1 2586   4.079   1.105   4.147 -0.6717  1.5556  0.2820
  860TIP3    H2 2587   4.083   1.223   4.052 -0.1706  1.7736  0.5693
  861TIP3   OH2 2588   5.421   1.831   2.131 -0.0832  0.0510  0.6606
  861TIP3    H1 2589   5.507   1.870   2.113  1.0859 -1.3901  2.7277
  861TIP3    H2 2590   5.360   1.885   2.081  1.7021  2.8681  1.2799
  862TIP3   OH2 2591   2.426   0.260   0.842  0.6837 -0.1732  0.1441
  862TIP3    H1 2592   2.373   0.285   0.767  1.4322  0.1818 -0.2770
  862TIP3    H2 2593   2.432   0.164   0.836  0.2556 -0.1961  0.0880
  863TIP3   OH2 2594   5.069   4.262   3.259  0.5777 -0.4065  0.2865
  863TIP3    H1 2595   5.064   4.330   3.193  0.9282 -0.0632  0.6057
  863TIP3    H2 2596   4.987   4.268   3.307  0.8606  0.2022  0.7045
  864TIP3   OH2 2597   0.290   6.005   3.321 -0.0048  0.9508 -0.4007
  864TIP3    H1 2598   0.330   5.975   3.239  1.1368  1.1979  0.0487
  864TIP3    H2 2599   0.267   5.924   3.367  0.9500  0.7901 -0.2013
  865TIP3   OH2 2600   1.029   0.418   1.049 -0.6519 -0.2131 -0.3353
  865TIP3    H1 2601   1.009   0.453   1.136  1.0986 -2.2680  0.9894
  865TIP3    H2 2602   0.944   0.415   1.005 -1.4100  2.0541  0.7889
  866TIP3   OH2 2603   3.871   3.191   3.161  1.0128  0.2855 -0.0109
  866TIP3    H1 2604   3.872   3.100   3.191  1.7147  0.5252  0.7021
  866TIP3    H2 2605   3.927   3.190   3.082  0.5512 -0.0056 -0.3414
  867TIP3   OH2 2606   5.204   4.002   1.888  0.0572 -0.2630 -0.6013
  867TIP3    H1 2607   5.145   4.069   1.854 -3.5119 -1.9110  1.7363
  867TIP3    H2 2608   5.222   4.029   1.977  1.8617 -0.4795 -0.8722
  868TIP3   OH2 2609   3.320   2.744   4.631  0.0332 -0.1512  0.0317
  868TIP3    H1 2610   3.336   2.757   4.538 -1.1034  0.3568 -0.1034
  868TIP3    H2 2611   3.240   2.794   4.649 -0.7958 -1.7240  0.9009
  869TIP3   OH2 2612   1.766   4.990   0.928 -0.2379 -0.5599 -0.1304
  869TIP3    H1 2613   1.812   4.924   0.979 -0.7033 -0.1212  0.8794
  869TIP3    H2 2614   1.760   4.952   0.840  0.1023 -1.5520  0.2593
  870TIP3   OH2 2615   2.055   3.251   3.699 -0.3240 -0.5082 -0.3963
  870TIP3    H1 2616   2.127   3.310   3.723 -1.0317  0.5855 -0.8900
  870TIP3    H2 2617   1.994   3.255   3.772  0.1583 -1.5572  0.0919
  871TIP3   OH2 2618   2.593   0.954   3.666  0.3551 -0.2078 -0.3646
  871TIP3    H1 2619   2.526   1.003   3.618  0.6118  0.3138 -0.1935
  871TIP3    H2 2620   2.667   0.951   3.606  0.1402 -0.9179 -0.6151
  872TIP3   OH2 2621   1.300   2.820   3.006 -0.1473  0.4276 -0.7175
  872TIP3    H1 2622   1.297   2.748   3.068 -2.7112  0.6369 -0.5186
  872TIP3    H2 2623   1.326   2.896   3.058 -0.4670  0.2452 -0.2918
  873TIP3   OH2 2624   5.770   2.314   3.135  0.1628  0.0226 -0.2032
  873TIP3    H1 2625   5.728   2.307   3.049  1.4503  2.4431 -1.1437
  873TIP3    H2 2626   5.769   2.408   3.154  2.4404 -0.1405  1.0780
  874TIP3   OH2 2627   4.676   1.079   1.623 -0.0875 -0.6796 -0.4199
  874TIP3    H1 2628   4.680   1.106   1.531  1.0088  1.6273  0.2213
  874TIP3    H2 2629   4.768   1.072   1.650 -0.3840 -0.0244  0.8241
  875TIP3   OH2 2630   3.594   1.052   0.861  0.4624 -0.3601 -0.0566
  875TIP3    H1 2631   3.624   0.987   0.797 -1.7062  0.0329 -1.6008
  875TIP3    H2 2632   3.499   1.044   0.860  0.2639  1.3202  1.3681
  876TIP3   OH2 2633   5.577   2.349   3.975  0.2361  0.1939  0.1463
  876TIP3    H1 2634   5.492   2.307   3.987  1.4815 -2.3914  0.6944
  876TIP3    H2 2635   5.594   2.394   4.058 -1.0846  1.7945 -0.4111
  877TIP3   OH2 2636   2.441   2.069   4.422  0.2167  0.0027  0.5450
  877TIP3    H1 2637   2.411   2.131   4.356 -0.0659 -1.0318 -0.3120
  877TIP3    H2 2638   2.418   2.110   4.506 -1.3342  0.3714 -0.0287
  878TIP3   OH2 2639   4.638   0.239   3.836  0.2870  0.5062 -0.3916
  878TIP3    H1 2640   4.566   0.176   3.827 -1.2151  2.2970 -1.5546
  878TIP3    H2 2641   4.663   0.260   3.747  1.4278  0.8383 -0.0033
  879TIP3   OH2 2642   1.843   3.889   3.047  0.1091 -0.3782 -0.4546
  879TIP3    H1 2643   1.842   3.910   2.953  2.5443 -0.3206 -0.5314
  879TIP3    H2 2644   1.802   3.965   3.089  1.4218  0.8420 -1.2966
  880TIP3   OH2 2645   1.701   2.929   2.878  0.0001  0.3024 -0.1350
  880TIP3    H1 2646   1.764   2.911   2.808  0.2172 -2.6785  0.6806
  880TIP3    H2 2647   1.619   2.947   2.832  0.1096 -1.7040 -1.2295
  881TIP3   OH2 2648   4.223   2.100   1.432  0.1918 -0.0234 -0.5039
  881TIP3    H1 2649   4.178   2.042   1.494  1.8202 -0.3794  0.4133
  881TIP3    H2 2650   4.187   2.187   1.450  0.7619 -0.0833  1.1312
  882TIP3   OH2 2651   0.871   4.322   4.232 -1.0156  0.2186  0.0211
  882TIP3    H1 2652   0.903   4.412   4.226  2.1367 -0.8337 -0.5183
  882TIP3    H2 2653   0.882   4.287   4.144 -3.4707 -0.4105 -0.1241
  883TIP3   OH2 2654   1.180   5.366   3.838 -0.1678  0.3949  0.5335
  883TIP3    H1 2655   1.121   5.437   3.863 -0.1394  0.7403 -0.3692
  883TIP3    H2 2656   1.259   5.381   3.889 -0.8677 -0.1204  1.8276
  884TIP3   OH2 2657   4.051   2.904   4.490 -0.1695 -0.1504 -0.7379
  884TIP3    H1 2658   4.080   2.961   4.418 -0.5192 -0.2562 -0.9676
  884TIP3    H2 2659   4.005   2.963   4.549 -1.3434 -0.3361 -1.4339
  885TIP3   OH2 2660   4.863   5.462   4.710 -0.3235 -0.3293 -0.1077
  885TIP3    H1 2661   4.903   5.534   4.759  0.0828 -1.3601  1.1103
  885TIP3    H2 2662   4.775   5.455   4.746 -0.4397 -0.3054 -0.3851
  886TIP3   OH2 2663   5.942   5.975   0.107  0.0281  0.2437 -0.1333
  886TIP3    H1 2664   5.905   5.916   0.041 -0.2789 -1.0125  1.1184
  886TIP3    H2 2665   5.991   6.040   0.056  0.5685 -1.2192 -1.5526
  887TIP3   OH2 2666   0.048   2.503   3.136 -0.5153 -0.6194  0.1552
  887TIP3    H1 2667   0.038   2.486   3.042  0.1796 -2.4442  0.3591
  887TIP3    H2 2668   0.065   2.597   3.142  0.1507 -0.5843 -1.6058
  888TIP3   OH2 2669   0.467   4.594   3.842  0.1145  0.2694 -0.0600
  888TIP3    H1 2670   0.542   4.624   3.892 -0.0896 -1.5770  1.4928
  888TIP3    H2 2671   0.466   4.499   3.855 -0.9677 -0.0823 -2.2007
  889TIP3   OH2 2672   0.279   2.882   4.315 -0.4608  0.7004 -0.3094
  889TIP3    H1 2673   0.326   2.953   4.359 -0.6555  0.7583 -0.1916
  889TIP3    H2 2674   0.309   2.885   4.225  0.7974 -0.1279  0.0449
  890TIP3   OH2 2675   1.813   2.430   1.741 -0.3653  0.3675 -0.1053
  890TIP3    H1 2676   1.811   2.476   1.825 -0.7259 -0.2572  0.2338
  890TIP3    H2 2677   1.761   2.351   1.756 -2.1104  1.1955 -1.4754
  891TIP3   OH2 2678   4.065   0.812   1.835  0.1706  0.3852  0.1925
  891TIP3    H1 2679   4.018   0.877   1.782 -1.0470 -1.3445 -0.9609
  891TIP3    H2 2680   4.032   0.826   1.924 -4.6849 -2.2712 -0.8506
  892TIP3   OH2 2681   3.155   3.698   3.738  0.0608 -0.2775  0.3436
  892TIP3    H1 2682   3.233   3.740   3.775 -1.2667  1.3412  1.4615
  892TIP3    H2 2683   3.121   3.644   3.809  0.8138 -1.9715 -0.5464
  893TIP3   OH2 2684   1.453   4.836   1.938  0.4874 -0.0793  0.2841
  893TIP3    H1 2685   1.396   4.760   1.931 -0.5462  0.7788 -1.5289
  893TIP3    H2 2686   1.541   4.800   1.947 -0.1209 -1.4500  1.0710
  894TIP3   OH2 2687   0.638   4.036   0.117  0.1372 -0.2566  0.0128
  894TIP3    H1 2688   0.616   4.127   0.137 -1.2908 -0.3746 -0.8669
  894TIP3    H2 2689   0.638   3.992   0.202 -0.2463  0.3619  0.3412
  895TIP3   OH2 2690   3.972   1.695   1.447  0.0030 -0.0259 -0.1053
  895TIP3    H1 2691   3.882   1.686   1.416 -0.5868  0.8087  1.3128
  895TIP3    H2 2692   3.990   1.613   1.493  0.1425 -0.3762 -0.7655
  896TIP3   OH2 2693   4.234   0.102   4.624 -0.4672 -0.2319 -0.0648
  896TIP3    H1 2694   4.203   0.016   4.653 -1.5449  0.0222 -0.4508
  896TIP3    H2 2695   4.161   0.162   4.641  0.4473  0.7222  0.6718
  897TIP3   OH2 2696   1.894   5.328   4.935  0.0001  0.0791  0.0616
  897TIP3    H1 2697   1.834   5.354   4.865  0.9691 -1.3303 -1.3791
  897TIP3    H2 2698   1.965   5.393   4.931  0.2852 -0.2683 -0.5956
  898TIP3   OH2 2699   3.227   5.229   0.492 -0.3080  0.2650  0.1988
  898TIP3    H1 2700   3.141   5.197   0.464  0.0824  1.0650 -2.1445
  898TIP3    H2 2701   3.207   5.301   0.553 -1.3493  0.8385 -0.7664
  899TIP3   OH2 2702   1.830   0.342   1.807  0.3342 -0.0775  0.4726
  899TIP3    H1 2703   1.814   0.382   1.721 -1.1816 -0.4848  0.5348
  899TIP3    H2 2704   1.787   0.401   1.869 -1.9132 -1.6800  0.5674
  900TIP3   OH2 2705   2.975   2.771   0.617  0.1934 -0.3263 -0.4844
  900TIP3    H1 2706   3.026   2.693   0.597  2.4164  0.7313  0.6785
  900TIP3    H2 2707   3.021   2.842   0.573 -1.9756  0.3696 -1.8110
  901TIP3   OH2 2708   2.575   2.823   3.869  0.1231  0.2084  0.0543
  901TIP3    H1 2709   2.646   2.781   3.821 -0.7023  0.6654 -1.6262
  901TIP3    H2 2710   2.612   2.840   3.956  1.8298 -0.2046 -0.5544
  902TIP3   OH2 2711   5.906   2.899   3.163 -0.0855 -0.0610 -0.3899
  902TIP3    H1 2712   5.969   2.970   3.151  1.1299 -1.1842 -0.7844
  902TIP3    H2 2713   5.821   2.939   3.141  0.8058  0.7677 -2.5928
  903TIP3   OH2 2714   5.376   3.453   3.324  0.1330  0.1774  0.2052
  903TIP3    H1 2715   5.376   3.537   3.370 -0.0515 -0.0614  0.6472
  903TIP3    H2 2716   5.319   3.397   3.377 -1.6887  0.4683 -1.3584
  904TIP3   OH2 2717   1.175   3.035   1.442 -0.3018  0.0894 -0.0739
  904TIP3    H1 2718   1.213   3.044   1.529 -0.4242  1.8202 -0.1804
  904TIP3    H2 2719   1.250   3.021   1.384 -0.3257 -3.0990  0.4782
  905TIP3   OH2 2720   3.094   0.888   2.003  0.4219  1.2698  0.0377
  905TIP3    H1 2721   3.019   0.904   1.946  0.8292  0.7982 -0.6498
  905TIP3    H2 2722   3.061   0.904   2.092  0.1777  3.5043 -0.3982
  906TIP3   OH2 2723   2.861   3.287   4.409  0.3440  0.5359  0.1913
  906TIP3    H1 2724   2.942   3.236   4.411  0.4034  0.6225  0.0295
  906TIP3    H2 2725   2.825   3.270   4.321 -0.7116 -0.9172  0.8564
  907TIP3   OH2 2726   5.693   1.923   0.146 -0.0343 -0.9079  0.1563
  907TIP3    H1 2727   5.775   1.910   0.195 -0.8150 -2.5642  1.1156
  907TIP3    H2 2728   5.670   1.835   0.115 -0.9660 -0.3088 -0.9150
  908TIP3   OH2 2729   2.286   5.157   0.958 -0.0135  1.0845 -0.5318
  908TIP3    H1 2730   2.243   5.150   0.873  1.3023  2.5566 -1.3718
  908TIP3    H2 2731   2.329   5.243   0.957  1.3672  0.4794  0.9835
  909TIP3   OH2 2732   0.533   4.426   5.162  0.0503 -0.4460 -0.1733
  909TIP3    H1 2733   0.507   4.337   5.187 -0.9288 -0.3290 -0.6982
  909TIP3    H2 2734   0.532   4.425   5.067 -0.4127  0.2402 -0.1857
  910TIP3   OH2 2735   5.524   0.649   0.848  0.0951 -0.4860 -0.8779
  910TIP3    H1 2736   5.469   0.668   0.924 -0.9809 -2.8468 -0.9933
  910TIP3    H2 2737   5.613   0.653   0.881 -0.1676  1.5326 -0.2535
  911TIP3   OH2 2738   3.568   4.108   2.086 -0.6594  0.3583  0.0224
  911TIP3    H1 2739   3.482   4.066   2.084 -0.9144  0.8391  0.7374
  911TIP3    H2 2740   3.602   4.089   2.173 -0.7168  1.4891  0.3080
  912TIP3   OH2 2741   4.878   0.312   2.385  0.1613  0.6743  0.2977
  912TIP3    H1 2742   4.809   0.377   2.375  0.3373  0.6407 -1.5140
  912TIP3    H2 2743   4.871   0.258   2.305  2.2574  0.6772  0.0690
  913TIP3   OH2 2744   3.399   2.438   5.137 -0.3976  0.1083  0.1919
  913TIP3    H1 2745   3.420   2.350   5.169 -0.6203 -0.1368 -0.3356
  913TIP3    H2 2746   3.304   2.439   5.129 -0.2595 -0.4971 -2.2978
  914TIP3   OH2 2747   5.813   3.338   2.302  0.3089 -0.3285  0.1159
  914TIP3    H1 2748   5.908   3.339   2.314  0.6404  1.9159 -1.8272
  914TIP3    H2 2749   5.796   3.261   2.248  0.9743 -0.9223  0.7389
  915TIP3   OH2 2750   1.101   1.322   3.242  0.7330 -0.0427 -0.4692
  915TIP3    H1 2751   1.022   1.321   3.296  0.3882 -0.3021 -0.9653
  915TIP3    H2 2752   1.173   1.312   3.304  0.4034  0.6495  0.0288
  916TIP3   OH2 2753   3.166   0.794   3.263  0.2465  0.0939  0.1675
  916TIP3    H1 2754   3.088   0.836   3.299 -1.0750 -1.1956 -1.0414
  916TIP3    H2 2755   3.135   0.750   3.184  1.6167 -2.6077  0.9896
  917TIP3   OH2 2756   4.720   4.496   4.609  0.2566  0.3811 -0.1553
  917TIP3    H1 2757   4.630   4.491   4.579  0.0152 -1.1788  0.7200
  917TIP3    H2 2758   4.771   4.513   4.530 -0.7167  0.2871 -0.8173
  918TIP3   OH2 2759   5.999   4.192   1.420 -0.0182  0.4808 -0.5076
  918TIP3    H1 2760   6.027   4.266   1.365 -0.8493  0.4983 -0.9153
  918TIP3    H2 2761   5.965   4.233   1.499  1.9646  0.4325  0.4371
  919TIP3   OH2 2762   5.883   0.798   4.534  0.5325  0.8432  0.2353
  919TIP3    H1 2763   5.889   0.783   4.628 -1.5187 -2.7560 -0.0204
  919TIP3    H2 2764   5.810   0.859   4.524 -0.6705 -0.4166  0.9785
  920TIP3   OH2 2765   4.841   2.799   4.900 -0.2225  0.0293 -0.6203
  920TIP3    H1 2766   4.748   2.824   4.892  0.0743  2.7801  2.3023
  920TIP3    H2 2767   4.845   2.746   4.979  0.4163 -2.5090 -2.2620
  921TIP3   OH2 2768   6.221   2.418   2.508 -0.4392  0.1041  0.0352
  921TIP3    H1 2769   6.204   2.328   2.536  0.5394  0.4030  1.7782
  921TIP3    H2 2770   6.134   2.458   2.502 -0.7899 -0.4551  1.1410
  922TIP3   OH2 2771   3.969   2.691   4.137  0.3930 -0.2544 -0.0505
  922TIP3    H1 2772   3.894   2.723   4.188 -0.0623 -0.9234 -0.2773
  922TIP3    H2 2773   3.992   2.765   4.080  1.4583  0.8122  1.6731
  923TIP3   OH2 2774   0.822   1.047   1.767  0.3252  0.5498 -0.2688
  923TIP3    H1 2775   0.828   1.143   1.764 -1.0971  0.7064  0.8128
  923TIP3    H2 2776   0.874   1.022   1.843  0.2670  0.5034 -0.2445
  924TIP3   OH2 2777   3.598   0.558   3.862 -0.0869  0.2737 -0.5897
  924TIP3    H1 2778   3.503   0.555   3.874  0.0585  0.4899  0.8524
  924TIP3    H2 2779   3.622   0.468   3.841 -0.4251 -0.2135  0.9322
  925TIP3   OH2 2780   3.639   2.126   0.848 -0.1082  0.0079 -0.1164
  925TIP3    H1 2781   3.573   2.137   0.916 -0.9943  0.9909 -1.0889
  925TIP3    H2 2782   3.644   2.212   0.805 -0.3043 -0.8239 -1.9100
  926TIP3   OH2 2783   5.787   2.674   2.882 -0.1050 -0.0388  0.4427
  926TIP3    H1 2784   5.777   2.769   2.892  0.5489  0.2169 -1.0822
  926TIP3    H2 2785   5.881   2.661   2.869 -0.1440 -0.9485  0.9758
  927TIP3   OH2 2786   4.226   1.838   3.719  0.3003  0.2977  0.1432
  927TIP3    H1 2787   4.279   1.812   3.643 -0.5234 -1.9594  0.2687
  927TIP3    H2 2788   4.258   1.783   3.791 -0.1193  1.1560  1.0154
  928TIP3   OH2 2789   4.209   5.082   0.596 -0.4090 -0.1994  0.4944
  928TIP3    H1 2790   4.120   5.052   0.577  0.3183 -1.9963 -0.3277
  928TIP3    H2 2791   4.227   5.148   0.529 -0.7050 -0.7178 -0.1094
  929TIP3   OH2 2792   3.041   4.338   2.143 -0.0418 -0.2066 -0.0663
  929TIP3    H1 2793   2.948   4.349   2.125  0.1214 -0.5323 -1.1978
  929TIP3    H2 2794   3.051   4.244   2.162  0.1269 -0.2794 -0.4873
  930TIP3   OH2 2795   4.701   5.459   0.178  0.4137  0.2700 -0.2938
  930TIP3    H1 2796   4.651   5.535   0.208  0.1888 -0.1000  0.3007
  930TIP3    H2 2797   4.792   5.486   0.184  0.3005  0.8040 -0.9724
  931TIP3   OH2 2798   1.170   2.520   2.928 -0.2235  0.5362  0.7926
  931TIP3    H1 2799   1.216   2.546   3.008 -1.4098  1.2342  1.2674
  931TIP3    H2 2800   1.238   2.479   2.874  0.5293 -0.2822  2.2918
  932TIP3   OH2 2801   1.560   0.859   3.310  0.2039 -0.3479  0.2359
  932TIP3    H1 2802   1.509   0.808   3.373 -1.0512 -0.8668 -1.1297
  932TIP3    H2 2803   1.517   0.842   3.226  0.8792  1.5508 -0.5348
  933TIP3   OH2 2804   4.529   2.131   0.653  0.0233  0.0741  0.2744
  933TIP3    H1 2805   4.466   2.059   0.645  0.8601 -0.7374  0.8464
  933TIP3    H2 2806   4.477   2.209   0.634 -0.4605 -0.7821 -2.4207
  934TIP3   OH2 2807   1.348   3.011   4.272  0.0564 -0.7432 -0.6210
  934TIP3    H1 2808   1.286   3.076   4.306 -0.2556 -0.4154 -1.7373
  934TIP3    H2 2809   1.299   2.929   4.270  0.2174 -0.8644  0.1035
  935TIP3   OH2 2810   3.195   4.183   3.775 -0.7287  0.0240 -0.2161
  935TIP3    H1 2811   3.104   4.158   3.763 -0.0736 -2.7407  0.0778
  935TIP3    H2 2812   3.216   4.158   3.865  0.0736  1.5949  0.0736
  936TIP3   OH2 2813   2.869   2.847   1.169 -0.6143 -0.9135  0.0121
  936TIP3    H1 2814   2.851   2.768   1.220 -0.5028 -1.6466 -1.0568
  936TIP3    H2 2815   2.867   2.818   1.078  0.6004  0.0768 -0.3619
  937TIP3   OH2 2816   2.605   1.455   0.582  0.3445  0.0711  0.0945
  937TIP3    H1 2817   2.689   1.415   0.607 -0.1645 -0.7790  0.4816
  937TIP3    H2 2818   2.606   1.454   0.486  0.7309 -0.0255  0.0959
  938TIP3   OH2 2819   2.499   0.349   1.204 -0.3494  0.0526  0.2104
  938TIP3    H1 2820   2.501   0.407   1.127  2.4104 -0.6883 -0.3794
  938TIP3    H2 2821   2.558   0.390   1.267 -0.8260 -0.5270  1.0591
  939TIP3   OH2 2822   2.505   0.773   1.370 -0.3640  0.4514  0.0757
  939TIP3    H1 2823   2.444   0.837   1.406 -1.8862 -0.6394 -0.5088
  939TIP3    H2 2824   2.500   0.786   1.275  0.4877  0.4727  0.0186
  940TIP3   OH2 2825   3.181   4.302   0.693 -0.5141  0.2161  0.1629
  940TIP3    H1 2826   3.108   4.269   0.642  0.1883  2.1587 -2.3100
  940TIP3    H2 2827   3.141   4.341   0.770 -1.7279 -1.6781  0.5498
  941TIP3   OH2 2828   3.440   2.070   1.423  0.5032  0.0869  0.3440
  941TIP3    H1 2829   3.361   2.112   1.456  0.1576 -0.0090 -0.3458
  941TIP3    H2 2830   3.409   2.002   1.363  1.0168 -1.7627  2.0525
  942TIP3   OH2 2831   1.389   5.837   1.561  0.4259  0.4345  0.3106
  942TIP3    H1 2832   1.449   5.790   1.502  0.4662  2.0243 -1.0173
  942TIP3    H2 2833   1.447   5.881   1.623  0.4731 -0.1294  0.6668
  943TIP3   OH2 2834   1.479   4.004   3.750 -0.3353 -0.5152  0.2430
  943TIP3    H1 2835   1.397   3.974   3.789 -0.2166 -0.0931  0.8324
  943TIP3    H2 2836   1.518   3.925   3.713  0.2040 -1.2159  2.1812
  944TIP3   OH2 2837   0.020   0.180   0.926 -0.3801 -0.0968 -0.1568
  944TIP3    H1 2838   0.075   0.122   0.873 -1.4398  0.4929 -1.9810
  944TIP3    H2 2839   0.012   0.260   0.874 -2.2781  0.1497  0.4381
  945TIP3   OH2 2840   2.738   0.912   1.323 -0.3724  0.1215 -0.4074
  945TIP3    H1 2841   2.658   0.872   1.357  0.3840  1.3482  3.3245
  945TIP3    H2 2842   2.748   0.993   1.374  2.1841  1.0844 -2.2051
  946TIP3   OH2 2843   4.229   2.459   2.373 -0.3408 -0.2624 -0.0485
  946TIP3    H1 2844   4.238   2.521   2.446 -2.5644 -1.1212  1.0412
  946TIP3    H2 2845   4.310   2.408   2.374  1.3744  2.2883 -0.7307
  947TIP3   OH2 2846   1.029   3.842   4.750  0.1082 -0.7309 -0.6570
  947TIP3    H1 2847   1.011   3.933   4.728  1.9626 -0.2595 -0.3924
  947TIP3    H2 2848   1.046   3.842   4.844 -1.1545 -1.5871 -0.4085
  948TIP3   OH2 2849   1.753   1.443   3.838 -0.4029 -0.1581 -0.5301
  948TIP3    H1 2850   1.780   1.426   3.929 -0.6446 -0.9850 -0.6022
  948TIP3    H2 2851   1.729   1.535   3.837  0.0830 -0.0131  0.1273
  949TIP3   OH2 2852   3.315   4.445   2.873 -0.6562 -0.2498  0.0803
  949TIP3    H1 2853   3.313   4.537   2.901 -0.2741 -0.5646  1.2059
  949TIP3    H2 2854   3.348   4.398   2.950 -1.6680 -1.4407 -0.1940
  950TIP3   OH2 2855   1.326   5.409   2.570  0.5060  0.2355 -0.0582
  950TIP3    H1 2856   1.248   5.463   2.580  0.9989  1.2111 -1.2393
  950TIP3    H2 2857   1.358   5.428   2.482  0.7114 -1.9972 -0.5209
  951TIP3   OH2 2858   5.783   2.372   0.668  0.2047  0.1961 -0.5567
  951TIP3    H1 2859   5.859   2.416   0.630  0.9531 -1.6895 -1.3466
  951TIP3    H2 2860   5.769   2.295   0.613  0.2929 -1.7803  1.9977
  952TIP3   OH2 2861   3.987   3.878   1.978  0.6173  0.5831  0.0522
  952TIP3    H1 2862   4.056   3.889   2.044  1.2076  0.8278 -0.5972
  952TIP3    H2 2863   4.002   3.948   1.915 -0.8450  1.2527  0.4209
  953TIP3   OH2 2864   2.801   1.016   3.495 -0.4306  0.5738 -0.1151
  953TIP3    H1 2865   2.760   0.990   3.413  0.9714  1.4870 -1.1503
  953TIP3    H2 2866   2.821   1.109   3.484  1.4639  0.3006  0.4959
  954TIP3   OH2 2867   5.003   5.808   4.334  0.3162  0.3433  1.1401
  954TIP3    H1 2868   5.024   5.900   4.346  0.7176  0.1546  1.9315
  954TIP3    H2 2869   4.986   5.800   4.240 -0.7751  1.4304  1.2179
  955TIP3   OH2 2870   0.030   4.536   5.045  0.2301 -0.3213 -0.1524
  955TIP3    H1 2871  -0.030   4.462   5.042  1.0722 -0.9987 -0.4694
  955TIP3    H2 2872   0.063   4.537   5.135  0.1500 -0.2781 -0.1234
  956TIP3   OH2 2873   5.782   3.853   4.172 -0.4926 -0.3667  0.7455
  956TIP3    H1 2874   5.849   3.911   4.138 -0.9572  0.8407  1.8019
  956TIP3    H2 2875   5.774   3.877   4.264 -1.5023 -1.3365  0.9371
  957TIP3   OH2 2876   3.383   2.283   0.612 -0.1983  0.3740  0.6222
  957TIP3    H1 2877   3.354   2.346   0.546  1.7780  0.2165 -0.4835
  957TIP3    H2 2878   3.427   2.335   0.679  0.2234  0.3149  0.3987
  958TIP3   OH2 2879   3.125   5.824   2.047 -0.4339  0.3506 -0.2282
  958TIP3    H1 2880   3.134   5.817   1.952 -0.7391 -0.4843 -0.2024
  958TIP3    H2 2881   3.178   5.751   2.081  0.4537  1.2141  0.2823
  959TIP3   OH2 2882   3.768   4.174   1.561 -0.5090  0.1320  0.4031
  959TIP3    H1 2883   3.675   4.159   1.582 -0.3284  0.2007  1.3136
  959TIP3    H2 2884   3.790   4.254   1.608  0.5671 -1.0672  2.0681
  960TIP3   OH2 2885   1.901   5.919   4.463  0.1199  0.0797 -0.3103
  960TIP3    H1 2886   1.912   5.849   4.399  0.1534  0.0645 -0.2877
  960TIP3    H2 2887   1.933   5.882   4.546  1.7105  0.6727 -0.6351
  961TIP3   OH2 2888   5.712   3.620   0.196 -0.5730  0.0632 -0.2711
  961TIP3    H1 2889   5.680   3.564   0.266 -0.5808 -0.2219 -0.5001
  961TIP3    H2 2890   5.790   3.663   0.232  0.5741 -1.5577 -0.7314
  962TIP3   OH2 2891   4.513   4.313   0.017 -0.4409  0.1477 -0.6515
  962TIP3    H1 2892   4.598   4.349   0.041 -1.2124  0.5744  1.6785
  962TIP3    H2 2893   4.533   4.249  -0.052  2.0484 -1.1968  1.1620
  963TIP3   OH2 2894   2.765   0.314   3.856  0.2256  0.1392 -0.0546
  963TIP3    H1 2895   2.733   0.269   3.777 -1.2191  0.3777  0.3646
  963TIP3    H2 2896   2.703   0.385   3.870  0.6209  0.2717  1.1474
  964TIP3   OH2 2897   4.355   3.698   4.218 -0.2848  0.2628 -0.0033
  964TIP3    H1 2898   4.307   3.778   4.197  0.5274  0.6712 -0.3649
  964TIP3    H2 2899   4.291   3.627   4.207 -0.3979  0.6166 -2.1819
  965TIP3   OH2 2900   0.261   4.940   0.315 -0.2253  0.2841 -0.9728
  965TIP3    H1 2901   0.313   5.006   0.362  0.2836 -0.7407 -0.0483
  965TIP3    H2 2902   0.174   4.979   0.308  0.2411  1.3380 -1.0490
  966TIP3   OH2 2903   2.500   4.732   2.783 -0.3609 -0.2420  0.2596
  966TIP3    H1 2904   2.571   4.760   2.840 -0.7081  0.4566  0.3532
  966TIP3    H2 2905   2.427   4.790   2.804 -0.9270 -0.8709  0.0756
  967TIP3   OH2 2906   2.192   2.340   3.977 -0.0322  0.4924 -0.4706
  967TIP3    H1 2907   2.283   2.370   3.969  0.4737 -0.8027  0.0727
  967TIP3    H2 2908   2.139   2.413   3.946  1.2587  0.6086 -2.5665
  968TIP3   OH2 2909   0.857   5.374   3.802 -0.6391  0.1352  0.3369
  968TIP3    H1 2910   0.794   5.425   3.853 -2.4915 -0.3917 -1.2858
  968TIP3    H2 2911   0.937   5.425   3.805 -1.7968  2.0483  0.5703
  969TIP3   OH2 2912   2.408   1.031   1.993  0.7399 -0.6970 -0.1555
  969TIP3    H1 2913   2.489   0.992   1.961 -0.3526 -1.4892 -2.1907
  969TIP3    H2 2914   2.411   1.121   1.962  1.1444 -0.5334  0.3603
  970TIP3   OH2 2915   0.310   5.547   1.926 -0.2398  0.3443 -0.4169
  970TIP3    H1 2916   0.256   5.468   1.931  0.5239 -0.1641  0.2434
  970TIP3    H2 2917   0.268   5.602   1.860 -0.6856 -0.7068 -1.0338
  971TIP3   OH2 2918   1.614   0.062   4.156 -0.3326 -0.3320  0.0155
  971TIP3    H1 2919   1.555  -0.012   4.171 -1.9532  1.0668  0.9210
  971TIP3    H2 2920   1.593   0.123   4.227 -1.7507  2.6387 -2.7328
  972TIP3   OH2 2921   1.993   2.750   2.953  0.0387  0.0142  0.8567
  972TIP3    H1 2922   2.004   2.834   2.996 -0.5664  0.3681  0.3394
  972TIP3    H2 2923   1.956   2.693   3.020 -0.6825  0.4987  0.8761
  973TIP3   OH2 2924   3.420   3.139   3.869  0.3953  0.0267  0.3167
  973TIP3    H1 2925   3.470   3.062   3.842  1.5542  0.1687  1.9617
  973TIP3    H2 2926   3.476   3.213   3.846  0.7920  0.2062  1.8026
  974TIP3   OH2 2927   6.205   3.800   4.833 -0.3940 -0.2565  0.1620
  974TIP3    H1 2928   6.282   3.852   4.808 -0.9466  0.0750 -0.9134
  974TIP3    H2 2929   6.242   3.716   4.861  0.3603 -0.1915 -0.5782
  975TIP3   OH2 2930   1.643   2.548   2.511 -0.3819  0.5557  0.2707
  975TIP3    H1 2931   1.666   2.459   2.485  0.6547  0.3215  1.8876
  975TIP3    H2 2932   1.687   2.561   2.595  0.4225  2.9973 -0.4472
  976TIP3   OH2 2933   0.560   4.536   0.152 -0.2119  0.1908  0.0657
  976TIP3    H1 2934   0.544   4.558   0.060 -0.7251  0.2253  0.1589
  976TIP3    H2 2935   0.491   4.583   0.200  0.1359  0.2869  0.4821
  977TIP3   OH2 2936   5.679   0.291   0.720  0.0271 -0.5263 -0.1606
  977TIP3    H1 2937   5.710   0.256   0.804  0.9118  0.5798 -0.0029
  977TIP3    H2 2938   5.586   0.267   0.717 -0.2313  0.1202  1.5244
  978TIP3   OH2 2939   3.093   3.883   3.064  0.1260 -0.3993 -0.3979
  978TIP3    H1 2940   3.067   3.973   3.044  1.8921  0.2351  0.0507
  978TIP3    H2 2941   3.050   3.831   2.996 -1.1307  0.7326 -0.5157
  979TIP3   OH2 2942   1.129   3.704   2.315  0.1731 -0.6924  0.4368
  979TIP3    H1 2943   1.072   3.696   2.391 -0.8117  2.7681  0.2572
  979TIP3    H2 2944   1.215   3.722   2.351 -0.0798 -0.0873  0.7532
  980TIP3   OH2 2945   6.028   1.503   3.799 -0.2246 -0.0478  0.6540
  980TIP3    H1 2946   6.086   1.438   3.759 -1.8188 -1.9274  1.2290
  980TIP3    H2 2947   5.950   1.503   3.743 -0.9117  0.1528  1.5908
  981TIP3   OH2 2948   1.369   5.287   0.354 -0.0290  0.1042 -0.1966
  981TIP3    H1 2949   1.328   5.331   0.279 -1.3099 -0.4763  0.1318
  981TIP3    H2 2950   1.439   5.234   0.315 -0.7439 -0.2724 -1.0052
  982TIP3   OH2 2951   1.190   1.592   0.835 -0.2871  0.6744 -0.4570
  982TIP3    H1 2952   1.228   1.638   0.909  1.8884 -1.1629 -0.3048
  982TIP3    H2 2953   1.108   1.638   0.816  0.0965  2.4076  1.7781
  983TIP3   OH2 2954   5.538   2.019   1.794  0.0539  0.5434 -0.1186
  983TIP3    H1 2955   5.447   2.000   1.772 -0.2100 -0.5345  1.7356
  983TIP3    H2 2956   5.575   1.935   1.821  1.5928  0.9769 -0.7298
  984TIP3   OH2 2957   4.049   0.438   1.211  0.1883 -0.1737 -0.0253
  984TIP3    H1 2958   3.981   0.497   1.243  0.4953  0.8348 -1.1839
  984TIP3    H2 2959   4.036   0.433   1.117 -1.7547 -4.4314  0.2342
  985TIP3   OH2 2960   1.072   4.934   4.866  0.0945  0.8976  0.0743
  985TIP3    H1 2961   1.137   4.996   4.899  0.2703 -0.0289  1.5557
  985TIP3    H2 2962   1.088   4.853   4.915 -0.5033 -0.1634 -1.3838
  986TIP3   OH2 2963   5.247   4.312   3.493  0.4938 -0.3279  0.0099
  986TIP3    H1 2964   5.324   4.256   3.487 -1.1260 -2.5473 -1.6445
  986TIP3    H2 2965   5.197   4.293   3.413 -1.6507  1.2032  0.8811
  987TIP3   OH2 2966   5.852   3.050   4.968 -0.4820 -0.0823 -0.1018
  987TIP3    H1 2967   5.885   3.136   4.942  0.9029 -0.8848 -1.1131
  987TIP3    H2 2968   5.836   3.005   4.886 -0.5420 -1.0314  0.4174
  988TIP3   OH2 2969   2.931   3.482   2.494 -0.1816  0.6838  0.0092
  988TIP3    H1 2970   2.949   3.503   2.586 -0.3500  2.4467 -0.3195
  988TIP3    H2 2971   2.844   3.520   2.478 -0.2382  0.2186 -0.8302
  989TIP3   OH2 2972   2.076   0.136   1.340  0.1578 -0.2890  0.4742
  989TIP3    H1 2973   2.037   0.127   1.427  1.0530 -1.1795  0.8017
  989TIP3    H2 2974   2.160   0.178   1.357  0.7946 -1.4085  0.1702
  990TIP3   OH2 2975   3.525   1.398   1.498  0.1029  0.2734  0.1043
  990TIP3    H1 2976   3.478   1.407   1.415  0.7787 -1.0548 -0.4409
  990TIP3    H2 2977   3.465   1.349   1.554 -0.0170  0.4480  0.1309
  991TIP3   OH2 2978   1.699   1.308   0.846 -0.0641  0.0514  0.0996
  991TIP3    H1 2979   1.610   1.277   0.865 -1.0932  2.3094 -0.6967
  991TIP3    H2 2980   1.754   1.262   0.909 -1.8343 -1.1506  0.8603
  992TIP3   OH2 2981   2.447   2.916   0.945 -0.0188 -0.3165  0.6201
  992TIP3    H1 2982   2.423   2.911   0.853 -0.8436 -2.4679  0.8852
  992TIP3    H2 2983   2.523   2.974   0.948 -0.1552  0.0047 -1.3604
  993TIP3   OH2 2984   0.824   0.728   2.138 -0.1067  0.6042 -0.1066
  993TIP3    H1 2985   0.866   0.715   2.052  0.0908  0.4363  0.0119
  993TIP3    H2 2986   0.852   0.652   2.189  0.4808  1.1404  0.3797
  994TIP3   OH2 2987   3.337   0.633   0.466 -0.1201  0.0667 -0.0479
  994TIP3    H1 2988   3.280   0.564   0.431 -1.1683  1.6647 -1.6593
  994TIP3    H2 2989   3.424   0.612   0.432 -0.4507 -0.4050 -0.6235
  995TIP3   OH2 2990   5.051   5.047   0.454  0.0492 -0.0173 -0.6118
  995TIP3    H1 2991   5.059   5.087   0.541  1.1381  1.7236 -1.4445
  995TIP3    H2 2992   5.108   5.100   0.399 -3.1158  1.0939 -3.1136
  996TIP3   OH2 2993   4.901   1.651   1.871  0.0409  1.0305  0.1353
  996TIP3    H1 2994   4.981   1.621   1.913 -0.1803 -0.2297 -0.2979
  996TIP3    H2 2995   4.883   1.736   1.912  1.1670  0.9804  0.7835
  997TIP3   OH2 2996   4.375   4.341   2.649  0.2362  0.3873  0.4770
  997TIP3    H1 2997   4.386   4.287   2.570 -0.1627  0.4484  0.3795
  997TIP3    H2 2998   4.280   4.350   2.659  0.2732  2.1594 -0.2686
  998TIP3   OH2 2999   2.809   2.760   2.410 -0.3292 -0.1308 -0.1194
  998TIP3    H1 3000   2.799   2.743   2.504 -1.5732 -1.0297 -0.3926
  998TIP3    H2 3001   2.800   2.855   2.403 -1.1757 -0.1353  0.5912
  999TIP3   OH2 3002   5.892   0.811   0.506 -0.1360  0.6065  0.3191
  999TIP3    H1 3003   5.850   0.874   0.447  1.2991  0.6031 -0.7447
  999TIP3    H2 3004   5.938   0.750   0.448 -2.6853 -2.4274  1.1995
 1000TIP3   OH2 3005   3.104   1.624   2.918 -0.5056  0.1819  0.1980
 1000TIP3    H1 3006   3.184   1.594   2.961 -0.0810  0.6461 -0.2571
 1000TIP3    H2 3007   3.078   1.702   2.967  0.0663  0.8029 -0.4726
 1001TIP3   OH2 3008   1.059   4.943   2.871  0.3339 -0.2275 -0.1543
 1001TIP3    H1 3009   0.988   4.961   2.934  1.2889  0.8353  0.6707
 1001TIP3    H2 3010   1.035   4.993   2.793 -0.0591 -0.2449 -0.0475
 1002TIP3   OH2 3011   4.166   0.862   0.500 -0.2243 -0.7427 -0.1689
 1002TIP3    H1 3012   4.203   0.893   0.583  0.7104  0.1784 -0.8968
 1002TIP3    H2 3013   4.103   0.930   0.476 -0.3851 -0.9323 -0.2787
 1003TIP3   OH2 3014   5.431   0.483   3.270  0.8649 -0.4033  0.0704
 1003TIP3    H1 3015   5.371   0.471   3.344  1.0125 -0.8994  0.1110
 1003TIP3    H2 3016   5.377   0.470   3.192  0.8966 -0.7588  0.1060
 1004TIP3   OH2 3017   5.610   5.634   2.431  0.0880 -0.2286 -0.5265
 1004TIP3    H1 3018   5.587   5.667   2.344  0.2132 -0.8058 -0.7840
 1004TIP3    H2 3019   5.539   5.575   2.453 -1.6236  2.2480  1.1421
 1005TIP3   OH2 3020   6.084   1.388   1.254 -0.0738 -0.1529 -0.5242
 1005TIP3    H1 3021   6.023   1.379   1.181  0.4993 -0.3010 -0.9928
 1005TIP3    H2 3022   6.079   1.304   1.300 -1.4014  0.3830  0.3960
 1006TIP3   OH2 3023   3.217   2.364   3.253  0.9251 -0.6201  0.3854
 1006TIP3    H1 3024   3.152   2.391   3.188  0.5059 -1.8645  0.2639
 1006TIP3    H2 3025   3.205   2.424   3.326  0.2426 -0.2837  0.0045
 1007TIP3   OH2 3026   5.929   1.800   1.708  0.3222 -0.2868  0.1900
 1007TIP3    H1 3027   5.945   1.817   1.616  2.8182 -0.6718  0.4859
 1007TIP3    H2 3028   5.907   1.706   1.712  0.3286 -0.2961  0.0149
 1008TIP3   OH2 3029   0.848   1.440   4.470 -0.7690  0.3877  0.0873
 1008TIP3    H1 3030   0.784   1.511   4.460 -0.5913  0.4882 -0.3770
 1008TIP3    H2 3031   0.933   1.484   4.464 -0.6332  0.4028  1.7314
 1009TIP3   OH2 3032   2.174   5.073   2.910  0.1226 -0.1580 -0.4266
 1009TIP3    H1 3033   2.265   5.044   2.907  0.1903 -0.1530  0.8535
 1009TIP3    H2 3034   2.125   4.993   2.931 -0.5301 -0.7531 -3.6973
 1010TIP3   OH2 3035   2.187   2.737   4.162 -0.1729 -0.6700  0.0439
 1010TIP3    H1 3036   2.211   2.657   4.117  1.1146 -1.0264  1.3162
 1010TIP3    H2 3037   2.111   2.713   4.216  0.8803 -1.3691  1.2748
 1011TIP3   OH2 3038   5.647   2.402   5.123  0.3186 -0.1180  0.1595
 1011TIP3    H1 3039   5.636   2.315   5.083  2.5631 -0.8940  1.0653
 1011TIP3    H2 3040   5.579   2.406   5.190  0.9704 -1.7356  0.9638
 1012TIP3   OH2 3041   3.543   3.650   2.044 -0.1343 -0.6401  0.1876
 1012TIP3    H1 3042   3.629   3.623   2.076 -0.5731 -1.4196  0.7329
 1012TIP3    H2 3043   3.562   3.727   1.989  0.6601  0.9754  2.5268
 1013TIP3   OH2 3044   2.172   1.619   4.722 -0.5598 -0.1232 -0.2037
 1013TIP3    H1 3045   2.209   1.635   4.635  1.4144  2.7019  1.0235
 1013TIP3    H2 3046   2.242   1.575   4.770 -1.1289 -0.4211  0.3683
 1014TIP3   OH2 3047   0.451   2.621   2.936 -0.6363 -0.0509  0.0221
 1014TIP3    H1 3048   0.526   2.562   2.943 -0.1519  0.4605 -0.7621
 1014TIP3    H2 3049   0.410   2.598   2.852 -0.2430  0.9499 -0.4501
 1015TIP3   OH2 3050   1.570   0.711   2.122 -0.2697 -0.0937  0.2180
 1015TIP3    H1 3051   1.484   0.670   2.109 -1.1861  1.5368  0.7908
 1015TIP3    H2 3052   1.632   0.650   2.082 -1.5052 -2.1138  1.2284
 1016TIP3   OH2 3053   2.900   1.862   4.436 -0.4094 -0.4237 -0.1369
 1016TIP3    H1 3054   2.919   1.953   4.415 -0.8463 -0.1036  0.8392
 1016TIP3    H2 3055   2.928   1.851   4.526 -0.8121 -1.1262 -0.0902
 1017TIP3   OH2 3056   4.555   1.513   1.112 -0.3803  0.2923  0.2988
 1017TIP3    H1 3057   4.596   1.426   1.113  0.8771  0.8605  0.4506
 1017TIP3    H2 3058   4.504   1.514   1.031  0.9097 -0.0292 -0.5575
 1018TIP3   OH2 3059   0.626   1.982   2.535  0.2548  0.2231  0.2839
 1018TIP3    H1 3060   0.625   2.043   2.460 -1.0069 -1.0041 -0.7383
 1018TIP3    H2 3061   0.698   1.922   2.515 -0.5202 -0.5260 -0.3267
 1019TIP3   OH2 3062   4.258   0.537   1.395  0.1811  0.6214 -0.2147
 1019TIP3    H1 3063   4.192   0.515   1.330 -0.0447  2.8160 -0.8037
 1019TIP3    H2 3064   4.210   0.542   1.477 -0.0052  0.2889 -0.3015
 1020TIP3   OH2 3065   5.233   1.375   2.251  0.0577 -0.1368 -0.2552
 1020TIP3    H1 3066   5.300   1.323   2.293  0.7786  1.5039  0.7336
 1020TIP3    H2 3067   5.277   1.457   2.227 -1.5130  0.9251  0.2669
 1021TIP3   OH2 3068   1.739   5.846   3.808 -0.7937 -0.2970  0.0530
 1021TIP3    H1 3069   1.768   5.757   3.829 -4.9258 -1.4571  1.6869
 1021TIP3    H2 3070   1.679   5.835   3.734 -0.9851  1.2548 -0.0478
 1022TIP3   OH2 3071   2.975   0.014   1.186 -0.3059 -0.2741 -0.5052
 1022TIP3    H1 3072   3.058   0.029   1.141 -0.7060 -1.3044 -1.6334
 1022TIP3    H2 3073   2.917   0.082   1.153 -0.1219 -0.0044 -0.2751
 1023TIP3   OH2 3074   1.648   3.093   1.628 -0.5369  0.3440  0.5919
 1023TIP3    H1 3075   1.605   3.150   1.564 -0.4962 -0.0181  0.2371
 1023TIP3    H2 3076   1.741   3.106   1.612 -0.5038 -1.0373 -0.6232
 1024TIP3   OH2 3077   4.518   0.904   0.901 -0.1782 -0.1091 -0.6168
 1024TIP3    H1 3078   4.475   0.945   0.976 -0.5493 -0.2729 -0.7376
 1024TIP3    H2 3079   4.607   0.938   0.903 -0.4687  0.6747 -0.6887
 1025TIP3   OH2 3080   5.521   3.816   4.602  0.0933 -0.7010  0.2487
 1025TIP3    H1 3081   5.587   3.834   4.534  0.8879 -0.8464  0.9565
 1025TIP3    H2 3082   5.452   3.880   4.587 -0.4196 -1.5972 -1.5518
 1026TIP3   OH2 3083   2.146   5.965   4.283 -0.5540 -0.0001  0.1403
 1026TIP3    H1 3084   2.051   5.968   4.295 -0.8121  2.6342 -1.6966
 1026TIP3    H2 3085   2.160   5.903   4.212 -0.9367 -0.0851  0.1392
 1027TIP3   OH2 3086   2.981   1.115   1.188 -0.1016  0.1786 -0.1488
 1027TIP3    H1 3087   2.905   1.134   1.134  0.8367  1.1891 -1.1755
 1027TIP3    H2 3088   2.970   1.170   1.265 -0.5738  0.0847 -0.1493
 1028TIP3   OH2 3089   0.344   5.858   2.125 -0.0393 -0.4297 -0.0016
 1028TIP3    H1 3090   0.412   5.831   2.064  0.0408  1.2179 -0.6886
 1028TIP3    H2 3091   0.344   5.953   2.121 -0.4607 -0.2827  2.1179
 1029TIP3   OH2 3092   5.089   0.707   2.163 -0.1436  0.4925  0.0004
 1029TIP3    H1 3093   5.137   0.752   2.232 -1.0295  1.0746  0.2435
 1029TIP3    H2 3094   5.056   0.628   2.205 -2.2120  1.7097  0.7876
 1030TIP3   OH2 3095   3.025   4.761   4.028  0.0911 -0.3320  0.5140
 1030TIP3    H1 3096   3.119   4.763   4.047  0.2458  2.4263 -0.1406
 1030TIP3    H2 3097   2.995   4.849   4.049 -2.2317 -0.9481  0.0193
 1031TIP3   OH2 3098   2.111   4.089   1.373 -0.0828  0.2193  0.3904
 1031TIP3    H1 3099   2.050   4.115   1.304  2.4276 -1.4249 -2.7614
 1031TIP3    H2 3100   2.139   4.171   1.413 -2.8552  1.1188  0.6772
 1032TIP3   OH2 3101   6.327   5.879   4.199 -0.4315  1.2663 -0.3482
 1032TIP3    H1 3102   6.296   5.795   4.233 -1.0805  1.7830  0.3868
 1032TIP3    H2 3103   6.249   5.921   4.163  0.2419  0.7262 -2.6023
 1033TIP3   OH2 3104   3.596   5.032   1.630  0.1258  0.3270  0.0322
 1033TIP3    H1 3105   3.512   4.998   1.661 -0.4695  1.9628  0.2840
 1033TIP3    H2 3106   3.648   4.953   1.611 -0.5435 -0.7116  2.2619
 1034TIP3   OH2 3107   4.600   1.725   5.147 -0.5028  0.1096  0.4409
 1034TIP3    H1 3108   4.652   1.676   5.083 -1.2358  0.5067 -0.4754
 1034TIP3    H2 3109   4.552   1.658   5.195 -0.1650 -0.1779  0.3778
 1035TIP3   OH2 3110   0.973   0.656   3.291  0.2177 -0.0063 -0.0168
 1035TIP3    H1 3111   0.931   0.609   3.363  0.9648 -1.9316 -0.7680
 1035TIP3    H2 3112   0.931   0.622   3.212  0.3282  1.0885 -0.5589
 1036TIP3   OH2 3113   3.458   1.004   2.045  0.0900  0.1666 -0.2575
 1036TIP3    H1 3114   3.514   1.077   2.019 -0.0981  0.7783  0.9844
 1036TIP3    H2 3115   3.377   1.018   1.996  0.9302 -0.6795 -2.0063
 1037TIP3   OH2 3116   0.774   1.300   0.529 -0.1717  0.1316  0.1225
 1037TIP3    H1 3117   0.741   1.385   0.558 -1.5950 -0.4268  0.2016
 1037TIP3    H2 3118   0.762   1.243   0.604 -2.6397 -0.9991 -1.0307
 1038TIP3   OH2 3119   6.364   3.928   0.679  0.2581  0.0071  0.1640
 1038TIP3    H1 3120   6.273   3.922   0.708 -0.0435  1.2315 -0.4610
 1038TIP3    H2 3121   6.385   3.840   0.647 -1.1219  0.0168 -0.8719
 1039TIP3   OH2 3122   1.682   0.503   1.231 -0.8102 -0.1218 -0.2001
 1039TIP3    H1 3123   1.768   0.489   1.190 -0.5144  0.1425  0.3212
 1039TIP3    H2 3124   1.693   0.472   1.321 -1.1047  0.4211  0.0248
 1040TIP3   OH2 3125   5.138   2.560   1.917  0.3315 -0.0291  0.2267
 1040TIP3    H1 3126   5.086   2.612   1.979  0.9369  0.4965  0.3037
 1040TIP3    H2 3127   5.095   2.474   1.916 -0.5365  0.3937  0.2861
 1041TIP3   OH2 3128   5.883   2.966   0.555 -0.5779  0.4435  0.4336
 1041TIP3    H1 3129   5.820   2.919   0.609 -0.5636 -0.1566 -0.0633
 1041TIP3    H2 3130   5.929   3.023   0.616 -0.9527  0.1922  0.9561
 1042TIP3   OH2 3131   5.411   2.643   1.344 -0.1696  0.7752  0.0111
 1042TIP3    H1 3132   5.378   2.730   1.324 -1.6568  0.8513  2.4253
 1042TIP3    H2 3133   5.405   2.594   1.262 -0.0362  2.6933 -1.1828
 1043TIP3   OH2 3134   1.149   5.312   2.888 -0.2322 -0.3488 -0.6931
 1043TIP3    H1 3135   1.173   5.264   2.808  0.0629 -0.2285 -0.6765
 1043TIP3    H2 3136   1.231   5.350   2.918 -0.2870 -0.6508 -0.1564
 1044TIP3   OH2 3137   1.260   1.677   1.096 -1.3572 -0.0966  0.2272
 1044TIP3    H1 3138   1.225   1.766   1.104  0.0522  0.7172 -1.8909
 1044TIP3    H2 3139   1.334   1.675   1.155 -0.9427  0.4090 -0.2610
 1045TIP3   OH2 3140   1.304   5.737   1.800 -0.4604 -0.4492 -0.5056
 1045TIP3    H1 3141   1.214   5.706   1.794 -1.2765  1.7027 -0.4229
 1045TIP3    H2 3142   1.321   5.778   1.715  0.1636 -0.1753 -0.2601
 1046TIP3   OH2 3143   4.108   4.565   3.694  0.0100  0.1371  0.0606
 1046TIP3    H1 3144   4.193   4.609   3.705  0.9390 -1.1861 -1.4938
 1046TIP3    H2 3145   4.084   4.581   3.603  0.2385 -2.2767 -0.4680
 1047TIP3   OH2 3146   0.229   3.191   3.757 -0.2702 -0.2798 -0.3687
 1047TIP3    H1 3147   0.160   3.190   3.823  0.0519  0.2867 -0.0195
 1047TIP3    H2 3148   0.236   3.099   3.730 -0.5629 -0.4830  0.2160
 1048TIP3   OH2 3149   1.957   2.786   0.211  0.1017 -0.0454  0.2699
 1048TIP3    H1 3150   1.936   2.864   0.159 -2.2372 -0.8418 -0.1023
 1048TIP3    H2 3151   1.872   2.749   0.234  1.1239 -1.4781  2.0409
 1049TIP3   OH2 3152   0.259   4.076   2.627  0.2607 -0.6172 -0.1467
 1049TIP3    H1 3153   0.208   4.040   2.555 -1.1555 -0.8488  0.9190
 1049TIP3    H2 3154   0.200   4.071   2.702  1.6812 -0.3811  1.0274
 1050TIP3   OH2 3155   3.174   4.511   2.355 -0.0895 -0.5433  0.5670
 1050TIP3    H1 3156   3.268   4.511   2.336 -0.1494  2.7773 -0.4779
 1050TIP3    H2 3157   3.136   4.454   2.289  0.9213  1.2639 -1.7296
 1051TIP3   OH2 3158   5.382   0.211   3.211 -0.5066 -0.3989  0.3669
 1051TIP3    H1 3159   5.450   0.274   3.236 -2.1863  1.8397 -0.3954
 1051TIP3    H2 3160   5.422   0.158   3.142  0.7249  0.2774  0.5321
 1052TIP3   OH2 3161   3.642   0.286   1.315  0.1827 -0.0346  0.8074
 1052TIP3    H1 3162   3.727   0.328   1.319  0.0944  0.2733 -0.3124
 1052TIP3    H2 3163   3.586   0.347   1.268 -0.8866  0.1126  2.1718
 1053TIP3   OH2 3164   0.521   3.677   2.386  0.1710 -0.1588  0.6123
 1053TIP3    H1 3165   0.517   3.589   2.350  0.1560  0.1136 -0.0718
 1053TIP3    H2 3166   0.588   3.722   2.334 -0.8147  0.6506 -0.0078
 1054TIP3   OH2 3167   0.803   1.702   3.385 -0.1324  0.2097 -0.0662
 1054TIP3    H1 3168   0.781   1.752   3.306 -0.8455 -1.5069 -0.9949
 1054TIP3    H2 3169   0.885   1.657   3.363 -0.9942 -1.2764 -0.3320
 1055TIP3   OH2 3170   0.260   4.461   4.144  0.2279 -0.3982  0.2400
 1055TIP3    H1 3171   0.307   4.501   4.217  2.2061  1.2274 -1.7572
 1055TIP3    H2 3172   0.330   4.428   4.087 -1.1802 -0.5016 -1.4936
 1056TIP3   OH2 3173   2.755   3.702   4.087 -0.0005 -0.6090  0.0271
 1056TIP3    H1 3174   2.836   3.748   4.107  0.7593 -1.8655 -0.0578
 1056TIP3    H2 3175   2.706   3.762   4.031 -0.0258  0.9735  1.6397
 1057TIP3   OH2 3176   0.615   1.205   1.326  0.0411 -0.4277 -0.0664
 1057TIP3    H1 3177   0.616   1.296   1.354 -1.2576 -0.7053  1.0006
 1057TIP3    H2 3178   0.621   1.155   1.407  1.8629 -1.3364 -0.7005
 1058TIP3   OH2 3179   5.364   2.570   2.473 -0.0493  0.1011 -0.1211
 1058TIP3    H1 3180   5.412   2.610   2.546  0.4146  0.0668 -0.3990
 1058TIP3    H2 3181   5.402   2.482   2.466 -2.4756 -1.2305  1.8388
 1059TIP3   OH2 3182   3.488   2.782   0.117  0.4503 -0.6097 -0.0208
 1059TIP3    H1 3183   3.467   2.747   0.031  0.7751 -1.1774  0.1226
 1059TIP3    H2 3184   3.584   2.780   0.121  0.4401 -0.5838  0.3490
 1060TIP3   OH2 3185   2.665   3.483   3.265 -0.1943 -0.3540 -0.1841
 1060TIP3    H1 3186   2.691   3.439   3.346  0.1894  0.0620 -0.0822
 1060TIP3    H2 3187   2.577   3.448   3.246 -1.1877  1.0753  1.5145
 1061TIP3   OH2 3188   0.284   5.649   4.610  0.1002 -0.6280  0.6583
 1061TIP3    H1 3189   0.355   5.678   4.552  0.4044 -1.7113  0.4618
 1061TIP3    H2 3190   0.208   5.698   4.581  0.7409  0.4906  0.8059
 1062TIP3   OH2 3191   1.471   3.438   2.609  0.1361 -0.4286 -0.3525
 1062TIP3    H1 3192   1.530   3.443   2.684  0.8431 -0.7255 -0.8847
 1062TIP3    H2 3193   1.466   3.528   2.576  0.0727 -0.3538 -0.1359
 1063TIP3   OH2 3194   1.590   0.517   0.707 -0.1268 -0.1809 -0.1351
 1063TIP3    H1 3195   1.577   0.474   0.623 -0.4266 -0.8471  0.2437
 1063TIP3    H2 3196   1.532   0.593   0.705  0.7184  0.4731 -0.9796
 1064TIP3   OH2 3197   2.769   3.114   2.817 -0.7847 -0.4759  0.0002
 1064TIP3    H1 3198   2.802   3.158   2.739 -0.5244 -1.1474 -0.2740
 1064TIP3    H2 3199   2.706   3.050   2.784 -2.1291  0.5370  0.4881
 1065TIP3   OH2 3200   3.971   1.053   2.151  0.4316 -0.0318  0.0018
 1065TIP3    H1 3201   3.910   1.001   2.099  1.6584 -1.5487 -0.0011
 1065TIP3    H2 3202   3.980   1.135   2.103  0.1216 -0.6706 -1.1855
 1066TIP3   OH2 3203   1.095   3.087   2.630 -0.5018  0.5799  0.8904
 1066TIP3    H1 3204   1.110   3.076   2.536 -0.0832 -2.0948  1.2068
 1066TIP3    H2 3205   1.173   3.132   2.661 -0.0373  0.3039  0.1599
 1067TIP3   OH2 3206   3.599   4.195   5.034 -0.6774  0.4081  0.3998
 1067TIP3    H1 3207   3.547   4.275   5.034 -0.2133  0.7476 -1.2246
 1067TIP3    H2 3208   3.690   4.225   5.035 -0.4976 -0.0671 -0.3354
 1068TIP3   OH2 3209   0.473   3.979   3.878 -0.4996 -0.2176 -0.1691
 1068TIP3    H1 3210   0.532   4.027   3.820 -1.0702 -0.9487 -1.3920
 1068TIP3    H2 3211   0.482   3.888   3.851 -0.7276 -0.5882  0.9635
 1069TIP3   OH2 3212   5.953   5.632   3.868  0.3386  0.2481 -0.0335
 1069TIP3    H1 3213   5.998   5.691   3.807  0.6136  0.8855  0.7638
 1069TIP3    H2 3214   6.005   5.552   3.866  2.5183  1.4686  1.9905
 1070TIP3   OH2 3215   3.911   2.450   2.688 -0.2387  0.1305 -0.2566
 1070TIP3    H1 3216   3.865   2.441   2.771  1.1838 -2.2389  0.3708
 1070TIP3    H2 3217   3.862   2.394   2.627  0.2111 -0.2396 -0.2895
 1071TIP3   OH2 3218   5.379   4.792   2.527  0.0776  0.1756  0.1039
 1071TIP3    H1 3219   5.400   4.864   2.587  1.5281 -0.6453  0.6156
 1071TIP3    H2 3220   5.460   4.777   2.478 -0.0915 -1.3274  0.2387
 1072TIP3   OH2 3221   4.248   4.305   1.508 -0.3023  0.1079 -0.5753
 1072TIP3    H1 3222   4.276   4.370   1.572  0.3985  0.3798 -1.1402
 1072TIP3    H2 3223   4.276   4.342   1.424  0.4030 -1.0904 -0.8758
 1073TIP3   OH2 3224   3.418   1.007   0.240  0.1098  0.8568 -0.3214
 1073TIP3    H1 3225   3.438   1.014   0.147 -1.2438  0.1178 -0.6965
 1073TIP3    H2 3226   3.373   1.088   0.262 -1.5008  0.1351 -0.8538
 1074TIP3   OH2 3227   4.616   4.480   1.797  0.3331  0.0955 -0.5451
 1074TIP3    H1 3228   4.651   4.567   1.815 -1.3996  0.9028 -0.9074
 1074TIP3    H2 3229   4.609   4.438   1.882 -2.2683  1.7014  0.1246
 1075TIP3   OH2 3230   5.243   5.435   0.238  0.6887 -0.5307  0.0879
 1075TIP3    H1 3231   5.327   5.443   0.283  1.2552 -1.9560 -0.6134
 1075TIP3    H2 3232   5.257   5.479   0.154  0.6395 -0.5132  0.0890
 1076TIP3   OH2 3233   4.623   0.208   4.395 -0.3069  0.2797  0.3555
 1076TIP3    H1 3234   4.594   0.122   4.365 -0.5229  1.2123 -2.4326
 1076TIP3    H2 3235   4.542   0.255   4.417 -0.1514 -0.3849  2.5308
 1077TIP3   OH2 3236   5.215   2.902   2.887 -1.0070 -0.0031  0.0718
 1077TIP3    H1 3237   5.142   2.842   2.900  0.1022 -0.9593  2.4419
 1077TIP3    H2 3238   5.290   2.845   2.870 -0.4541  0.8840 -0.5567
 1078TIP3   OH2 3239   5.168   4.367   4.384 -0.3544  0.6094  0.0389
 1078TIP3    H1 3240   5.080   4.404   4.380 -0.9947 -0.9532 -1.0892
 1078TIP3    H2 3241   5.207   4.391   4.299  0.1494  0.8890  0.3447
 1079TIP3   OH2 3242   4.625   5.278   2.347  0.3937 -0.2737 -0.3633
 1079TIP3    H1 3243   4.564   5.351   2.350  0.6660 -0.0115 -0.9784
 1079TIP3    H2 3244   4.712   5.318   2.359  0.3780 -0.7995  1.9882
 1080TIP3   OH2 3245   4.405   2.363   3.665  0.6213 -0.2819  0.4748
 1080TIP3    H1 3246   4.330   2.379   3.607  0.9710 -1.9771 -0.5435
 1080TIP3    H2 3247   4.370   2.374   3.753 -0.0922  1.7596  0.0036
 1081TIP3   OH2 3248   5.214   3.603   1.486 -0.6776 -0.1047  0.8022
 1081TIP3    H1 3249   5.190   3.532   1.426  1.8731  0.0121 -0.5338
 1081TIP3    H2 3250   5.236   3.676   1.428  2.3099 -0.1209  1.7446
 1082TIP3   OH2 3251   4.246   2.723   0.872  0.1012 -0.3002 -0.6458
 1082TIP3    H1 3252   4.266   2.813   0.845  1.2012 -0.7067 -1.2598
 1082TIP3    H2 3253   4.212   2.732   0.961  1.7523  0.6164 -0.0507
 1083TIP3   OH2 3254   6.062   1.653   5.002 -0.8314  0.2463  0.3888
 1083TIP3    H1 3255   6.146   1.620   5.035 -0.4702  0.4661 -0.2818
 1083TIP3    H2 3256   6.034   1.718   5.066 -0.2306  0.5412  0.3561
 1084TIP3   OH2 3257   3.971   1.524   2.997  0.3411  0.2714  0.2921
 1084TIP3    H1 3258   4.053   1.483   2.971  0.8111 -0.0479  2.1562
 1084TIP3    H2 3259   3.908   1.494   2.931  0.5237 -4.0008  1.7667
 1085TIP3   OH2 3260   0.459   2.879   3.807  0.2506 -0.5127 -0.1162
 1085TIP3    H1 3261   0.433   2.899   3.717 -0.4358  2.0041  0.5572
 1085TIP3    H2 3262   0.554   2.889   3.808  0.2268 -0.2455 -0.5025
 1086TIP3   OH2 3263   4.007   0.480   0.869 -0.7664  0.0788  0.5042
 1086TIP3    H1 3264   3.953   0.551   0.902 -0.2268  0.1097  1.3337
 1086TIP3    H2 3265   3.954   0.440   0.799 -1.4501  0.7052  0.6585
 1087TIP3   OH2 3266   5.627   3.877   2.757  0.5057 -0.0956  0.0548
 1087TIP3    H1 3267   5.552   3.875   2.815  0.0244  1.2059 -0.4821
 1087TIP3    H2 3268   5.590   3.871   2.669  0.9681  0.9627 -0.2355
 1088TIP3   OH2 3269   0.220   0.179   3.099 -0.8275  0.4960 -0.4015
 1088TIP3    H1 3270   0.141   0.232   3.089 -1.5770 -0.5268 -0.0893
 1088TIP3    H2 3271   0.253   0.201   3.186  0.4569  2.4924 -1.3313
 1089TIP3   OH2 3272   6.203   4.647   1.938  0.1374 -0.4495  0.0134
 1089TIP3    H1 3273   6.123   4.660   1.888  0.0481 -0.3351  0.1839
 1089TIP3    H2 3274   6.238   4.564   1.908 -0.3109 -0.7442  0.2948
 1090TIP3   OH2 3275   0.034   0.781   1.679  0.1368  0.5677  0.3881
 1090TIP3    H1 3276   0.050   0.874   1.692  0.4701  0.6009 -0.2323
 1090TIP3    H2 3277  -0.000   0.750   1.763 -1.2035  1.5066  0.2158
 1091TIP3   OH2 3278   1.751   2.468   3.833 -0.2144 -0.6652 -0.4140
 1091TIP3    H1 3279   1.751   2.458   3.928  0.7694  0.6290 -0.2415
 1091TIP3    H2 3280   1.771   2.561   3.819 -3.0788 -0.1567 -1.8458
 1092TIP3   OH2 3281   2.629   2.725   4.371  0.3861  0.2346 -0.4909
 1092TIP3    H1 3282   2.653   2.636   4.398  0.2811  0.1905 -0.5441
 1092TIP3    H2 3283   2.659   2.781   4.443  2.0726  0.3533 -1.2417
 1093TIP3   OH2 3284   0.343   1.218   4.651  0.3330  0.4530  0.5710
 1093TIP3    H1 3285   0.327   1.308   4.622 -1.1250  0.8938  2.5048
 1093TIP3    H2 3286   0.302   1.163   4.585  1.7755  1.1411 -0.9704
 1094TIP3   OH2 3287   3.157   1.968   4.239  0.2095 -0.1581 -0.2883
 1094TIP3    H1 3288   3.074   2.006   4.267  0.5359 -0.8556  1.8596
 1094TIP3    H2 3289   3.222   2.035   4.262  0.3927 -0.2687 -0.4833
 1095TIP3   OH2 3290   3.151   3.666   0.591 -0.0154 -0.8262 -0.3376
 1095TIP3    H1 3291   3.105   3.632   0.667 -0.9021 -2.4301 -1.5316
 1095TIP3    H2 3292   3.109   3.750   0.572 -1.1352 -1.3600 -0.2508
 1096TIP3   OH2 3293   4.814   2.104   0.618 -0.3085  0.6273  0.2226
 1096TIP3    H1 3294   4.833   2.102   0.524 -0.5613  1.2237  0.1512
 1096TIP3    H2 3295   4.727   2.143   0.624  0.1120  1.5098  0.7485
 1097TIP3   OH2 3296   6.264   1.401   4.428 -0.3189  0.5428 -0.4067
 1097TIP3    H1 3297   6.299   1.453   4.499 -0.6179  1.1335 -0.6870
 1097TIP3    H2 3298   6.266   1.311   4.461 -0.0810  0.7617  0.1886
 1098TIP3   OH2 3299   2.648   4.883   3.919 -0.3268 -0.3899  0.3047
 1098TIP3    H1 3300   2.724   4.865   3.864 -0.2816 -1.5899  0.7334
 1098TIP3    H2 3301   2.610   4.797   3.937 -0.9322  0.0627  1.2873
 1099TIP3   OH2 3302   2.692   5.473   3.848  0.2264 -0.6761 -0.3410
 1099TIP3    H1 3303   2.703   5.560   3.886  0.5029 -0.9692  0.2536
 1099TIP3    H2 3304   2.762   5.420   3.886 -0.1348 -1.2493 -0.4491
 1100TIP3   OH2 3305   1.727   5.233   3.655 -0.2467 -0.8610 -0.6838
 1100TIP3    H1 3306   1.702   5.233   3.748  0.0783 -1.8237 -0.5820
 1100TIP3    H2 3307   1.671   5.166   3.615 -0.8783  0.0322 -1.3376
 1101TIP3   OH2 3308   0.385   3.191   4.082  0.1147 -0.3697 -0.2285
 1101TIP3    H1 3309   0.348   3.277   4.101 -0.0325 -0.2539 -1.0122
 1101TIP3    H2 3310   0.310   3.138   4.056  0.3278 -0.4819 -0.6237
 1102TIP3   OH2 3311   0.283   1.027   2.556 -0.0283 -0.1536 -0.5827
 1102TIP3    H1 3312   0.270   0.983   2.472 -0.3676  0.7272 -0.9990
 1102TIP3    H2 3313   0.229   0.977   2.617  0.0137 -0.6386 -0.9385
 1103TIP3   OH2 3314   1.840   5.977   1.271  0.4829 -0.6265  0.6619
 1103TIP3    H1 3315   1.876   5.895   1.302  2.8348  0.4983  1.1455
 1103TIP3    H2 3316   1.901   6.044   1.303 -0.6280  1.1937 -0.7853
 1104TIP3   OH2 3317   0.608   1.465   4.061  0.0697 -0.3759  0.3276
 1104TIP3    H1 3318   0.608   1.481   3.967 -0.2827  1.4640  0.5861
 1104TIP3    H2 3319   0.675   1.524   4.095 -0.1814 -0.6148  1.2767
 1105TIP3   OH2 3320   2.525   3.972   2.872  0.2965 -0.2111 -0.1160
 1105TIP3    H1 3321   2.505   4.036   2.804  0.6028 -0.1251 -0.1230
 1105TIP3    H2 3322   2.597   3.920   2.836  0.6932  0.0572  0.2826
 1106TIP3   OH2 3323   5.632   4.132   1.042 -0.2612 -0.0806  0.2531
 1106TIP3    H1 3324   5.589   4.191   0.980 -0.1827  0.0830  0.3549
 1106TIP3    H2 3325   5.564   4.068   1.065 -0.3431 -0.0354  0.1350
 1107TIP3   OH2 3326   2.169   5.131   1.974 -0.2722  0.3933  0.1823
 1107TIP3    H1 3327   2.158   5.059   1.912 -1.1624  0.6982 -0.0342
 1107TIP3    H2 3328   2.081   5.168   1.983  0.0195  0.9230  0.9333
 1108TIP3   OH2 3329   0.801   2.673   0.244  0.5671  0.1729 -0.8428
 1108TIP3    H1 3330   0.767   2.587   0.270 -0.6851  0.4282 -1.5438
 1108TIP3    H2 3331   0.768   2.733   0.310 -0.7539  0.4872 -1.7579
 1109TIP3   OH2 3332   1.040   3.259   1.864 -0.6896  0.5558 -0.0321
 1109TIP3    H1 3333   1.110   3.290   1.806 -0.0204  0.8506  0.9240
 1109TIP3    H2 3334   1.077   3.264   1.952 -1.8270  0.4705  0.4680
 1110TIP3   OH2 3335   4.386   4.777   2.315 -0.5737  0.5890 -0.7509
 1110TIP3    H1 3336   4.393   4.691   2.274 -0.3337 -0.2609  1.0253
 1110TIP3    H2 3337   4.476   4.810   2.318 -0.7374  1.2609 -2.0676
 1111TIP3   OH2 3338   3.582   1.906   4.110 -0.5662 -0.1601 -0.2214
 1111TIP3    H1 3339   3.591   1.816   4.076 -0.9999 -0.8940  1.5150
 1111TIP3    H2 3340   3.512   1.944   4.056 -0.1121 -0.7236 -1.2408
 1112TIP3   OH2 3341   3.045   5.037   4.111  0.6006 -0.0133  0.1068
 1112TIP3    H1 3342   3.060   5.103   4.179  0.1599  1.4588 -1.1747
 1112TIP3    H2 3343   3.108   5.059   4.042 -1.9420  1.3753 -1.9098
 1113TIP3   OH2 3344   2.494   4.612   0.938  0.3670 -0.6277  0.3021
 1113TIP3    H1 3345   2.584   4.645   0.941 -0.5257  2.3219 -1.2669
 1113TIP3    H2 3346   2.440   4.687   0.964 -1.6586 -2.5303  1.9572
 1114TIP3   OH2 3347   4.116   1.603   2.249  0.2479  0.4287 -0.4861
 1114TIP3    H1 3348   4.171   1.588   2.326  0.9624 -1.6780 -1.3389
 1114TIP3    H2 3349   4.064   1.523   2.241  0.1092  0.6566 -2.1191
 1115TIP3   OH2 3350   1.445   2.659   4.270 -0.3112 -0.2684 -0.4136
 1115TIP3    H1 3351   1.360   2.694   4.295 -1.2424 -2.2136 -0.6661
 1115TIP3    H2 3352   1.433   2.625   4.181  0.6916 -0.6425 -0.4274
 1116TIP3   OH2 3353   0.028   5.029   0.916  0.4150  0.8353 -1.0100
 1116TIP3    H1 3354   0.113   5.013   0.874  0.9162  3.3544 -1.1314
 1116TIP3    H2 3355   0.049   5.041   1.008  0.2100  1.5560 -1.0556
 1117TIP3   OH2 3356   2.877   0.650   2.342 -0.0921  0.5201  0.3825
 1117TIP3    H1 3357   2.831   0.662   2.425  0.8236  1.0066  0.8357
 1117TIP3    H2 3358   2.809   0.661   2.276 -1.5063 -2.7631  1.0592
 1118TIP3   OH2 3359   5.218   1.607   0.177  0.8552  0.0255 -1.0166
 1118TIP3    H1 3360   5.221   1.517   0.210  0.5316  0.0605 -0.8989
 1118TIP3    H2 3361   5.153   1.605   0.107  1.2551  0.0399 -1.3940
 1119TIP3   OH2 3362   2.094   1.061   2.200 -0.5030  0.0352  0.0621
 1119TIP3    H1 3363   2.186   1.060   2.226 -0.6752  0.0454  0.6776
 1119TIP3    H2 3364   2.054   0.988   2.247 -0.6116 -0.6034 -0.9701
 1120TIP3   OH2 3365   0.813   3.020   0.222 -0.1449  0.5902  0.2148
 1120TIP3    H1 3366   0.799   2.926   0.210 -0.2751  0.6355  0.0071
 1120TIP3    H2 3367   0.892   3.039   0.172  0.1890  0.4921  0.6979
 1121TIP3   OH2 3368   4.566   1.090   2.473  0.2432 -0.6868  0.9129
 1121TIP3    H1 3369   4.543   0.997   2.477 -1.2878 -0.4856 -1.1214
 1121TIP3    H2 3370   4.510   1.131   2.539 -2.1280 -0.7964 -0.8783
 1122TIP3   OH2 3371   2.557   4.456   2.363 -0.1508  0.2908  0.1233
 1122TIP3    H1 3372   2.503   4.501   2.428  0.0706  0.2521  0.3353
 1122TIP3    H2 3373   2.500   4.448   2.286 -0.7349 -0.4875  0.6176
 1123TIP3   OH2 3374   0.353   3.079   1.115 -0.1685 -0.6969 -0.1227
 1123TIP3    H1 3375   0.361   2.989   1.148  0.6823 -0.9019 -0.8261
 1123TIP3    H2 3376   0.301   3.071   1.035 -1.7345 -0.2795  0.8044
 1124TIP3   OH2 3377   2.654   5.754   3.665  0.5397 -0.7359 -0.2685
 1124TIP3    H1 3378   2.592   5.705   3.719 -2.8281  1.1702 -2.0963
 1124TIP3    H2 3379   2.604   5.780   3.588  3.6353  1.0728 -1.8670
 1125TIP3   OH2 3380   3.467   3.185   0.256 -0.6876  0.2603 -0.2091
 1125TIP3    H1 3381   3.483   3.275   0.227 -0.3735  0.2395 -0.1022
 1125TIP3    H2 3382   3.414   3.196   0.335  1.0227  0.4459  0.9719
 1126TIP3   OH2 3383   3.017   2.052   1.861 -0.5188  0.1673  0.2998
 1126TIP3    H1 3384   3.004   1.993   1.935  0.0969 -0.0360  0.2589
 1126TIP3    H2 3385   3.024   2.139   1.901  1.3114 -0.0939  0.6767
 1127TIP3   OH2 3386   1.939   1.809   0.810 -0.1195 -0.0188  0.8236
 1127TIP3    H1 3387   1.892   1.885   0.845 -0.9196 -0.5093  0.8274
 1127TIP3    H2 3388   1.885   1.734   0.832  0.6200 -0.5918  0.7332
 1128TIP3   OH2 3389   0.089   2.661   2.224 -0.3797  0.4374  0.1629
 1128TIP3    H1 3390   0.113   2.738   2.276 -0.2300  1.3622 -1.2086
 1128TIP3    H2 3391   0.173   2.617   2.207 -0.0529  1.6232 -1.5119
 1129TIP3   OH2 3392   3.046   0.851   3.965 -0.0041 -0.3724  0.4471
 1129TIP3    H1 3393   3.025   0.825   3.875 -1.8306 -2.3438  1.3599
 1129TIP3    H2 3394   3.040   0.946   3.964 -1.2253 -0.4245 -1.2542
 1130TIP3   OH2 3395   2.249   1.522   0.098 -0.5254  0.5162  0.0643
 1130TIP3    H1 3396   2.175   1.583   0.098 -0.4054  0.6678 -0.3709
 1130TIP3    H2 3397   2.217   1.446   0.050  0.0779  1.1969 -1.4938
 1131TIP3   OH2 3398   6.096   3.574   0.853 -0.3361  0.2512  0.6148
 1131TIP3    H1 3399   6.019   3.563   0.908  0.1704 -0.2094  1.2561
 1131TIP3    H2 3400   6.167   3.533   0.903  0.4885  1.3618  0.4072
 1132TIP3   OH2 3401   4.487   1.674   3.011  0.2313 -0.2239  0.1351
 1132TIP3    H1 3402   4.574   1.703   2.983 -0.1972  0.8433 -0.1570
 1132TIP3    H2 3403   4.473   1.719   3.095 -0.8233  1.2529 -0.7735
 1133TIP3   OH2 3404   6.004   5.824   4.392 -0.0446  0.3303  0.3805
 1133TIP3    H1 3405   6.011   5.919   4.397 -2.3482  0.5792 -0.0196
 1133TIP3    H2 3406   6.095   5.793   4.387  0.7651  2.4537  0.9950
 1134TIP3   OH2 3407  -0.015   3.138   0.781 -0.3552 -0.0170 -0.2895
 1134TIP3    H1 3408  -0.055   3.173   0.702  0.4574  1.0186 -0.2563
 1134TIP3    H2 3409   0.074   3.172   0.781  0.1744 -1.3208  0.2428
 1135TIP3   OH2 3410   0.964   2.139   3.800 -0.0886 -0.4646 -0.9231
 1135TIP3    H1 3411   1.047   2.157   3.844  0.1629  1.4084 -2.0613
 1135TIP3    H2 3412   0.951   2.045   3.812 -0.0502 -0.1296  3.0527
 1136TIP3   OH2 3413   6.264   3.440   1.030 -0.2957 -0.5826 -0.7009
 1136TIP3    H1 3414   6.347   3.403   1.060 -0.5968  0.4587  1.6840
 1136TIP3    H2 3415   6.201   3.413   1.097 -1.2020  1.2545 -0.7494
 1137TIP3   OH2 3416   4.119   4.299   2.006  0.1064  0.7842  0.3500
 1137TIP3    H1 3417   4.059   4.330   2.074 -0.4338  2.1664 -0.7104
 1137TIP3    H2 3418   4.090   4.344   1.927 -1.2347 -3.0531 -1.5642
 1138TIP3   OH2 3419   3.913   0.498   2.866  0.3783  0.2909  0.5723
 1138TIP3    H1 3420   3.886   0.484   2.775 -0.1853  0.7906  0.6559
 1138TIP3    H2 3421   3.972   0.425   2.885  2.4683  1.4323 -0.9729
 1139TIP3   OH2 3422   6.130   5.294   3.140 -0.0514 -0.3840 -0.5979
 1139TIP3    H1 3423   6.109   5.335   3.224  0.0274  1.3810 -1.3881
 1139TIP3    H2 3424   6.191   5.224   3.163  1.2238  1.0629  0.6971
 1140TIP3   OH2 3425   2.018   3.296   2.209 -0.2821 -0.1794  0.0666
 1140TIP3    H1 3426   1.995   3.266   2.296  0.9808 -0.1739  0.4175
 1140TIP3    H2 3427   1.934   3.320   2.169 -0.9374 -0.8024  1.0316
 1141TIP3   OH2 3428   5.935   4.018   0.565 -0.3777  0.3198  0.1861
 1141TIP3    H1 3429   5.864   4.028   0.628 -0.6086 -0.1147 -0.0092
 1141TIP3    H2 3430   6.005   3.975   0.614 -0.0972  1.1025  0.4888
 1142TIP3   OH2 3431   1.685   0.350   2.967  0.3111 -0.0376  0.3078
 1142TIP3    H1 3432   1.666   0.292   3.041  0.5431  0.7943  1.0399
 1142TIP3    H2 3433   1.707   0.434   3.008 -3.7155  1.7463 -0.7823
 1143TIP3   OH2 3434   3.615   2.277   1.815 -0.0078  0.1110 -0.0988
 1143TIP3    H1 3435   3.541   2.221   1.793 -0.3971  0.5908 -0.0417
 1143TIP3    H2 3436   3.597   2.308   1.904 -0.4489  1.3198 -0.5838
 1144TIP3   OH2 3437   4.962   3.403   4.453  0.5585 -0.8964 -0.0465
 1144TIP3    H1 3438   4.940   3.321   4.409  2.6365 -1.4233 -0.2114
 1144TIP3    H2 3439   4.999   3.375   4.537 -0.7009 -0.0101  0.8316
 1145TIP3   OH2 3440   2.483   0.121   1.586 -0.2989 -0.2119  0.0321
 1145TIP3    H1 3441   2.404   0.077   1.619 -1.3283  0.4552 -1.4439
 1145TIP3    H2 3442   2.539   0.130   1.663 -1.9027 -0.1841  1.2472
 1146TIP3   OH2 3443   0.409   2.564   3.793  0.0183  0.0045  0.0416
 1146TIP3    H1 3444   0.370   2.588   3.876  0.1513 -0.3209  0.2003
 1146TIP3    H2 3445   0.373   2.626   3.730 -1.4668 -0.8300  0.0112
 1147TIP3   OH2 3446   1.811   4.935   2.433  0.3603 -0.0716  0.8064
 1147TIP3    H1 3447   1.842   4.883   2.358  1.5634  0.3560  0.9740
 1147TIP3    H2 3448   1.743   4.991   2.397  0.6470 -0.1575  0.1063
 1148TIP3   OH2 3449   2.247   1.554   0.834  0.6569  0.1364  0.3004
 1148TIP3    H1 3450   2.281   1.542   0.923 -0.3325  2.7192  1.1396
 1148TIP3    H2 3451   2.229   1.648   0.828 -1.3588 -0.2932 -1.8769
 1149TIP3   OH2 3452   2.541   1.044   2.476 -0.7430  0.7593  0.2210
 1149TIP3    H1 3453   2.576   0.969   2.525 -0.5989  0.7977  0.1757
 1149TIP3    H2 3454   2.519   1.108   2.544  2.9260  2.3537  0.1092
 1150TIP3   OH2 3455   3.460   5.396   0.412 -0.1391  0.1028  0.0634
 1150TIP3    H1 3456   3.473   5.486   0.380 -0.2716  0.2004  0.2888
 1150TIP3    H2 3457   3.367   5.392   0.435 -0.3685 -0.3940 -0.8975
 1151TIP3   OH2 3458   3.558   0.764   0.770 -0.1834 -0.2912  0.0951
 1151TIP3    H1 3459   3.569   0.674   0.737  0.1060 -0.4110  0.5133
 1151TIP3    H2 3460   3.554   0.754   0.865  1.7333  0.3233  0.2695
 1152TIP3   OH2 3461   4.800   3.788   5.109  0.3020 -0.4013  0.1138
 1152TIP3    H1 3462   4.891   3.817   5.108 -0.1489  1.1541 -0.0522
 1152TIP3    H2 3463   4.751   3.867   5.133 -1.0473 -1.0632 -0.3832
 1153TIP3   OH2 3464   1.096   2.588   1.252 -0.4075 -0.7894 -0.0359
 1153TIP3    H1 3465   1.158   2.657   1.232 -0.4138 -1.3066 -2.0771
 1153TIP3    H2 3466   1.010   2.627   1.236 -0.4473 -1.0045 -0.3680
 1154TIP3   OH2 3467   5.890   4.901   1.093 -0.2090  0.1037  0.6191
 1154TIP3    H1 3468   5.968   4.848   1.080 -0.0838  0.3741  0.2611
 1154TIP3    H2 3469   5.921   4.991   1.090 -0.2688  0.2097  2.1286
 1155TIP3   OH2 3470   4.490   4.612   1.319 -0.5175  0.2109 -0.0548
 1155TIP3    H1 3471   4.482   4.597   1.225 -0.5650  0.3434 -0.0716
 1155TIP3    H2 3472   4.557   4.679   1.328 -0.5700  0.2558  0.0014
 1156TIP3   OH2 3473   1.276   0.286   0.581 -0.2842  0.1881 -0.6226
 1156TIP3    H1 3474   1.301   0.280   0.674 -1.5289  0.2512 -0.2626
 1156TIP3    H2 3475   1.327   0.217   0.539 -1.2697 -1.3354  0.5055
 1157TIP3   OH2 3476   1.125   0.170   1.248 -0.1197 -1.0007 -0.2857
 1157TIP3    H1 3477   1.133   0.150   1.342 -0.7689  1.0327  0.2432
 1157TIP3    H2 3478   1.046   0.224   1.241  0.9598  0.5041 -1.7040
 1158TIP3   OH2 3479   0.013   2.401   2.845 -0.6102 -0.0629  0.3237
 1158TIP3    H1 3480   0.026   2.434   2.756  0.1439 -0.3281  0.3288
 1158TIP3    H2 3481   0.069   2.323   2.850  0.0666  0.4676  1.3175
 1159TIP3   OH2 3482   4.233   2.833   4.829  0.2348 -0.2075 -0.4977
 1159TIP3    H1 3483   4.318   2.792   4.818  0.6895  0.6479 -0.2686
 1159TIP3    H2 3484   4.209   2.814   4.920 -0.2877 -1.3000 -0.8550
 1160TIP3   OH2 3485   0.335   0.250   3.321  0.5949  0.5599  0.0810
 1160TIP3    H1 3486   0.345   0.160   3.352 -0.5582  0.2142 -0.4771
 1160TIP3    H2 3487   0.403   0.299   3.366  2.7952 -1.0043 -1.3613
 1161TIP3   OH2 3488   4.203   0.202   0.829  0.6557  0.2543 -0.0250
 1161TIP3    H1 3489   4.144   0.203   0.905 -0.6937 -0.3923 -1.0131
 1161TIP3    H2 3490   4.263   0.130   0.846 -1.2501 -1.5955 -0.6677
 1162TIP3   OH2 3491   4.933   1.273   0.886 -0.6453  0.1275  0.4918
 1162TIP3    H1 3492   4.974   1.350   0.847 -0.2023 -0.3376  0.0280
 1162TIP3    H2 3493   5.005   1.225   0.928 -0.3367 -1.6024 -1.8240
 1163TIP3   OH2 3494   1.905   3.442   2.607  0.3120 -0.1119 -0.5708
 1163TIP3    H1 3495   1.854   3.490   2.542  0.5482  1.4652  0.3641
 1163TIP3    H2 3496   1.952   3.510   2.656  1.5413 -1.3718  0.0772
 1164TIP3   OH2 3497   5.410   1.570   4.075 -0.5417 -0.4417 -0.2998
 1164TIP3    H1 3498   5.500   1.553   4.104 -0.1274  1.9763  0.0555
 1164TIP3    H2 3499   5.418   1.583   3.980 -0.0719  1.9786  0.0195
 1165TIP3   OH2 3500   3.810   0.774   4.350 -0.0194  0.1151 -0.5533
 1165TIP3    H1 3501   3.726   0.813   4.325 -0.1663  0.2298  0.0853
 1165TIP3    H2 3502   3.876   0.831   4.311 -0.2404  0.0311 -1.0490
 1166TIP3   OH2 3503   4.104   5.779   4.353 -0.0349  0.3735  0.4673
 1166TIP3    H1 3504   4.074   5.833   4.425 -1.5617  0.1248  0.0572
 1166TIP3    H2 3505   4.086   5.831   4.274  1.7288  0.6978  0.2368
 1167TIP3   OH2 3506   2.483   0.461   0.438 -0.0409 -0.4248  0.0317
 1167TIP3    H1 3507   2.566   0.507   0.449 -0.2207 -0.4457  1.7045
 1167TIP3    H2 3508   2.508   0.372   0.412  0.3894 -0.0886 -0.7451
 1168TIP3   OH2 3509   3.078   1.503   3.944  0.2957  0.1053  0.4734
 1168TIP3    H1 3510   3.095   1.489   4.037 -0.0010  1.2408  0.7246
 1168TIP3    H2 3511   2.985   1.528   3.941  0.6999  1.7000  0.0982
 1169TIP3   OH2 3512   2.897   4.487   3.901  0.0821  0.0423  0.0220
 1169TIP3    H1 3513   2.953   4.415   3.929 -0.6672 -0.8792 -0.7937
 1169TIP3    H2 3514   2.914   4.557   3.964 -0.0637 -1.2620  1.5579
 1170TIP3   OH2 3515   5.413   2.758   3.022  0.2001 -0.1618  0.0702
 1170TIP3    H1 3516   5.489   2.711   3.057  1.0357  1.6827  0.8567
 1170TIP3    H2 3517   5.349   2.756   3.093  0.7564  1.0194  0.6236
 1171TIP3   OH2 3518   5.434   3.540   4.047 -0.3394  0.0940  0.5237
 1171TIP3    H1 3519   5.483   3.483   4.107 -0.3554 -0.8476 -0.3400
 1171TIP3    H2 3520   5.357   3.568   4.097  0.3499  0.4552  1.4112
 1172TIP3   OH2 3521   3.599   5.302   2.930  0.2034  0.4891 -0.4701
 1172TIP3    H1 3522   3.597   5.228   2.991 -1.5489  0.7576 -0.1495
 1172TIP3    H2 3523   3.573   5.266   2.846  2.6911  0.1044 -1.1788
 1173TIP3   OH2 3524   5.064   1.479   1.591 -0.1692 -0.4352 -0.0452
 1173TIP3    H1 3525   5.121   1.556   1.590  0.6051 -1.0080 -0.3950
 1173TIP3    H2 3526   5.096   1.426   1.664 -0.8824 -0.3040  0.3747
 1174TIP3   OH2 3527   1.537   3.338   1.758  0.3645 -0.7319 -0.3460
 1174TIP3    H1 3528   1.547   3.243   1.770  2.3588 -0.5536 -0.3121
 1174TIP3    H2 3529   1.472   3.346   1.688 -0.2805 -2.1007  0.0525
 1175TIP3   OH2 3530   0.914   2.722   2.487 -0.0915 -0.3597 -0.0426
 1175TIP3    H1 3531   0.876   2.747   2.571  0.9578 -0.0052  0.3457
 1175TIP3    H2 3532   0.981   2.657   2.509  1.2891  0.8909 -0.4111
 1176TIP3   OH2 3533   2.321   4.406   1.110 -0.1894  0.4142  0.0102
 1176TIP3    H1 3534   2.344   4.490   1.149 -2.0544 -0.2579  2.7993
 1176TIP3    H2 3535   2.387   4.345   1.144  0.7498  0.5619 -1.4591
 1177TIP3   OH2 3536   4.019   4.952   3.530  0.8376  0.2562 -0.3027
 1177TIP3    H1 3537   4.003   5.018   3.462  1.9076  0.2561 -0.5785
 1177TIP3    H2 3538   4.089   4.990   3.583 -0.1623  0.3656  0.9726
 1178TIP3   OH2 3539   4.993   4.628   2.516 -0.1414 -0.2351  0.2609
 1178TIP3    H1 3540   4.951   4.672   2.590  2.1779  1.7661  0.5163
 1178TIP3    H2 3541   4.988   4.535   2.537 -2.0873  0.0688  1.4621
 1179TIP3   OH2 3542   4.288   0.964   0.737  0.8101 -0.3977  0.4706
 1179TIP3    H1 3543   4.301   1.058   0.747  0.0776 -0.3341  0.8670
 1179TIP3    H2 3544   4.330   0.925   0.813 -2.3977 -0.0962  2.5577
 1180TIP3   OH2 3545   2.323   4.508   0.031 -0.0334  0.0597 -0.7940
 1180TIP3    H1 3546   2.345   4.454   0.107  0.1702  1.0423 -0.1302
 1180TIP3    H2 3547   2.336   4.451  -0.044 -0.8515 -1.1416 -0.0669
 1181TIP3   OH2 3548   4.079   4.501   1.259  0.1374 -0.0778  0.3121
 1181TIP3    H1 3549   4.170   4.473   1.248  0.0828  0.2318 -1.2096
 1181TIP3    H2 3550   4.027   4.427   1.229 -0.0340  0.7931 -1.6914
 1182TIP3   OH2 3551   4.501   2.683   3.771  0.0513  0.3407  0.0056
 1182TIP3    H1 3552   4.530   2.615   3.833  1.0761 -0.5778 -1.4142
 1182TIP3    H2 3553   4.578   2.700   3.717 -0.7697  1.2306 -0.9224
 1183TIP3   OH2 3554   0.681   3.246   4.910 -0.0798 -0.6414 -0.1848
 1183TIP3    H1 3555   0.671   3.284   4.823 -1.2962  1.2111  0.6865
 1183TIP3    H2 3556   0.775   3.232   4.920  0.5082  2.3335 -0.5762
 1184TIP3   OH2 3557   4.148   5.949   0.240 -0.3759  0.5199 -0.1312
 1184TIP3    H1 3558   4.118   5.963   0.150  1.0272  1.6096 -0.4541
 1184TIP3    H2 3559   4.067   5.947   0.291 -1.1683  0.4506 -1.3321
 1185TIP3   OH2 3560   0.843   2.465   1.743  0.3061 -0.3327  0.0965
 1185TIP3    H1 3561   0.912   2.492   1.682  0.2012 -1.2332 -0.4375
 1185TIP3    H2 3562   0.785   2.541   1.749 -0.1285 -0.4965 -1.5728
 1186TIP3   OH2 3563   2.038   4.450   4.508  0.9258  0.0245  0.0821
 1186TIP3    H1 3564   2.031   4.356   4.522 -0.0106  0.2046  0.9403
 1186TIP3    H2 3565   2.112   4.477   4.563  0.2385 -0.0004  1.0600
 1187TIP3   OH2 3566   3.710   2.382   1.593 -0.1975 -0.2990 -0.7636
 1187TIP3    H1 3567   3.672   2.342   1.672  0.1310  1.2496  0.2320
 1187TIP3    H2 3568   3.728   2.308   1.535 -0.3743 -1.5004  0.6479
 1188TIP3   OH2 3569   3.427   4.104   3.569 -0.2065  0.1127  0.7976
 1188TIP3    H1 3570   3.401   4.184   3.615  1.0654  0.9399  0.1562
 1188TIP3    H2 3571   3.467   4.049   3.636 -0.7210  0.1905  1.1682
 1189TIP3   OH2 3572   0.959   3.710   1.554 -0.6103 -0.0938 -0.1097
 1189TIP3    H1 3573   0.898   3.643   1.521 -0.2908 -0.3940 -0.0989
 1189TIP3    H2 3574   0.975   3.683   1.645  0.2284 -0.5202 -0.3778
 1190TIP3   OH2 3575   5.692   1.263   0.612  1.1105  0.5253  0.6096
 1190TIP3    H1 3576   5.642   1.317   0.551  0.8349  1.0878  1.3290
 1190TIP3    H2 3577   5.666   1.173   0.590  1.9900  0.6305 -0.9546
 1191TIP3   OH2 3578   2.691   1.622   3.747 -0.5277 -0.1878 -0.0122
 1191TIP3    H1 3579   2.729   1.589   3.828  0.0749  0.6284  0.0479
 1191TIP3    H2 3580   2.597   1.630   3.766 -0.4511 -0.3852  0.4657
 1192TIP3   OH2 3581   4.986   2.299   3.453  0.1409 -0.0839  0.4792
 1192TIP3    H1 3582   4.963   2.364   3.519  2.0031  0.6520  0.4709
 1192TIP3    H2 3583   5.009   2.221   3.503 -0.5508 -0.2327  0.5723
 1193TIP3   OH2 3584   5.666   4.049   1.456  0.0212 -0.1986 -0.3719
 1193TIP3    H1 3585   5.625   4.127   1.419  1.1575  1.2460  1.2763
 1193TIP3    H2 3586   5.753   4.048   1.415 -0.0762 -0.7573 -0.5686
 1194TIP3   OH2 3587   0.933   0.522   2.293 -0.0922 -0.2524  0.6336
 1194TIP3    H1 3588   0.856   0.466   2.301 -1.4685  1.6580  1.6478
 1194TIP3    H2 3589   0.989   0.477   2.230 -2.5831 -1.0980 -1.1167
 1195TIP3   OH2 3590   6.302   0.093   1.376 -0.3437  1.2412 -0.0232
 1195TIP3    H1 3591   6.394   0.100   1.403  0.1860 -0.4100 -1.2425
 1195TIP3    H2 3592   6.295   0.152   1.301 -0.5143  2.0047  0.5817
 1196TIP3   OH2 3593   5.137   3.666   1.806  0.0521  1.1558 -0.2535
 1196TIP3    H1 3594   5.138   3.704   1.718  0.3277  0.3326 -0.6267
 1196TIP3    H2 3595   5.046   3.670   1.834 -0.5428 -0.8442 -1.6396
 1197TIP3   OH2 3596   4.783   5.567   3.149 -0.0191 -0.1270 -0.3593
 1197TIP3    H1 3597   4.712   5.629   3.165  0.2335  0.2470 -0.6576
 1197TIP3    H2 3598   4.841   5.578   3.225  1.3752  1.9240 -1.5832
 1198TIP3   OH2 3599   2.077   4.342   1.247 -0.0296  0.0562  0.0348
 1198TIP3    H1 3600   2.158   4.363   1.201 -0.2408  0.4620 -0.1577
 1198TIP3    H2 3601   2.008   4.381   1.194 -0.3618 -0.3547  0.1538
 1199TIP3   OH2 3602   0.367   3.043   2.596  0.1213  0.0147 -0.8989
 1199TIP3    H1 3603   0.403   2.954   2.596 -2.1099 -1.0891  2.2707
 1199TIP3    H2 3604   0.275   3.031   2.570  0.3896  1.8358 -2.9110
 1200TIP3   OH2 3605   1.858   2.885   4.055 -0.0723 -0.1510  0.3190
 1200TIP3    H1 3606   1.873   2.980   4.057 -0.2269 -0.1265  0.3187
 1200TIP3    H2 3607   1.793   2.873   3.986  1.2579 -0.4360 -0.9530
 1201TIP3   OH2 3608   2.067   2.188   0.288 -0.0244  0.1179 -0.1953
 1201TIP3    H1 3609   2.100   2.243   0.359  1.2606 -1.4064  0.4596
 1201TIP3    H2 3610   2.143   2.177   0.230 -0.9498  1.0361 -1.6489
 1202TIP3   OH2 3611   4.490   4.696   3.257 -0.3564 -0.3190 -0.0798
 1202TIP3    H1 3612   4.423   4.723   3.194 -0.8984 -0.1679  0.5466
 1202TIP3    H2 3613   4.567   4.677   3.204 -1.0978 -1.1631 -0.8734
 1203TIP3   OH2 3614   1.626   1.364   1.355 -0.1289 -0.8066  0.3406
 1203TIP3    H1 3615   1.687   1.438   1.352 -0.9652 -0.1198 -0.1946
 1203TIP3    H2 3616   1.554   1.390   1.297  0.2951 -2.7093 -1.1417
 1204TIP3   OH2 3617   5.561   5.059   3.482  0.4373 -0.4988 -0.1563
 1204TIP3    H1 3618   5.649   5.098   3.478  0.5513 -0.5355  1.3685
 1204TIP3    H2 3619   5.504   5.132   3.508  0.5160 -1.0845  1.8351
 1205TIP3   OH2 3620   5.208   1.473   2.977 -0.1355  0.6184 -0.2304
 1205TIP3    H1 3621   5.225   1.536   3.048 -3.5060  0.0121  1.3273
 1205TIP3    H2 3622   5.139   1.514   2.925 -0.8081 -0.8312 -0.5215
 1206TIP3   OH2 3623   4.215   4.318   0.289  0.2195 -0.3146 -0.5822
 1206TIP3    H1 3624   4.233   4.388   0.352  0.1461 -1.8513  1.2256
 1206TIP3    H2 3625   4.191   4.364   0.209  1.5841  1.7246  0.1018
 1207TIP3   OH2 3626   3.532   3.849   1.044  0.4307  0.2246  0.2817
 1207TIP3    H1 3627   3.533   3.911   1.117  0.0974  0.0534  0.4298
 1207TIP3    H2 3628   3.450   3.866   0.999 -0.3762 -1.0941  1.1699
 1208TIP3   OH2 3629   5.020   4.644   3.376  0.0768  0.0480  0.1357
 1208TIP3    H1 3630   5.040   4.636   3.282 -1.0589 -0.9789 -0.0352
 1208TIP3    H2 3631   5.092   4.598   3.419 -1.0312 -2.3512 -0.4104
 1209TIP3   OH2 3632   2.825   1.833   1.545 -0.3738  0.1384  0.3666
 1209TIP3    H1 3633   2.774   1.909   1.576  0.8387  0.8261  0.7329
 1209TIP3    H2 3634   2.905   1.834   1.597 -0.6494 -1.8620  0.9029
 1210TIP3   OH2 3635   5.328   5.553   1.489 -0.6505  0.0526  0.1763
 1210TIP3    H1 3636   5.303   5.480   1.547  0.8414  1.0944  2.2631
 1210TIP3    H2 3637   5.397   5.516   1.434  0.4625 -0.0525  1.5665
 1211TIP3   OH2 3638   5.811   0.543   4.969 -0.2994 -0.3151 -0.2510
 1211TIP3    H1 3639   5.786   0.542   5.062 -0.3194 -1.8873 -0.2375
 1211TIP3    H2 3640   5.894   0.494   4.967 -0.9512 -1.4343 -1.1915
 1212TIP3   OH2 3641   3.054   0.501   3.918 -0.1858 -0.3828  0.8157
 1212TIP3    H1 3642   3.080   0.421   3.872 -0.2095  0.2337 -0.2824
 1212TIP3    H2 3643   3.129   0.521   3.974 -0.3740 -1.4347  1.4846
 1213TIP3   OH2 3644   2.505   0.860   1.080 -0.3046 -0.3566 -0.3630
 1213TIP3    H1 3645   2.548   0.915   1.015 -0.2889  1.0710  0.7891
 1213TIP3    H2 3646   2.544   0.774   1.069  0.1605  0.0105 -1.7847
 1214TIP3   OH2 3647   0.429   5.806   5.116 -0.4012 -0.0181 -0.3182
 1214TIP3    H1 3648   0.384   5.868   5.174 -0.5059 -1.2153  0.9307
 1214TIP3    H2 3649   0.431   5.724   5.165 -0.9503 -1.2384 -2.2324
 1215TIP3   OH2 3650   4.469   3.270   3.031  0.2804  0.3018 -0.0516
 1215TIP3    H1 3651   4.550   3.229   3.000  0.8091  1.5718 -0.4250
 1215TIP3    H2 3652   4.403   3.244   2.967 -0.1911 -2.6181  1.4500
 1216TIP3   OH2 3653   5.181   0.359   4.320 -0.1186 -0.0726  0.1040
 1216TIP3    H1 3654   5.092   0.343   4.286 -0.6092  0.1437  1.2337
 1216TIP3    H2 3655   5.175   0.443   4.365  0.2310 -0.7926  1.5639
 1217TIP3   OH2 3656   2.585   0.987   3.282 -0.1668 -0.5129  0.5814
 1217TIP3    H1 3657   2.523   1.036   3.337  0.6095 -0.0858  1.1001
 1217TIP3    H2 3658   2.553   0.897   3.284 -1.3277 -0.1373  0.0363
 1218TIP3   OH2 3659   2.789   5.264   4.657 -0.2376 -0.6449  0.1176
 1218TIP3    H1 3660   2.795   5.248   4.563 -0.9817  0.2495 -0.0970
 1218TIP3    H2 3661   2.829   5.187   4.697  0.9418 -0.6110 -0.9458
 1219TIP3   OH2 3662   4.650   4.895   4.765 -0.5299 -0.4254 -0.7570
 1219TIP3    H1 3663   4.655   4.990   4.763 -1.0140 -0.3911 -0.3125
 1219TIP3    H2 3664   4.625   4.873   4.855  0.8684 -1.0373 -0.4720
 1220TIP3   OH2 3665   0.948   2.312   3.257  1.0133 -0.5737  0.8089
 1220TIP3    H1 3666   0.858   2.341   3.247  1.0997 -0.0109  1.5316
 1220TIP3    H2 3667   0.975   2.284   3.169  1.4056  2.9880 -0.3607
 1221TIP3   OH2 3668   0.886   2.735   4.686 -0.7935 -0.0658 -0.0698
 1221TIP3    H1 3669   0.865   2.642   4.680  2.6853 -1.0367  0.8115
 1221TIP3    H2 3670   0.904   2.762   4.596 -1.7859 -0.2191 -0.3240
 1222TIP3   OH2 3671   3.558   3.089   1.107 -0.0940  0.6057  0.7668
 1222TIP3    H1 3672   3.592   3.034   1.177  0.2590 -0.8024 -0.4731
 1222TIP3    H2 3673   3.630   3.148   1.086  0.1146  0.4231  0.9652
 1223TIP3   OH2 3674   4.757   5.132   2.096  0.2608  0.2055 -0.5942
 1223TIP3    H1 3675   4.829   5.086   2.053  0.9338  1.6918 -1.1226
 1223TIP3    H2 3676   4.790   5.151   2.184  0.4363  0.6905 -0.7625
 1224TIP3   OH2 3677   5.435   3.175   3.019  0.5236  0.4316  0.5460
 1224TIP3    H1 3678   5.359   3.127   3.053 -1.0715  1.9663 -0.6718
 1224TIP3    H2 3679   5.409   3.201   2.931  2.4729  1.0711  0.1192
 1225TIP3   OH2 3680   1.010   4.026   3.779 -0.8459  0.1187  0.2473
 1225TIP3    H1 3681   1.057   4.075   3.712 -2.1900  1.7691  0.4320
 1225TIP3    H2 3682   1.036   3.935   3.766  2.8771  0.9424  0.7612
 1226TIP3   OH2 3683   2.193   3.689   3.922 -0.3678 -0.5726 -0.3524
 1226TIP3    H1 3684   2.139   3.720   3.995 -1.0612  0.5468 -1.2984
 1226TIP3    H2 3685   2.271   3.653   3.963 -1.2913 -1.0991  0.9949
 1227TIP3   OH2 3686   0.479   1.797   3.739  0.3635  0.0889  0.4123
 1227TIP3    H1 3687   0.524   1.774   3.820  0.2456  1.2819  0.8379
 1227TIP3    H2 3688   0.430   1.877   3.761 -0.8766 -0.4145 -0.4084
 1228TIP3   OH2 3689   3.463   5.846   3.921 -0.6685 -0.1951 -0.0539
 1228TIP3    H1 3690   3.423   5.786   3.984  0.0205  2.0263  2.7115
 1228TIP3    H2 3691   3.435   5.813   3.835 -2.7625 -2.6384  1.4221
 1229TIP3   OH2 3692   3.285   4.242   4.435  0.1100  0.3054  0.2992
 1229TIP3    H1 3693   3.217   4.309   4.446  0.3856  0.4850  0.9021
 1229TIP3    H2 3694   3.275   4.184   4.511  2.6687  2.1384  2.1804
 1230TIP3   OH2 3695   6.303   3.172   0.260 -0.6067 -0.4400  0.0824
 1230TIP3    H1 3696   6.372   3.236   0.244 -0.6562 -0.7978 -1.8580
 1230TIP3    H2 3697   6.303   3.159   0.355 -1.1760  3.0195  0.6857
 1231TIP3   OH2 3698   0.362   2.168   1.454  0.4389 -0.0747  0.3371
 1231TIP3    H1 3699   0.379   2.214   1.536 -1.2015 -0.9552  1.2176
 1231TIP3    H2 3700   0.338   2.079   1.480 -1.1980 -0.0735 -0.9959
 1232TIP3   OH2 3701   5.564   5.028   4.522  0.1846 -0.4259 -0.4230
 1232TIP3    H1 3702   5.637   4.965   4.518 -0.5563 -1.5588  1.9958
 1232TIP3    H2 3703   5.524   5.013   4.608 -1.9929  1.2022 -1.0624
 1233TIP3   OH2 3704   3.636   1.705   2.925  0.0577  0.9195  0.1460
 1233TIP3    H1 3705   3.636   1.712   3.021  0.5581 -0.1254  0.2316
 1233TIP3    H2 3706   3.716   1.752   2.899  0.3030  0.5920  0.2969
 1234TIP3   OH2 3707   3.977   2.545   2.080  0.1887 -0.6928  0.0680
 1234TIP3    H1 3708   3.917   2.476   2.107 -2.6405  1.8519  0.8650
 1234TIP3    H2 3709   4.065   2.508   2.096 -1.1563 -3.1804  2.7929
 1235TIP3   OH2 3710   4.802   3.333   5.048 -0.1168 -0.8341  0.4096
 1235TIP3    H1 3711   4.814   3.405   4.986  1.0565 -1.3021  0.0568
 1235TIP3    H2 3712   4.888   3.291   5.052 -0.8744 -2.4772  0.2741
 1236TIP3   OH2 3713   2.896   0.927   0.855  0.3963 -0.0754  0.6075
 1236TIP3    H1 3714   2.978   0.887   0.825  1.4596  1.9516  0.6257
 1236TIP3    H2 3715   2.892   0.906   0.948  2.5710  2.2551  1.3709
 1237TIP3   OH2 3716   5.236   3.796   0.299 -0.1466 -0.5053 -0.2703
 1237TIP3    H1 3717   5.236   3.701   0.311 -1.9534 -0.6473 -1.0040
 1237TIP3    H2 3718   5.143   3.819   0.297  0.1881  0.9489 -2.4489
 1238TIP3   OH2 3719   1.491   0.991   3.613  0.0437  0.1770 -0.0862
 1238TIP3    H1 3720   1.423   0.941   3.658  1.0220  2.0986  4.0151
 1238TIP3    H2 3721   1.573   0.949   3.638  0.5725  0.3128 -1.5387
 1239TIP3   OH2 3722   2.809   1.254   4.284  0.2477  0.2024 -0.3466
 1239TIP3    H1 3723   2.824   1.224   4.374 -1.2251 -4.3815 -1.3405
 1239TIP3    H2 3724   2.714   1.262   4.278  0.3222  0.2635 -1.5150
 1240TIP3   OH2 3725   0.414   3.191   3.096  0.0675 -0.2332  0.8103
 1240TIP3    H1 3726   0.461   3.108   3.083 -1.5108 -1.1728  0.8048
 1240TIP3    H2 3727   0.328   3.176   3.056  0.2454  1.9553 -0.5659
 1241TIP3   OH2 3728   3.222   1.406   4.990  0.3837 -0.4032  0.4460
 1241TIP3    H1 3729   3.312   1.436   4.979  0.2227 -0.1649 -0.2210
 1241TIP3    H2 3730   3.231   1.319   5.029  0.8527  0.3437  2.1047
 1242TIP3   OH2 3731   4.248   1.366   1.019 -0.3462 -0.1623 -0.4780
 1242TIP3    H1 3732   4.294   1.444   0.988 -2.2121  0.9071 -0.7057
 1242TIP3    H2 3733   4.215   1.324   0.939  1.2807 -1.6560 -0.4213
 1243TIP3   OH2 3734   1.202   4.811   1.320  0.3400  0.0524 -0.7180
 1243TIP3    H1 3735   1.215   4.905   1.308  1.1677 -0.0861 -0.9117
 1243TIP3    H2 3736   1.178   4.779   1.233 -0.8878  0.2202 -0.4692
 1244TIP3   OH2 3737   4.545   2.398   1.985  0.3179 -0.3838 -0.1260
 1244TIP3    H1 3738   4.512   2.315   1.950 -1.2630  0.4178 -0.6374
 1244TIP3    H2 3739   4.477   2.428   2.045  1.2755  0.1384  0.7385
 1245TIP3   OH2 3740   0.280   5.246   3.484  0.0116 -0.8568  0.4259
 1245TIP3    H1 3741   0.374   5.266   3.486 -0.0246 -0.6521  0.1234
 1245TIP3    H2 3742   0.270   5.173   3.545 -0.2395  1.6293  3.6400
 1246TIP3   OH2 3743   5.666   4.264   4.142  0.0478 -0.7915 -0.1545
 1246TIP3    H1 3744   5.668   4.360   4.133 -0.8043 -0.8884 -1.6157
 1246TIP3    H2 3745   5.713   4.232   4.066 -0.9551 -1.5611 -0.4599
 1247TIP3   OH2 3746   2.173   4.338   1.984  0.4699  0.2825 -0.0083
 1247TIP3    H1 3747   2.266   4.349   1.961  0.8199 -1.8682  0.1858
 1247TIP3    H2 3748   2.140   4.275   1.919 -0.5513  0.1465  0.6319
 1248TIP3   OH2 3749   4.693   3.285   0.915  0.0512 -0.3645  0.0224
 1248TIP3    H1 3750   4.765   3.222   0.915  0.7057  0.2952  2.2480
 1248TIP3    H2 3751   4.733   3.368   0.889 -0.4102 -0.4570 -1.0234
 1249TIP3   OH2 3752   3.589   5.867   0.414  0.2154  0.3085 -0.2061
 1249TIP3    H1 3753   3.636   5.950   0.417 -0.6232  0.8100 -0.6650
 1249TIP3    H2 3754   3.497   5.892   0.405 -0.1502 -0.6533  0.6956
 1250TIP3   OH2 3755   5.117   4.285   2.505  0.2622  0.1910  0.0176
 1250TIP3    H1 3756   5.070   4.265   2.585 -1.9110 -1.5972 -1.5784
 1250TIP3    H2 3757   5.119   4.202   2.457  0.6390  1.3880 -2.1705
 1251TIP3   OH2 3758   3.040   5.375   0.818 -0.2710 -0.1623 -0.1879
 1251TIP3    H1 3759   3.055   5.469   0.806 -1.9107  0.0379 -0.8391
 1251TIP3    H2 3760   3.127   5.336   0.808  0.6174  1.3528  1.0938
 1252TIP3   OH2 3761   3.484   2.339   3.804 -0.1005  0.4100 -0.2583
 1252TIP3    H1 3762   3.391   2.319   3.793  0.2819 -0.4984 -2.4285
 1252TIP3    H2 3763   3.491   2.432   3.782 -0.1979 -0.1053 -2.7779
 1253TIP3   OH2 3764   3.167   2.471   0.221 -0.3769  0.2267  0.2600
 1253TIP3    H1 3765   3.208   2.399   0.172  1.1855  0.9868  0.4016
 1253TIP3    H2 3766   3.145   2.536   0.155 -2.7347 -0.7251 -0.0125
 1254TIP3   OH2 3767   4.350   2.208   2.269 -0.0025 -0.0692 -0.0125
 1254TIP3    H1 3768   4.443   2.229   2.277  0.1220 -0.7301  0.3756
 1254TIP3    H2 3769   4.348   2.122   2.226 -0.4594  0.2620 -0.6635
 1255TIP3   OH2 3770   2.196   5.946   3.267 -0.2890 -0.0375 -0.3786
 1255TIP3    H1 3771   2.152   5.942   3.351 -1.5835 -0.8024 -1.0587
 1255TIP3    H2 3772   2.216   6.039   3.254  0.1626  0.0517  0.8601
 1256TIP3   OH2 3773   5.716   5.398   1.782 -0.0516  0.1620 -0.5437
 1256TIP3    H1 3774   5.732   5.403   1.877 -0.5288  1.5459 -0.5187
 1256TIP3    H2 3775   5.759   5.476   1.747  0.0682 -0.3144 -1.4720
 1257TIP3   OH2 3776   5.522   0.574   2.028  0.3115  0.3383 -0.0844
 1257TIP3    H1 3777   5.520   0.568   2.123  1.0803  0.0423 -0.0856
 1257TIP3    H2 3778   5.456   0.511   1.999  1.1724 -0.7308  0.2134
 1258TIP3   OH2 3779   4.601   2.570   4.216 -0.6261  0.6156  0.6031
 1258TIP3    H1 3780   4.548   2.492   4.204  0.5115 -0.3115  1.4036
 1258TIP3    H2 3781   4.616   2.575   4.311  0.1989  1.2044  0.4566
 1259TIP3   OH2 3782   4.495   1.301   2.654  0.2829  0.2369 -0.1232
 1259TIP3    H1 3783   4.555   1.340   2.718  0.7427 -1.3567  0.4596
 1259TIP3    H2 3784   4.454   1.376   2.611  0.5966  1.3502  1.4459
 1260TIP3   OH2 3785   5.732   3.598   2.298  0.1737 -0.4669  0.0739
 1260TIP3    H1 3786   5.775   3.514   2.317 -0.9731 -1.1959 -0.4754
 1260TIP3    H2 3787   5.665   3.577   2.233  1.3090  1.2664 -1.7686
 1261TIP3   OH2 3788   5.020   2.058   3.130  0.4734 -0.0857  0.0447
 1261TIP3    H1 3789   4.940   2.098   3.096  0.0966 -3.8545 -4.5796
 1261TIP3    H2 3790   4.991   2.004   3.203 -0.5328  0.9392  0.4415
 1262TIP3   OH2 3791   3.882   2.929   3.208  0.2696  0.0839 -0.5375
 1262TIP3    H1 3792   3.938   2.851   3.202  0.9302  0.6139 -1.5016
 1262TIP3    H2 3793   3.798   2.895   3.241  0.8323 -0.8802 -0.0220
 1263TIP3   OH2 3794   0.761   1.854   2.853  0.5483 -0.0270  0.2803
 1263TIP3    H1 3795   0.695   1.792   2.821  0.1958  0.5463 -0.1365
 1263TIP3    H2 3796   0.709   1.927   2.889  0.9286 -0.5490  1.9914
 1264TIP3   OH2 3797   0.269   0.653   1.214 -0.5092 -0.1158  0.1851
 1264TIP3    H1 3798   0.326   0.707   1.159 -1.9536 -0.5876 -1.8942
 1264TIP3    H2 3799   0.259   0.704   1.295 -0.5763  2.0286 -1.0885
 1265TIP3   OH2 3800   2.881   3.624   4.608 -0.8871 -0.2810  0.2999
 1265TIP3    H1 3801   2.791   3.612   4.637 -1.4660 -0.0872 -1.2954
 1265TIP3    H2 3802   2.932   3.564   4.662 -2.2213 -1.7018  0.0610
 1266TIP3   OH2 3803   5.273   4.785   3.528  0.1334  0.2098 -0.2773
 1266TIP3    H1 3804   5.346   4.824   3.577 -0.3615  1.9680 -0.8526
 1266TIP3    H2 3805   5.196   4.837   3.554 -0.5255 -0.2134 -1.2895
 1267TIP3   OH2 3806   3.669   1.238   4.786 -0.2390  0.1273  0.1442
 1267TIP3    H1 3807   3.680   1.323   4.744 -1.5583  0.7333  0.9521
 1267TIP3    H2 3808   3.678   1.174   4.715 -1.5829  1.0677 -0.9301
 1268TIP3   OH2 3809   4.157   4.754   0.040  0.4568  0.0988  0.0067
 1268TIP3    H1 3810   4.100   4.713   0.106 -0.0690 -0.1129 -0.5715
 1268TIP3    H2 3811   4.215   4.684   0.012  0.0503 -0.0690 -0.4385
 1269TIP3   OH2 3812   1.986   2.212   4.104  0.5345 -0.2776 -0.2621
 1269TIP3    H1 3813   2.040   2.260   4.042 -2.3123 -0.2011 -2.8891
 1269TIP3    H2 3814   2.016   2.121   4.097  1.4770  0.0331 -0.3090
 1270TIP3   OH2 3815   4.369   0.068   0.449  0.1364  0.6383 -0.2496
 1270TIP3    H1 3816   4.420   0.020   0.514  0.2977 -0.5427 -1.2110
 1270TIP3    H2 3817   4.284   0.083   0.491  0.2605 -0.0416  0.2551
 1271TIP3   OH2 3818   3.577   3.974   3.754 -0.3575 -0.2231  0.1973
 1271TIP3    H1 3819   3.654   3.974   3.698 -0.6409 -1.7604 -0.2617
 1271TIP3    H2 3820   3.600   4.031   3.828  0.9038 -0.0223 -0.3279
 1272TIP3   OH2 3821   4.297   5.189   2.787  0.1032 -0.1775  0.3001
 1272TIP3    H1 3822   4.318   5.171   2.696  0.7900 -1.5466  0.7100
 1272TIP3    H2 3823   4.343   5.270   2.807 -1.6998  1.3024 -1.1155
 1273TIP3   OH2 3824   0.102   0.374   4.129  0.2406 -0.3799 -0.3061
 1273TIP3    H1 3825   0.166   0.332   4.186 -0.2229  0.7268  1.0893
 1273TIP3    H2 3826   0.024   0.318   4.135  0.3291 -0.4878 -0.1622
 1274TIP3   OH2 3827   4.068   1.907   1.612  0.1774 -0.3545  0.0718
 1274TIP3    H1 3828   3.983   1.939   1.643  0.3897 -1.0880  1.5216
 1274TIP3    H2 3829   4.047   1.844   1.544 -0.4140 -0.0890  0.0076
 1275TIP3   OH2 3830   1.367   1.508   3.897 -0.3184 -0.0160 -0.3018
 1275TIP3    H1 3831   1.386   1.415   3.882 -1.4501 -0.2265 -0.5155
 1275TIP3    H2 3832   1.384   1.550   3.812  2.9742  0.4994  0.4933
 1276TIP3   OH2 3833   1.288   3.803   0.696  0.2934 -0.0826  0.3187
 1276TIP3    H1 3834   1.314   3.760   0.615 -2.2855  0.0626 -0.6855
 1276TIP3    H2 3835   1.279   3.895   0.673 -1.6367 -0.2106  0.3729
 1277TIP3   OH2 3836   3.881   5.606   4.514  0.5235  0.3850 -0.4843
 1277TIP3    H1 3837   3.794   5.644   4.526 -0.7525 -2.6774  1.1855
 1277TIP3    H2 3838   3.898   5.614   4.421 -1.5576  1.0977 -0.8543
 1278TIP3   OH2 3839   4.428   1.748   3.267  0.4756  0.2122 -0.1284
 1278TIP3    H1 3840   4.338   1.775   3.250  0.3279 -0.6821 -0.8339
 1278TIP3    H2 3841   4.452   1.794   3.347 -0.6918  0.2673  0.2044
 1279TIP3   OH2 3842   3.338   4.894   4.828  0.2047  0.0612 -0.2877
 1279TIP3    H1 3843   3.397   4.924   4.759 -1.1154 -0.1290 -1.5737
 1279TIP3    H2 3844   3.290   4.972   4.855 -0.1777 -0.0873 -0.5224
 1280TIP3   OH2 3845   5.017   0.544   1.782 -0.7372 -0.1462 -0.3674
 1280TIP3    H1 3846   5.071   0.579   1.853 -1.5841 -0.8103  0.6271
 1280TIP3    H2 3847   4.939   0.598   1.781 -1.6744 -1.4209  0.6243
 1281TIP3   OH2 3848   3.246   4.070   4.003  0.4809  0.1230  0.0841
 1281TIP3    H1 3849   3.317   4.119   4.044  0.0885 -0.4118  1.4415
 1281TIP3    H2 3850   3.176   4.070   4.068 -2.0619  3.2887 -2.3299
 1282TIP3   OH2 3851   0.617   0.705   0.585  0.0300 -0.0902  0.3859
 1282TIP3    H1 3852   0.597   0.798   0.579  0.3352  0.0364  1.1711
 1282TIP3    H2 3853   0.710   0.702   0.610  0.6088 -0.6359 -1.6830
 1283TIP3   OH2 3854   0.660   4.298   0.206  0.2930 -0.5143  0.3369
 1283TIP3    H1 3855   0.628   4.388   0.195 -2.2102 -1.3916 -0.2361
 1283TIP3    H2 3856   0.725   4.304   0.276 -0.0442  1.7014  0.5324
 1284TIP3   OH2 3857   3.198   3.790   1.733  0.4532 -0.0665  0.3002
 1284TIP3    H1 3858   3.261   3.831   1.792  1.1390 -0.7818  0.0829
 1284TIP3    H2 3859   3.130   3.857   1.720  0.7112  0.3921  1.2343
 1285TIP3   OH2 3860   5.595   1.236   4.557 -0.3582  0.1902  0.3786
 1285TIP3    H1 3861   5.662   1.270   4.498  1.0307  2.1272  2.8670
 1285TIP3    H2 3862   5.513   1.274   4.526  0.1835  0.5061 -0.7184
 1286TIP3   OH2 3863   3.597   2.766   1.727  0.2670  0.2243  0.0210
 1286TIP3    H1 3864   3.527   2.817   1.685 -0.0833 -0.5138 -0.3266
 1286TIP3    H2 3865   3.580   2.774   1.821  0.3167  0.8753 -0.0223
 1287TIP3   OH2 3866   4.889   0.705   2.475 -0.1989 -0.3622 -0.1468
 1287TIP3    H1 3867   4.973   0.743   2.499 -0.6364  0.6802 -0.1985
 1287TIP3    H2 3868   4.824   0.756   2.523 -0.9368  0.2487 -1.7079
 1288TIP3   OH2 3869   2.577   2.205   3.441 -0.3793 -0.0195  0.4281
 1288TIP3    H1 3870   2.656   2.257   3.427 -0.6375  0.2179 -0.1613
 1288TIP3    H2 3871   2.600   2.146   3.513  0.4227 -0.1397  0.0799
 1289TIP3   OH2 3872   0.289   0.722   0.408  0.0615  0.4333 -0.5802
 1289TIP3    H1 3873   0.236   0.724   0.488 -0.4838  0.8796 -0.9430
 1289TIP3    H2 3874   0.294   0.630   0.385 -0.5798  0.3904 -0.5556
 1290TIP3   OH2 3875   3.212   1.341   3.777 -0.2919  0.5194  0.1651
 1290TIP3    H1 3876   3.153   1.386   3.837 -0.3259 -0.6842  1.0901
 1290TIP3    H2 3877   3.296   1.385   3.788 -0.3858  0.5441  0.8448
 1291TIP3   OH2 3878   5.243   2.261   0.099 -0.1137  0.0338  0.0469
 1291TIP3    H1 3879   5.242   2.329   0.031  0.6572 -0.5561 -0.5872
 1291TIP3    H2 3880   5.317   2.284   0.155 -0.9931  0.7403  0.9357
 1292TIP3   OH2 3881   0.882   1.790   1.097  0.0020  0.1188 -0.2970
 1292TIP3    H1 3882   0.951   1.828   1.043  1.1723 -0.5615  0.6541
 1292TIP3    H2 3883   0.802   1.837   1.071  0.8819  1.2033 -1.1553
 1293TIP3   OH2 3884   5.654   2.244   0.425  0.1251 -0.3838 -0.5357
 1293TIP3    H1 3885   5.647   2.268   0.333  2.6471  0.9159 -0.4803
 1293TIP3    H2 3886   5.569   2.266   0.463 -0.3367  0.8262 -2.1824
 1294TIP3   OH2 3887   3.847   4.168   3.915  0.0282 -0.0368  0.6348
 1294TIP3    H1 3888   3.790   4.165   3.992  0.8747  0.8540  1.3307
 1294TIP3    H2 3889   3.890   4.253   3.921 -0.7933  0.6113 -1.5124
 1295TIP3   OH2 3890   4.591   5.081   2.662 -0.0621  0.0734 -0.0852
 1295TIP3    H1 3891   4.509   5.073   2.614 -0.1269 -0.7678  0.1301
 1295TIP3    H2 3892   4.572   5.042   2.748  0.7296 -0.7510 -0.2576
 1296TIP3   OH2 3893   4.545   1.750   1.673  0.2443 -0.0596 -0.2797
 1296TIP3    H1 3894   4.556   1.792   1.759  0.0462 -0.4043 -0.0850
 1296TIP3    H2 3895   4.451   1.748   1.659  0.2230 -0.8514 -0.0809
 1297TIP3   OH2 3896   1.355   3.862   2.421  0.2814  0.2772 -0.0136
 1297TIP3    H1 3897   1.311   3.869   2.506 -1.6270 -0.2949 -0.8988
 1297TIP3    H2 3898   1.435   3.813   2.440 -1.9926 -3.4541  0.9146
 1298TIP3   OH2 3899   5.450   2.030   4.527 -0.3951 -0.2848  0.2115
 1298TIP3    H1 3900   5.441   2.055   4.435 -1.3782  0.7408  0.5512
 1298TIP3    H2 3901   5.523   2.083   4.559 -0.6401  0.0510  0.2292
 1299TIP3   OH2 3902   3.572   2.265   1.203  0.2006 -0.0145 -0.5945
 1299TIP3    H1 3903   3.522   2.318   1.264  0.3347  0.2247 -0.6886
 1299TIP3    H2 3904   3.510   2.241   1.134 -0.2820 -1.3672  0.2780
 1300TIP3   OH2 3905   0.962   1.989   1.869 -0.1941  0.1384 -0.4331
 1300TIP3    H1 3906   0.924   1.909   1.833 -1.3398  0.7859 -0.7257
 1300TIP3    H2 3907   0.971   2.048   1.793  0.4482  0.3658 -0.1897
 1301TIP3   OH2 3908   1.561   2.657   0.817  0.1664 -0.3566  0.2978
 1301TIP3    H1 3909   1.569   2.701   0.901  0.7705 -0.4091  0.2740
 1301TIP3    H2 3910   1.486   2.599   0.827  1.0961 -1.4439  1.2969
 1302TIP3   OH2 3911   3.100   0.434   1.349  0.1597 -0.2145  0.1219
 1302TIP3    H1 3912   3.053   0.353   1.369 -0.1599  0.0081  0.2725
 1302TIP3    H2 3913   3.184   0.424   1.393 -0.6384  0.4023  1.8649
 1303TIP3   OH2 3914   2.082   4.402   0.405 -0.5187  0.2102  0.1660
 1303TIP3    H1 3915   2.109   4.490   0.381 -1.0180 -0.1698 -2.0104
 1303TIP3    H2 3916   2.147   4.345   0.364 -2.0381 -0.5343 -1.3045
 1304TIP3   OH2 3917   3.924   0.835   3.474 -0.4633 -0.0678  0.1788
 1304TIP3    H1 3918   3.884   0.791   3.549 -1.2448  2.6046  1.4196
 1304TIP3    H2 3919   4.011   0.861   3.505 -0.9736  1.4888  0.3700
 1305TIP3   OH2 3920   3.303   4.213   1.214 -0.3987 -0.1017 -0.0685
 1305TIP3    H1 3921   3.342   4.224   1.301 -1.1001 -0.7615  0.3474
 1305TIP3    H2 3922   3.210   4.233   1.227 -0.1460  2.0675 -1.1766
 1306TIP3   OH2 3923   0.341   2.884   1.692  0.4097  0.2509 -0.7825
 1306TIP3    H1 3924   0.307   2.970   1.665  0.5627  0.3696 -0.6003
 1306TIP3    H2 3925   0.266   2.838   1.728  0.7472  1.1190  1.1431
 1307TIP3   OH2 3926   2.490   0.731   3.332 -0.4990 -0.5041  0.1816
 1307TIP3    H1 3927   2.440   0.709   3.410 -0.3005  0.9599  0.7551
 1307TIP3    H2 3928   2.557   0.663   3.325  0.0668 -0.1615  1.8369
 1308TIP3   OH2 3929   4.509   3.908   4.859 -0.3052  0.0676  0.7245
 1308TIP3    H1 3930   4.483   3.916   4.951 -0.9164 -0.5883  0.6172
 1308TIP3    H2 3931   4.515   3.998   4.828  1.2745  0.3604  1.7651
 1309TIP3   OH2 3932   0.691   5.166   4.797  0.4388 -0.5783  0.2058
 1309TIP3    H1 3933   0.736   5.175   4.713  1.2979  2.5438  0.8680
 1309TIP3    H2 3934   0.750   5.112   4.850  1.0035 -0.6437 -0.4797
 1310TIP3   OH2 3935   3.969   0.948   0.960 -0.5837 -0.4725 -0.2907
 1310TIP3    H1 3936   3.891   0.955   1.015  0.2095 -0.1254  0.8162
 1310TIP3    H2 3937   3.943   0.988   0.877 -1.7649 -0.8980 -0.1431
 1311TIP3   OH2 3938   5.095   5.420   4.556 -0.0742  0.2441 -0.1108
 1311TIP3    H1 3939   5.082   5.443   4.464  1.1613  0.5024 -0.2379
 1311TIP3    H2 3940   5.006   5.420   4.593 -0.7243 -1.0391 -1.5444
 1312TIP3   OH2 3941   1.177   0.480   3.667  0.2141 -0.1865  0.4149
 1312TIP3    H1 3942   1.175   0.387   3.691  1.7868 -0.8346 -1.6003
 1312TIP3    H2 3943   1.207   0.525   3.745 -0.4210 -1.3886  1.3782
 1313TIP3   OH2 3944   0.782   5.858   1.421  0.2247  0.1808 -0.6519
 1313TIP3    H1 3945   0.843   5.877   1.349 -0.3549 -1.1299 -1.5401
 1313TIP3    H2 3946   0.695   5.873   1.384 -0.0330  2.4092  0.7270
 1314TIP3   OH2 3947   2.633   2.385   0.300  0.0882  0.7099 -0.1769
 1314TIP3    H1 3948   2.654   2.300   0.338  1.0434  1.0469  0.1033
 1314TIP3    H2 3949   2.547   2.407   0.334 -0.0317 -0.0066 -0.0076
 1315TIP3   OH2 3950   3.441   5.592   5.206 -0.1547  0.2561 -0.0764
 1315TIP3    H1 3951   3.360   5.541   5.208 -0.5611  0.9114  0.6825
 1315TIP3    H2 3952   3.446   5.626   5.116 -1.4386  1.3089  0.2178
 1316TIP3   OH2 3953   4.485   2.899   3.468 -0.6823 -0.0208  0.1449
 1316TIP3    H1 3954   4.481   2.993   3.487 -3.1759  0.2439 -1.2938
 1316TIP3    H2 3955   4.518   2.894   3.378  1.9160 -0.7379  1.0575
 1317TIP3   OH2 3956   2.377   4.986   3.648 -0.4463 -0.2480  0.7121
 1317TIP3    H1 3957   2.427   4.905   3.645 -0.3879 -0.1953 -0.6469
 1317TIP3    H2 3958   2.411   5.033   3.724  0.4740 -0.8964  0.7213
 1318TIP3   OH2 3959   1.192   5.483   2.162  0.5350 -0.2960 -0.2696
 1318TIP3    H1 3960   1.197   5.579   2.159 -0.9285 -0.0830  1.8986
 1318TIP3    H2 3961   1.100   5.463   2.144  0.4532 -1.1549  0.9811
 1319TIP3   OH2 3962   0.678   1.205   4.134  0.7297 -0.2180  0.0091
 1319TIP3    H1 3963   0.642   1.287   4.099 -1.0967 -0.7480  0.4917
 1319TIP3    H2 3964   0.772   1.221   4.142  1.3441  0.0096 -4.9286
 1320TIP3   OH2 3965   1.134   2.022   4.619  0.1406 -0.0717  0.2998
 1320TIP3    H1 3966   1.188   2.097   4.640 -1.1408  0.6624  1.1322
 1320TIP3    H2 3967   1.044   2.052   4.633 -0.4197 -1.6921  0.4697
 1321TIP3   OH2 3968   1.041   2.044   0.590  0.0747  0.5599  0.2634
 1321TIP3    H1 3969   1.105   2.080   0.529 -0.7305 -1.2559 -1.7611
 1321TIP3    H2 3970   1.004   2.121   0.633  1.0240  1.8746 -1.1644
 1322TIP3   OH2 3971   3.308   3.648   1.221 -0.0660  0.4772 -0.1354
 1322TIP3    H1 3972   3.289   3.741   1.217  0.0710  0.4499 -2.8510
 1322TIP3    H2 3973   3.274   3.620   1.306 -1.5544  2.6716  0.0538
 1323TIP3   OH2 3974   3.770   4.091   0.015 -0.1906  0.0878 -0.1431
 1323TIP3    H1 3975   3.724   4.020  -0.031 -0.2417  0.3238 -0.4597
 1323TIP3    H2 3976   3.701   4.138   0.061 -0.1177 -0.2554  0.3266
 1324TIP3   OH2 3977   5.038   4.212   2.760  0.3867 -0.0761  0.1366
 1324TIP3    H1 3978   5.106   4.207   2.827  1.5218  0.1910 -0.9543
 1324TIP3    H2 3979   4.961   4.245   2.806  1.3602  0.8629  1.1482
 1325TIP3   OH2 3980   4.862   0.964   4.515  0.0778  0.0060 -0.1858
 1325TIP3    H1 3981   4.945   1.007   4.533 -0.2087  0.3375  0.3497
 1325TIP3    H2 3982   4.879   0.871   4.531  0.4328  0.0321 -0.4056
 1326TIP3   OH2 3983   1.133   3.380   1.119  0.2415 -0.0383  0.7168
 1326TIP3    H1 3984   1.077   3.399   1.044  1.3799 -1.1649 -0.4587
 1326TIP3    H2 3985   1.073   3.385   1.195 -1.5071 -1.3145 -0.4881
 1327TIP3   OH2 3986   0.547   1.971   0.651  0.2862 -0.1549  0.7814
 1327TIP3    H1 3987   0.511   2.049   0.692  0.0808 -1.0861  2.4334
 1327TIP3    H2 3988   0.621   2.003   0.599  2.0074  0.8426  3.6620
 1328TIP3   OH2 3989   3.979   3.756   0.911 -0.2397  0.0429  0.5912
 1328TIP3    H1 3990   4.040   3.771   0.983  1.8408  0.0375 -1.0525
 1328TIP3    H2 3991   4.033   3.765   0.832 -2.2503 -0.6506 -0.9541
 1329TIP3   OH2 3992   2.015   0.665   5.186 -0.2019  0.1628 -0.0037
 1329TIP3    H1 3993   1.995   0.642   5.095 -0.9356 -1.2511  0.4874
 1329TIP3    H2 3994   1.934   0.703   5.220  0.1498  0.9308 -0.0029
 1330TIP3   OH2 3995   1.269   1.907   1.992 -0.1903  0.0072  0.1158
 1330TIP3    H1 3996   1.288   1.993   2.030 -0.2704  0.3657 -0.6443
 1330TIP3    H2 3997   1.183   1.916   1.952 -0.9606 -0.9175  1.4452
 1331TIP3   OH2 3998   4.631   2.947   2.175  0.3580 -0.5068  0.2719
 1331TIP3    H1 3999   4.726   2.945   2.160  0.6029 -0.4471  1.6439
 1331TIP3    H2 4000   4.593   2.962   2.088  1.7156  1.8701 -0.0199
 1332TIP3   OH2 4001   4.505   2.960   0.357  0.0131  0.0175  0.0535
 1332TIP3    H1 4002   4.538   3.041   0.318 -2.5510  0.7075 -0.8890
 1332TIP3    H2 4003   4.539   2.891   0.300 -1.0498  0.7749 -1.5738
 1333TIP3   OH2 4004   5.971   5.090   0.835  0.2573  0.5686 -0.6523
 1333TIP3    H1 4005   5.971   5.133   0.920 -1.4935  0.1703 -0.4162
 1333TIP3    H2 4006   6.033   5.018   0.844 -0.6579 -0.0941  0.6317
 1334TIP3   OH2 4007   1.079   1.769   0.510 -0.3985  0.0576 -0.3391
 1334TIP3    H1 4008   1.091   1.858   0.541 -1.1004  0.7083 -1.8649
 1334TIP3    H2 4009   1.061   1.719   0.590 -1.0276  1.4531  0.4287
 1335TIP3   OH2 4010   2.082   1.214   5.186  0.3071  0.1984  0.1883
 1335TIP3    H1 4011   2.178   1.220   5.184  0.2485  1.5088  0.2109
 1335TIP3    H2 4012   2.061   1.145   5.123  1.2053  0.9754 -1.0031
 1336TIP3   OH2 4013   6.008   5.137   1.694 -0.8561 -0.2191 -0.2895
 1336TIP3    H1 4014   6.014   5.229   1.719  0.3667 -0.0930 -0.9714
 1336TIP3    H2 4015   6.077   5.126   1.629  1.3690 -2.4548  2.2532
 1337TIP3   OH2 4016   1.150   0.040   3.979 -0.8021  0.0337 -0.5275
 1337TIP3    H1 4017   1.156   0.124   4.025  1.2684  0.2560 -1.0876
 1337TIP3    H2 4018   1.122  -0.022   4.047 -0.4895  0.8415  0.3689
 1338TIP3   OH2 4019   2.071   2.651   2.454  0.2322  0.0313 -0.1668
 1338TIP3    H1 4020   2.056   2.649   2.548  0.9990 -2.7940 -0.0107
 1338TIP3    H2 4021   1.984   2.644   2.415 -0.2088  2.5178  0.2343
 1339TIP3   OH2 4022   5.609   1.750   1.841 -0.1828  0.0105  0.1561
 1339TIP3    H1 4023   5.532   1.697   1.861 -0.6004 -0.1562 -1.6671
 1339TIP3    H2 4024   5.678   1.714   1.896 -0.9197 -1.2037  0.3168
 1340TIP3   OH2 4025   6.118   1.638   2.690 -0.1254  0.1451  0.4790
 1340TIP3    H1 4026   6.098   1.624   2.597  0.7827  1.1592  0.1026
 1340TIP3    H2 4027   6.036   1.670   2.727  0.2062  2.6295 -0.6672
 1341TIP3   OH2 4028   6.245   5.466   3.478 -0.0677  0.1290  0.1905
 1341TIP3    H1 4029   6.270   5.433   3.564  0.1220 -0.1361  0.0337
 1341TIP3    H2 4030   6.194   5.395   3.439 -0.4960  0.4036  0.2401
 1342TIP3   OH2 4031   4.057   2.870   3.510  0.6620  0.1839  0.3957
 1342TIP3    H1 4032   4.142   2.842   3.543  0.9927  0.4520 -0.2117
 1342TIP3    H2 4033   3.994   2.811   3.552  1.1712 -0.2099  0.6165
 1343TIP3   OH2 4034   2.879   5.809   2.587 -0.3820 -0.5477  0.2935
 1343TIP3    H1 4035   2.921   5.818   2.502  0.0965 -2.8178  0.2320
 1343TIP3    H2 4036   2.902   5.890   2.634  0.7801 -0.0146 -1.1239
 1344TIP3   OH2 4037   2.294   5.062   1.222 -0.3923  0.4758 -0.2960
 1344TIP3    H1 4038   2.363   5.120   1.254  0.4635 -1.4334  1.4695
 1344TIP3    H2 4039   2.286   5.084   1.129  2.3461  0.9859 -0.4812
 1345TIP3   OH2 4040   5.191   1.207   2.948  0.1267  0.6140  0.1577
 1345TIP3    H1 4041   5.183   1.164   2.863  2.0652 -1.7802  1.0932
 1345TIP3    H2 4042   5.197   1.301   2.926 -0.9536  0.2249 -2.1876
 1346TIP3   OH2 4043   4.744   3.020   4.029  0.0890  0.3968  1.0396
 1346TIP3    H1 4044   4.667   2.984   3.984 -0.4290 -0.5384  2.6239
 1346TIP3    H2 4045   4.743   2.979   4.115  1.6044  1.4263  1.5800
 1347TIP3   OH2 4046   0.968   5.694   2.033  0.0246 -0.2979 -0.4364
 1347TIP3    H1 4047   0.966   5.621   1.970  1.1546 -0.8261  0.1168
 1347TIP3    H2 4048   1.058   5.727   2.028 -0.2291  0.4795 -0.0102
 1348TIP3   OH2 4049   2.950   5.558   2.697  0.3824  0.5225  0.1090
 1348TIP3    H1 4050   2.855   5.557   2.687  0.2811  1.0059  0.8760
 1348TIP3    H2 4051   2.980   5.626   2.636  0.2280  0.4407 -0.0589
 1349TIP3   OH2 4052   1.082   0.058   1.510  0.1646  0.2396 -0.2506
 1349TIP3    H1 4053   1.027  -0.017   1.530 -0.0417  0.4180 -0.1489
 1349TIP3    H2 4054   1.134   0.071   1.589  0.7349 -0.2519 -0.5283
 1350TIP3   OH2 4055   1.126   1.767   4.510  0.4080  0.6396 -0.7043
 1350TIP3    H1 4056   1.141   1.857   4.536  0.1873  0.0326  1.7424
 1350TIP3    H2 4057   1.033   1.752   4.525  0.5783 -0.1872 -0.4134
 1351TIP3   OH2 4058   4.301   4.334   1.238 -0.3185 -0.5423 -0.2505
 1351TIP3    H1 4059   4.318   4.371   1.152 -1.8422  0.8830  0.0036
 1351TIP3    H2 4060   4.260   4.250   1.220 -0.1076 -0.5126 -0.9053
 1352TIP3   OH2 4061   5.703   4.342   1.219  0.5234 -0.3585  0.0458
 1352TIP3    H1 4062   5.700   4.270   1.156  0.3161 -1.2507  1.0378
 1352TIP3    H2 4063   5.759   4.408   1.178  0.3212 -0.8742 -1.0964
 1353TIP3   OH2 4064   4.371   3.715   2.506 -0.3490  0.5522 -0.1229
 1353TIP3    H1 4065   4.459   3.689   2.479 -0.8830  0.1588 -1.5766
 1353TIP3    H2 4066   4.336   3.638   2.551  0.0227  0.6966  0.4242
 1354TIP3   OH2 4067   6.136   5.985   3.481 -0.2886  0.3719  0.5223
 1354TIP3    H1 4068   6.049   6.025   3.488 -0.1427  0.8876 -0.4692
 1354TIP3    H2 4069   6.125   5.898   3.518 -1.7005 -0.2416 -1.1926
 1355TIP3   OH2 4070   5.833   2.035   2.713 -0.0789 -1.1948  0.2426
 1355TIP3    H1 4071   5.847   1.979   2.637 -0.2026 -0.6464 -0.1948
 1355TIP3    H2 4072   5.916   2.031   2.761 -0.4581 -2.6301  0.8288
 1356TIP3   OH2 4073   2.469   1.608   2.930  0.0793 -0.1399  0.7119
 1356TIP3    H1 4074   2.377   1.594   2.910  0.1519 -0.5622  0.6680
 1356TIP3    H2 4075   2.484   1.700   2.908  0.3438 -0.7345 -2.1046
 1357TIP3   OH2 4076   4.448   3.416   2.389 -0.0292 -0.3954 -0.3552
 1357TIP3    H1 4077   4.480   3.336   2.349 -0.6139 -0.4390 -0.7558
 1357TIP3    H2 4078   4.498   3.486   2.347 -0.3263 -0.4729 -0.8442
 1358TIP3   OH2 4079   1.205   4.358   4.637 -0.4502 -0.1448  0.3109
 1358TIP3    H1 4080   1.187   4.266   4.616  0.9767 -0.1145 -1.2775
 1358TIP3    H2 4081   1.286   4.355   4.688  0.2376  0.2693 -0.7196
 1359TIP3   OH2 4082   0.113   5.764   3.956  0.2125  0.7858  0.2931
 1359TIP3    H1 4083   0.116   5.820   4.033 -0.1605  0.5192  0.5063
 1359TIP3    H2 4084   0.194   5.713   3.960  1.4708  2.5499 -0.8741
 1360TIP3   OH2 4085   4.851   2.924   2.435 -0.6741 -0.6753 -0.0623
 1360TIP3    H1 4086   4.843   2.956   2.345 -0.3894 -1.4139 -0.3679
 1360TIP3    H2 4087   4.913   2.851   2.428  1.6211  1.0301  1.1762
 1361TIP3   OH2 4088   4.176   2.167   0.671  0.0547  0.6468 -0.2141
 1361TIP3    H1 4089   4.185   2.111   0.748  0.2412  0.2184 -0.5421
 1361TIP3    H2 4090   4.198   2.255   0.702 -2.0658  0.8881  0.7530
 1362TIP3   OH2 4091   2.760   0.361   4.260 -0.3347  0.4481  0.2491
 1362TIP3    H1 4092   2.796   0.414   4.189 -0.7212 -0.5166 -0.7024
 1362TIP3    H2 4093   2.709   0.422   4.313  1.6821  1.6026  0.9446
 1363TIP3   OH2 4094   2.813   2.802   3.730 -0.0507 -0.3351 -0.0482
 1363TIP3    H1 4095   2.791   2.871   3.667  0.6723 -1.6041 -1.8027
 1363TIP3    H2 4096   2.904   2.820   3.754 -0.6141  0.6898  1.4260
 1364TIP3   OH2 4097   5.584   1.469   3.749  0.3381  0.2622 -0.0166
 1364TIP3    H1 4098   5.493   1.472   3.720  0.3156 -0.5225 -0.0418
 1364TIP3    H2 4099   5.587   1.397   3.812  0.7368  0.9158  0.7265
 1365TIP3   OH2 4100   5.292   4.350   2.152  0.0597 -0.3139 -0.2155
 1365TIP3    H1 4101   5.335   4.365   2.068  1.0450 -1.6400  0.0151
 1365TIP3    H2 4102   5.218   4.411   2.153  1.8890  2.0505 -0.6456
 1366TIP3   OH2 4103   1.638   5.709   0.430  0.1043  0.3452  0.1683
 1366TIP3    H1 4104   1.598   5.692   0.345 -1.2143  2.2796  0.3255
 1366TIP3    H2 4105   1.730   5.684   0.419 -0.3936 -1.0379 -1.2740
 1367TIP3   OH2 4106   4.644   2.916   2.792  0.6264  0.1969 -0.3710
 1367TIP3    H1 4107   4.730   2.875   2.779  0.5312  0.4214 -1.8865
 1367TIP3    H2 4108   4.602   2.912   2.706 -0.4282  1.1223  0.0778
 1368TIP3   OH2 4109   3.535   4.964   4.646  0.2654 -0.4203  0.2369
 1368TIP3    H1 4110   3.604   4.923   4.592  1.0284  0.3320  0.6259
 1368TIP3    H2 4111   3.581   5.029   4.699 -0.7696  0.1805  0.4263
 1369TIP3   OH2 4112   0.841   3.961   2.420  0.0289  0.0574  0.0557
 1369TIP3    H1 4113   0.843   3.964   2.515  0.3051  0.7020  0.0330
 1369TIP3    H2 4114   0.816   4.049   2.393  0.3854  0.0021 -0.4764
 1370TIP3   OH2 4115   2.754   2.495   2.850  0.3043 -0.2331 -0.0660
 1370TIP3    H1 4116   2.750   2.447   2.933  0.1285 -2.5113 -1.3000
 1370TIP3    H2 4117   2.801   2.575   2.871  0.2029 -0.7010  2.2494
 1371TIP3   OH2 4118   5.744   5.018   4.147 -0.9990 -0.4190  0.1359
 1371TIP3    H1 4119   5.749   5.062   4.232 -1.6236 -1.9671  1.0152
 1371TIP3    H2 4120   5.834   4.999   4.124 -0.8215  0.0129  0.4628
 1372TIP3   OH2 4121   4.405   1.535   1.802  0.3455 -0.4322 -0.0862
 1372TIP3    H1 4122   4.456   1.555   1.723 -0.5806 -1.0016 -0.8449
 1372TIP3    H2 4123   4.449   1.460   1.840  1.7593  0.8166  0.8583
 1373TIP3   OH2 4124   3.268   3.047   5.049  0.1684 -0.1401 -0.6913
 1373TIP3    H1 4125   3.358   3.066   5.074  0.7446 -1.8746 -1.3329
 1373TIP3    H2 4126   3.262   3.079   4.959 -0.3202  1.2853 -0.1787
 1374TIP3   OH2 4127   1.769   1.198   0.021  0.0472  0.0828  0.4940
 1374TIP3    H1 4128   1.753   1.139   0.095 -0.3298  1.0565  1.2099
 1374TIP3    H2 4129   1.764   1.286   0.059  1.8516  0.5754 -0.2939
 1375TIP3   OH2 4130   1.480   3.372   3.701  0.7079  0.0644  0.1225
 1375TIP3    H1 4131   1.541   3.345   3.770  0.5177 -0.1612  0.2059
 1375TIP3    H2 4132   1.401   3.321   3.719  0.5477  0.2461 -0.0724
 1376TIP3   OH2 4133   2.942   3.512   4.250 -0.0321 -0.3446 -0.0052
 1376TIP3    H1 4134   2.869   3.480   4.198  0.2617  0.3709 -0.8737
 1376TIP3    H2 4135   2.920   3.488   4.340 -1.4857  0.1428 -0.2179
 1377TIP3   OH2 4136   4.011   4.565   0.490 -0.1861 -0.0661  0.0415
 1377TIP3    H1 4137   4.100   4.554   0.524 -0.5329  2.2136  1.9562
 1377TIP3    H2 4138   3.973   4.477   0.497  0.8422 -0.4232  2.5931
 1378TIP3   OH2 4139   0.248   3.422   4.112  0.7163  0.2223  0.1530
 1378TIP3    H1 4140   0.230   3.483   4.184 -0.6265 -0.3248  0.3248
 1378TIP3    H2 4141   0.231   3.473   4.033  1.0401  0.4926  0.2567
 1379TIP3   OH2 4142   2.758   1.370   0.811 -0.1426  0.1095 -0.5042
 1379TIP3    H1 4143   2.744   1.308   0.882 -0.4438 -0.6992 -1.2569
 1379TIP3    H2 4144   2.834   1.422   0.839  0.2715 -0.7637  0.0191
 1380TIP3   OH2 4145   0.436   0.676   0.135  0.1485  0.3000 -0.6003
 1380TIP3    H1 4146   0.365   0.725   0.176  1.4328  1.5336  0.2424
 1380TIP3    H2 4147   0.490   0.646   0.209  1.0609  0.2825 -1.2625
 1381TIP3   OH2 4148   4.840   2.696   1.164  0.5078  0.4902  0.5149
 1381TIP3    H1 4149   4.795   2.612   1.164 -0.1656  0.8288  1.4814
 1381TIP3    H2 4150   4.813   2.738   1.082  2.6222 -1.1068 -1.0955
 1382TIP3   OH2 4151   0.041   5.117   0.373 -0.7441  0.5597 -0.3982
 1382TIP3    H1 4152   0.084   5.196   0.340 -1.8224  1.2306 -0.2539
 1382TIP3    H2 4153  -0.035   5.150   0.420 -0.7937 -0.5370  0.3189
 1383TIP3   OH2 4154   6.120   3.903   1.678  0.1139 -0.0976 -0.0810
 1383TIP3    H1 4155   6.042   3.915   1.623  0.7916 -0.3585 -1.1121
 1383TIP3    H2 4156   6.100   3.825   1.730 -0.9146  0.6789  0.7456
 1384TIP3   OH2 4157   1.262   5.597   4.070 -0.9119  0.6685  0.1717
 1384TIP3    H1 4158   1.298   5.672   4.117  0.4677 -0.8303  1.6809
 1384TIP3    H2 4159   1.325   5.578   4.001 -1.2593  0.8879 -0.2107
 1385TIP3   OH2 4160   0.792   4.972   4.975 -0.2152 -0.4670  0.0526
 1385TIP3    H1 4161   0.885   4.959   4.957 -0.0193  1.5919 -0.6172
 1385TIP3    H2 4162   0.789   4.993   5.069  0.0005 -0.4027  0.0460
 1386TIP3   OH2 4163   0.404   1.509   1.767  0.0382 -0.0275 -0.4882
 1386TIP3    H1 4164   0.384   1.502   1.673 -0.0028  1.0995 -0.5853
 1386TIP3    H2 4165   0.319   1.509   1.810  0.0029  0.4237 -0.5450
 1387TIP3   OH2 4166   5.901   1.186   4.475 -0.2270  0.2843 -0.1550
 1387TIP3    H1 4167   5.859   1.273   4.474 -1.9211 -0.4881 -0.6037
 1387TIP3    H2 4168   5.903   1.162   4.567  2.2733  1.6659  0.2355
 1388TIP3   OH2 4169   5.282   3.975   3.536  0.6851  0.2499 -0.2448
 1388TIP3    H1 4170   5.368   3.959   3.577 -0.4962 -1.5934  1.7688
 1388TIP3    H2 4171   5.238   4.034   3.596 -0.4966 -1.2126  0.3990
 1389TIP3   OH2 4172   2.659   5.146   5.086 -0.5070  0.2483  0.1585
 1389TIP3    H1 4173   2.614   5.090   5.023  1.1406 -1.0975  0.0946
 1389TIP3    H2 4174   2.739   5.175   5.041 -1.6134  3.3551 -0.0925
 1390TIP3   OH2 4175   5.958   5.188   1.093 -0.2619 -0.2321 -0.4769
 1390TIP3    H1 4176   5.950   5.283   1.089 -2.6800 -0.3845 -1.6241
 1390TIP3    H2 4177   5.929   5.165   1.181  0.0600  0.0711 -0.2898
 1391TIP3   OH2 4178   4.629   5.949   3.753 -0.3884  0.2409  0.7967
 1391TIP3    H1 4179   4.577   5.999   3.816  1.3078  0.5673  1.9965
 1391TIP3    H2 4180   4.718   5.982   3.763  0.2198 -0.8499 -0.6310
 1392TIP3   OH2 4181   1.005   0.069   3.626 -0.3007  0.1502 -0.8388
 1392TIP3    H1 4182   0.960   0.149   3.600 -1.3910 -0.5634 -1.2405
 1392TIP3    H2 4183   0.997   0.011   3.550 -1.0921 -0.9673  0.0544
 1393TIP3   OH2 4184   1.290   0.132   4.263  0.4250  0.0977 -0.3269
 1393TIP3    H1 4185   1.372   0.178   4.281 -0.6716  2.5936 -1.3816
 1393TIP3    H2 4186   1.225   0.177   4.317 -0.4807 -1.0827 -0.3963
 1394TIP3   OH2 4187   3.273   2.017   2.076  0.1167  0.4406 -0.0798
 1394TIP3    H1 4188   3.342   2.033   2.141 -0.5696  0.7489  0.5929
 1394TIP3    H2 4189   3.312   1.955   2.014 -0.5280 -3.3049  2.9000
 1395TIP3   OH2 4190   3.327   5.249   1.179  0.3980  0.5331  0.3903
 1395TIP3    H1 4191   3.404   5.235   1.124  0.4953  1.6671  0.2203
 1395TIP3    H2 4192   3.342   5.334   1.220 -1.1610  1.1868 -0.3226
 1396TIP3   OH2 4193   2.284   0.828   2.444  0.0864  0.2167 -0.0033
 1396TIP3    H1 4194   2.328   0.769   2.505  0.2040 -1.2645 -1.4573
 1396TIP3    H2 4195   2.356   0.870   2.396 -0.0369 -0.1280 -0.4898
 1397TIP3   OH2 4196   4.105   0.650   0.328  0.2186 -0.1705  0.6052
 1397TIP3    H1 4197   4.109   0.730   0.380 -0.5822  0.3919 -0.1754
 1397TIP3    H2 4198   4.140   0.675   0.243  2.2064 -1.2674  1.0271
 1398TIP3   OH2 4199   4.964   1.621   0.019 -0.2205  0.4361  0.1263
 1398TIP3    H1 4200   4.917   1.696   0.057  1.4847  0.4562  2.4270
 1398TIP3    H2 4201   4.900   1.550   0.019 -1.5367  1.5531 -1.0605
 1399TIP3   OH2 4202   2.179   2.493   3.344 -0.0786  0.0288  0.0915
 1399TIP3    H1 4203   2.272   2.483   3.326 -0.1358 -2.9731  0.9210
 1399TIP3    H2 4204   2.175   2.547   3.422  1.1584 -1.6833  1.4106
 1400TIP3   OH2 4205   0.083   1.224   4.780  0.0569  0.0243  0.7460
 1400TIP3    H1 4206   0.022   1.185   4.718  0.4374 -0.2255  0.5250
 1400TIP3    H2 4207   0.130   1.290   4.729  0.6672 -0.4734  0.6467
 1401TIP3   OH2 4208   3.799   2.367   3.231  0.3962 -0.2470  0.1641
 1401TIP3    H1 4209   3.882   2.352   3.277  0.2678 -0.5674  0.2961
 1401TIP3    H2 4210   3.734   2.320   3.284  0.3661 -1.3254 -0.7829
 1402TIP3   OH2 4211   5.699   4.449   3.287 -0.1275  0.2806 -0.7766
 1402TIP3    H1 4212   5.695   4.392   3.211  1.1951 -0.8880 -0.0070
 1402TIP3    H2 4213   5.756   4.404   3.349 -1.9652  0.6643  1.3611
 1403TIP3   OH2 4214   5.536   5.377   3.334 -0.4770  0.0955  0.4132
 1403TIP3    H1 4215   5.516   5.408   3.246 -0.9456  0.4960  0.6568
 1403TIP3    H2 4216   5.612   5.429   3.361 -0.6661  0.3528  0.4507
 1404TIP3   OH2 4217   2.143   0.817   0.315 -0.2712 -0.0720  0.3297
 1404TIP3    H1 4218   2.063   0.814   0.264 -1.0038 -1.9978  1.5093
 1404TIP3    H2 4219   2.162   0.726   0.337  0.7933  0.5535  2.2809
 1405TIP3   OH2 4220   4.419   5.044   5.158 -0.8577  0.1398  0.4027
 1405TIP3    H1 4221   4.457   5.072   5.241 -0.4814 -0.0546  0.2990
 1405TIP3    H2 4222   4.451   5.108   5.094  0.0488 -0.5453  0.1560
 1406TIP3   OH2 4223   4.946   0.534   0.301 -0.1415  0.1351  0.4106
 1406TIP3    H1 4224   4.866   0.552   0.350 -1.4439  1.1613 -1.9402
 1406TIP3    H2 4225   4.944   0.440   0.284  0.3452 -0.2549  2.2016
 1407TIP3   OH2 4226   2.959   0.162   1.467 -0.5365 -0.4254 -0.3467
 1407TIP3    H1 4227   2.895   0.091   1.462 -2.3815  1.0962  0.4184
 1407TIP3    H2 4228   2.908   0.241   1.454  1.3687  0.8275 -0.5878
 1408TIP3   OH2 4229   5.090   3.725   3.750 -0.2139  0.1599  0.6959
 1408TIP3    H1 4230   5.139   3.684   3.678 -1.9825 -0.4253 -0.2477
 1408TIP3    H2 4231   5.124   3.682   3.829  0.8958 -0.0985  0.1077
 1409TIP3   OH2 4232   2.804   2.391   1.448  0.5870  0.0341 -0.6333
 1409TIP3    H1 4233   2.806   2.317   1.387 -2.4076  0.5445 -1.4979
 1409TIP3    H2 4234   2.804   2.468   1.391 -0.3737  0.5749  0.0777
 1410TIP3   OH2 4235   3.070   1.568   1.180 -0.3967 -0.5718  0.4465
 1410TIP3    H1 4236   3.044   1.599   1.267  0.2184  0.4888  0.2524
 1410TIP3    H2 4237   3.125   1.492   1.198  0.4891  0.1879  1.0260
 1411TIP3   OH2 4238   4.319   3.099   0.506 -0.6140 -0.3208 -0.0708
 1411TIP3    H1 4239   4.296   3.180   0.461 -1.0380 -0.5626 -0.2908
 1411TIP3    H2 4240   4.384   3.058   0.449 -1.2994 -0.7249 -0.5736
 1412TIP3   OH2 4241   2.957   2.109   3.435 -0.1058 -0.1979  0.1896
 1412TIP3    H1 4242   2.949   2.205   3.435 -0.3117 -0.2136 -0.3261
 1412TIP3    H2 4243   2.963   2.086   3.528 -0.5179  0.2757  0.3372
 1413TIP3   OH2 4244   6.158   2.997   1.551 -0.0153 -0.8537 -0.1469
 1413TIP3    H1 4245   6.125   2.955   1.630  0.5685  0.9364  1.1198
 1413TIP3    H2 4246   6.094   2.975   1.483 -0.3208 -2.7696  0.6913
 1414TIP3   OH2 4247   5.261   5.659   3.732  0.3287  0.3539 -0.0280
 1414TIP3    H1 4248   5.274   5.592   3.799 -1.3236  1.4903  1.5493
 1414TIP3    H2 4249   5.345   5.666   3.688  0.7981 -2.0980  0.3313
 1415TIP3   OH2 4250   2.543   2.573   1.277 -0.4070 -0.1935  0.3788
 1415TIP3    H1 4251   2.543   2.509   1.206  2.1982  1.4459 -1.2641
 1415TIP3    H2 4252   2.479   2.639   1.249 -1.8278 -1.1416  1.2498
 1416TIP3   OH2 4253   4.066   1.263   0.179 -0.1986 -0.4169 -0.0658
 1416TIP3    H1 4254   4.018   1.181   0.172 -2.1288  0.5787  0.6015
 1416TIP3    H2 4255   4.063   1.300   0.090 -1.0486 -0.1873  0.0483
 1417TIP3   OH2 4256   1.426   5.592   2.368 -0.5820  0.5461  0.4460
 1417TIP3    H1 4257   1.361   5.596   2.297  0.4687 -1.2023 -0.7147
 1417TIP3    H2 4258   1.509   5.607   2.324  0.1817 -1.4167  1.0907
 1418TIP3   OH2 4259   6.250   0.878   0.106 -0.1271 -0.4335 -0.1861
 1418TIP3    H1 4260   6.277   0.840   0.189  0.1576 -0.0887 -0.1185
 1418TIP3    H2 4261   6.247   0.972   0.122 -1.7685 -0.4709 -0.0709
 1419TIP3   OH2 4262   0.738   3.752   2.230  0.4037 -0.7518 -0.8747
 1419TIP3    H1 4263   0.783   3.808   2.293  0.7331 -0.7256 -1.1333
 1419TIP3    H2 4264   0.762   3.787   2.144 -1.7023  0.5197 -1.0237
 1420TIP3   OH2 4265   1.424   0.086   2.910  0.0413  0.2035 -0.4542
 1420TIP3    H1 4266   1.428  -0.007   2.930 -1.0254  0.5876  1.8150
 1420TIP3    H2 4267   1.434   0.090   2.815 -1.5856 -2.3269 -0.8260
 1421TIP3   OH2 4268   3.385   3.531   4.570 -0.7518  0.3166  0.7360
 1421TIP3    H1 4269   3.467   3.507   4.613  0.1071 -0.9998 -1.4693
 1421TIP3    H2 4270   3.386   3.482   4.488 -2.7235  1.9756 -0.3642
 1422TIP3   OH2 4271   0.387   3.019   3.580 -0.2300 -0.7401  0.4486
 1422TIP3    H1 4272   0.438   2.979   3.509 -1.7273 -2.6931  0.4051
 1422TIP3    H2 4273   0.312   3.059   3.536 -0.3478 -0.5662  0.8077
 1423TIP3   OH2 4274   3.006   4.768   2.874 -0.1786  0.5563  0.3503
 1423TIP3    H1 4275   3.090   4.741   2.912 -1.3877  1.0464  3.7148
 1423TIP3    H2 4276   2.967   4.687   2.843  1.3068  0.2617 -0.8744
 1424TIP3   OH2 4277   3.094   4.848   3.447  0.2320  0.4313 -0.4318
 1424TIP3    H1 4278   3.141   4.908   3.505  0.7306  0.2533 -0.6465
 1424TIP3    H2 4279   3.117   4.760   3.479 -1.4712  0.3318  0.6677
 1425TIP3   OH2 4280   1.645   1.148   4.451  0.2834 -0.2266 -0.4940
 1425TIP3    H1 4281   1.618   1.239   4.463  1.7910  0.0434  1.3254
 1425TIP3    H2 4282   1.603   1.101   4.524 -0.3954 -0.9958 -1.3559
 1426TIP3   OH2 4283   5.516   3.031   3.894  0.0262 -0.0939 -0.2663
 1426TIP3    H1 4284   5.429   3.041   3.856 -0.1399 -0.1706  0.0895
 1426TIP3    H2 4285   5.514   2.945   3.936  1.1903 -1.3604 -2.6341
 1427TIP3   OH2 4286   0.298   4.683   3.144 -0.1952 -0.5234 -0.3692
 1427TIP3    H1 4287   0.369   4.726   3.192  0.2624 -1.0289 -0.5842
 1427TIP3    H2 4288   0.219   4.702   3.195  0.2219 -0.6980  0.3517
 1428TIP3   OH2 4289   0.190   2.154   4.722  0.4410 -0.0944  0.0860
 1428TIP3    H1 4290   0.280   2.141   4.694  0.8249 -0.7428  1.5002
 1428TIP3    H2 4291   0.195   2.225   4.786  0.0392 -0.4313  0.5024
 1429TIP3   OH2 4292   0.008   5.410   0.345  0.0235  0.6238  0.2695
 1429TIP3    H1 4293   0.041   5.498   0.327  3.1658 -0.5029 -0.1295
 1429TIP3    H2 4294   0.004   5.406   0.441  0.1724  1.1170  0.3010
 1430TIP3   OH2 4295   0.108   4.484   0.899 -0.1124  0.2141  0.7664
 1430TIP3    H1 4296   0.138   4.466   0.810 -1.2753  1.6473  0.0219
 1430TIP3    H2 4297   0.163   4.431   0.955  0.5475 -0.8440 -0.8277
 1431TIP3   OH2 4298   3.528   5.048   1.969 -0.6296 -0.0506 -0.1101
 1431TIP3    H1 4299   3.457   4.989   1.995 -0.8754 -0.1462 -0.9860
 1431TIP3    H2 4300   3.563   5.080   2.052 -0.5550 -1.3444  0.3794
 1432TIP3   OH2 4301   5.286   2.771   0.504 -0.0745  0.0940 -0.2733
 1432TIP3    H1 4302   5.371   2.786   0.545 -0.0623  0.3305 -0.3815
 1432TIP3    H2 4303   5.285   2.678   0.482 -1.4618 -0.9190  3.3774
 1433TIP3   OH2 4304   1.469   5.564   3.903  0.1758 -0.0375  0.3823
 1433TIP3    H1 4305   1.479   5.525   3.816  1.0331 -0.3194  0.5975
 1433TIP3    H2 4306   1.557   5.564   3.939 -0.2163 -0.2104  1.3759
 1434TIP3   OH2 4307   3.277   2.433   2.841  0.3899  0.5994 -0.4505
 1434TIP3    H1 4308   3.284   2.338   2.834 -0.2092  0.5828 -0.9056
 1434TIP3    H2 4309   3.343   2.457   2.906  1.0708 -0.0446 -0.8875
 1435TIP3   OH2 4310   2.628   2.995   0.558  0.4729  0.0865 -0.7750
 1435TIP3    H1 4311   2.633   3.044   0.475 -0.0318  1.1073 -0.2329
 1435TIP3    H2 4312   2.537   3.006   0.585  0.6177 -0.3106 -0.1296
 1436TIP3   OH2 4313   3.057   2.377   4.688  0.3315 -0.1170  0.1932
 1436TIP3    H1 4314   3.086   2.419   4.607 -0.5132  0.0030 -0.0512
 1436TIP3    H2 4315   2.971   2.414   4.706  0.9826  0.7359  1.7933
 1437TIP3   OH2 4316   5.981   2.306   0.960  0.9158 -0.2656  0.0059
 1437TIP3    H1 4317   5.917   2.249   0.916  0.0669 -0.4222  1.3835
 1437TIP3    H2 4318   6.044   2.329   0.891  0.7051 -2.0260 -0.8341
 1438TIP3   OH2 4319   3.251   2.975   2.332  0.0449  0.6615 -0.3266
 1438TIP3    H1 4320   3.206   2.892   2.318  3.6771 -1.8600  1.6319
 1438TIP3    H2 4321   3.289   2.996   2.246  1.8659 -1.5922 -0.1553
 1439TIP3   OH2 4322   6.089   3.433   1.537  0.1334  0.0102  0.6732
 1439TIP3    H1 4323   6.120   3.500   1.598  1.7677 -2.1103  2.3588
 1439TIP3    H2 4324   6.168   3.401   1.495 -0.9363  1.1787 -2.4686
 1440TIP3   OH2 4325   0.827   2.993   2.102 -0.0883 -0.0336  0.4658
 1440TIP3    H1 4326   0.872   2.974   2.185 -0.1881  2.1923  1.1003
 1440TIP3    H2 4327   0.879   3.063   2.063 -2.6074  2.2621  0.9504
 1441TIP3   OH2 4328   1.487   1.164   3.834 -0.0267 -0.4110  0.0284
 1441TIP3    H1 4329   1.482   1.084   3.782 -0.4350 -0.3411 -0.0397
 1441TIP3    H2 4330   1.410   1.214   3.810  0.2736  0.0489  0.0038
 1442TIP3   OH2 4331   3.941   3.161   2.868 -0.2195 -0.1566  0.1431
 1442TIP3    H1 4332   3.893   3.227   2.818 -1.5631 -0.3053  1.1716
 1442TIP3    H2 4333   3.922   3.079   2.824  1.1164  0.0605 -0.8921
 1443TIP3   OH2 4334   5.037   3.082   1.885  0.0559  0.3186 -0.2160
 1443TIP3    H1 4335   5.073   3.150   1.827  1.9294  1.6649  2.3208
 1443TIP3    H2 4336   4.944   3.101   1.890 -0.4003 -0.4601 -3.4506
 1444TIP3   OH2 4337   2.104   5.595   0.891  0.4472  0.1400  0.1416
 1444TIP3    H1 4338   2.152   5.513   0.882  1.2659  0.5664  0.4736
 1444TIP3    H2 4339   2.104   5.633   0.802  1.0024  0.2806  0.1976
 1445TIP3   OH2 4340   5.354   3.282   4.936 -0.5053  0.4535  0.0629
 1445TIP3    H1 4341   5.320   3.365   4.972 -1.1356 -0.2912  1.2751
 1445TIP3    H2 4342   5.425   3.257   4.996 -0.3095  0.1236 -0.3025
 1446TIP3   OH2 4343   6.029   5.047   3.608 -0.2154 -0.2493 -0.4183
 1446TIP3    H1 4344   6.113   5.070   3.568 -0.5702  1.9514 -0.0175
 1446TIP3    H2 4345   6.051   5.020   3.697  0.0828  0.1980 -0.3531
 1447TIP3   OH2 4346   0.943   3.375   1.301 -0.1113  0.6224  0.1675
 1447TIP3    H1 4347   0.874   3.440   1.288 -0.5111 -0.0034 -0.9212
 1447TIP3    H2 4348   0.922   3.305   1.240  1.1471  0.1367  0.2640
 1448TIP3   OH2 4349   1.846   2.243   5.014  0.3180 -0.3073 -0.0545
 1448TIP3    H1 4350   1.859   2.324   5.063 -0.9729  0.3228 -0.7029
 1448TIP3    H2 4351   1.894   2.177   5.064  0.7716  0.7057  0.8972
 1449TIP3   OH2 4352   0.163   3.085   1.665 -0.2529  0.3254 -0.0169
 1449TIP3    H1 4353   0.210   3.167   1.650  0.5935 -0.1710 -0.2321
 1449TIP3    H2 4354   0.071   3.106   1.650  0.1053  0.8703 -1.7455
 1450TIP3   OH2 4355   4.823   4.615   4.115 -0.2948 -0.3247 -0.2832
 1450TIP3    H1 4356   4.792   4.603   4.025  2.4094 -0.5064 -1.3069
 1450TIP3    H2 4357   4.751   4.658   4.160 -1.4276  0.5794 -2.7761
 1451TIP3   OH2 4358   6.183   3.616   1.733 -0.1245 -0.1102 -0.3620
 1451TIP3    H1 4359   6.175   3.609   1.828 -2.3162 -4.2206 -0.6462
 1451TIP3    H2 4360   6.273   3.587   1.714  0.2437  0.5017  0.4005
 1452TIP3   OH2 4361   4.673   0.491   1.524  0.8280  0.5591 -0.0255
 1452TIP3    H1 4362   4.643   0.425   1.462  0.8656 -1.2455  1.7928
 1452TIP3    H2 4363   4.628   0.571   1.496 -1.4305 -0.8338 -0.6630
 1453TIP3   OH2 4364   3.169   0.887   0.436  0.0704  0.2162 -0.6160
 1453TIP3    H1 4365   3.206   0.925   0.516 -1.8773  1.1524 -0.1159
 1453TIP3    H2 4366   3.214   0.802   0.427 -1.4316 -1.1345  2.9201
 1454TIP3   OH2 4367   6.290   2.195   0.710 -0.8114 -0.0685  0.2276
 1454TIP3    H1 4368   6.242   2.118   0.677  0.0115  0.3565 -2.1631
 1454TIP3    H2 4369   6.355   2.159   0.769 -1.0427 -1.1434 -0.1450
 1455TIP3   OH2 4370   1.732   4.027   4.020 -0.0400 -0.3734 -0.0515
 1455TIP3    H1 4371   1.645   4.042   3.984  0.4428  0.9923 -0.7260
 1455TIP3    H2 4372   1.748   3.933   4.005 -1.8653 -0.9445  1.2397
 1456TIP3   OH2 4373   3.830   4.543   3.234 -0.1480  0.0827  0.6739
 1456TIP3    H1 4374   3.756   4.488   3.211 -0.8724  1.7062 -1.2165
 1456TIP3    H2 4375   3.906   4.486   3.229 -0.8986 -0.8161 -0.9206
 1457TIP3   OH2 4376   2.082   5.774   3.798 -0.4128  0.0580  0.2399
 1457TIP3    H1 4377   2.064   5.714   3.871 -0.6518  0.7009  0.7184
 1457TIP3    H2 4378   2.015   5.753   3.734 -0.9828  0.3314  0.7325
 1458TIP3   OH2 4379   5.581   0.078   0.098 -0.6999  0.3561  0.0775
 1458TIP3    H1 4380   5.549   0.024   0.026 -0.3229 -1.1964  1.0320
 1458TIP3    H2 4381   5.544   0.038   0.177  0.5141  0.7938  0.9045
 1459TIP3   OH2 4382   3.146   2.497   4.469  0.0348  0.5686  0.4286
 1459TIP3    H1 4383   3.092   2.524   4.395  0.2512 -2.1428 -0.8547
 1459TIP3    H2 4384   3.236   2.498   4.435  0.1942 -0.1782  0.8018
 1460TIP3   OH2 4385   0.353   4.188   2.052 -0.2981 -0.1830  0.3908
 1460TIP3    H1 4386   0.258   4.186   2.057 -0.3740 -2.4092 -0.9283
 1460TIP3    H2 4387   0.373   4.271   2.008 -1.7851 -0.7434 -1.4682
 1461TIP3   OH2 4388   6.156   4.560   0.107 -0.6966 -0.0974  0.0904
 1461TIP3    H1 4389   6.213   4.604   0.045 -0.9777  0.2663  0.0850
 1461TIP3    H2 4390   6.186   4.589   0.193  1.2243 -2.3975  0.3086
 1462TIP3   OH2 4391   6.098   2.431   3.287  0.1317 -0.2826  0.2493
 1462TIP3    H1 4392   6.045   2.463   3.213 -0.2762 -0.1681  0.5868
 1462TIP3    H2 4393   6.184   2.414   3.249  0.9673  3.0347  0.3899
 1463TIP3   OH2 4394   0.129   0.422   0.103  0.2913  0.0609  0.4606
 1463TIP3    H1 4395   0.053   0.410   0.045 -0.2245 -1.3242  1.3767
 1463TIP3    H2 4396   0.182   0.488   0.059 -0.2756 -0.6494 -1.4007
 1464TIP3   OH2 4397   3.580   0.467   2.457  0.0117  0.1218 -0.1303
 1464TIP3    H1 4398   3.591   0.471   2.362  0.6767 -2.2466 -0.2180
 1464TIP3    H2 4399   3.490   0.438   2.469  0.0840 -0.0689 -0.0505
 1465TIP3   OH2 4400   4.575   3.842   1.664  0.5466 -0.1544  0.2923
 1465TIP3    H1 4401   4.570   3.932   1.695  1.8079  0.4126 -1.0204
 1465TIP3    H2 4402   4.633   3.846   1.587 -0.5408 -1.8385 -0.6954
 1466TIP3   OH2 4403   2.397   0.245   4.531 -0.1990 -0.1022 -0.3190
 1466TIP3    H1 4404   2.317   0.296   4.543  0.1085  0.0302  1.3119
 1466TIP3    H2 4405   2.467   0.311   4.530 -0.0283 -0.2849 -0.9615
 1467TIP3   OH2 4406   0.537   4.817   0.612 -0.2533  0.1003 -0.8320
 1467TIP3    H1 4407   0.517   4.847   0.701  0.0823 -1.2918 -0.2641
 1467TIP3    H2 4408   0.591   4.886   0.574  0.0774  0.4452  0.2526
 1468TIP3   OH2 4409   2.932   4.105   3.752 -0.4144 -0.2556 -0.2139
 1468TIP3    H1 4410   2.884   4.049   3.691 -0.3211 -0.9938  0.3671
 1468TIP3    H2 4411   2.894   4.084   3.838  0.4906 -0.3779  0.1715
 1469TIP3   OH2 4412   4.274   4.036   0.729 -0.4695 -0.1384  0.0897
 1469TIP3    H1 4413   4.223   3.961   0.757 -0.3942  0.6598  2.5826
 1469TIP3    H2 4414   4.243   4.055   0.640 -2.6342 -1.2504  0.5586
 1470TIP3   OH2 4415   0.722   4.253   1.936 -0.2925 -0.2786  0.4778
 1470TIP3    H1 4416   0.638   4.290   1.908  0.5917  1.4883  0.0478
 1470TIP3    H2 4417   0.702   4.210   2.019 -1.4862  0.7430  0.7490
 1471TIP3   OH2 4418   4.857   5.039   0.198  0.1753  0.4448 -0.3820
 1471TIP3    H1 4419   4.928   5.101   0.218 -1.0015  1.7655 -0.1366
 1471TIP3    H2 4420   4.778   5.093   0.195 -1.2476 -1.3308  1.9511
 1472TIP3   OH2 4421   2.042   3.872   4.793  0.1400 -0.5718  0.5094
 1472TIP3    H1 4422   2.049   3.886   4.699 -0.9700  0.6334  0.5848
 1472TIP3    H2 4423   2.112   3.925   4.831  1.2738 -1.8882  0.3337
 1473TIP3   OH2 4424   5.140   2.053   1.289 -0.4766 -0.1998 -0.0043
 1473TIP3    H1 4425   5.087   2.132   1.278 -0.8543 -0.4683 -0.1424
 1473TIP3    H2 4426   5.213   2.080   1.344  0.7746  0.8871 -2.0479
 1474TIP3   OH2 4427   0.579   2.587   0.975  0.2794 -0.0757  0.2155
 1474TIP3    H1 4428   0.538   2.673   0.967  1.7306  0.5573 -0.9957
 1474TIP3    H2 4429   0.609   2.583   1.066  1.6600  1.4528 -0.1145
 1475TIP3   OH2 4430   5.984   1.460   0.986 -0.1133  0.0993  0.6561
 1475TIP3    H1 4431   5.897   1.429   0.959 -1.0826  2.1165  1.2619
 1475TIP3    H2 4432   6.045   1.417   0.926 -1.5811 -0.8816 -0.1807
 1476TIP3   OH2 4433   1.291   4.566   1.993  0.2305  0.0373 -0.1702
 1476TIP3    H1 4434   1.222   4.541   2.054  0.2739  1.0681  0.3260
 1476TIP3    H2 4435   1.300   4.491   1.934 -1.9631  0.2463 -0.8507
 1477TIP3   OH2 4436   1.356   4.580   3.775  0.0548 -0.1384  0.2344
 1477TIP3    H1 4437   1.362   4.654   3.836  0.0382  0.4604 -0.4681
 1477TIP3    H2 4438   1.411   4.512   3.814  1.7128  0.9669 -0.0714
 1478TIP3   OH2 4439   3.083   1.028   5.048  0.4686  0.3045  0.3930
 1478TIP3    H1 4440   3.083   1.011   4.954 -0.6113  2.2873 -0.0274
 1478TIP3    H2 4441   3.173   1.058   5.067  0.0397  2.4176 -0.5966
 1479TIP3   OH2 4442   4.182   5.659   0.887  0.2370 -0.5028 -0.1776
 1479TIP3    H1 4443   4.265   5.671   0.842  0.2781 -0.3074 -0.0496
 1479TIP3    H2 4444   4.188   5.714   0.965  1.0792 -2.5340  1.2948
 1480TIP3   OH2 4445   6.002   5.457   1.092 -0.2139  0.0056  0.6984
 1480TIP3    H1 4446   5.999   5.481   1.185  0.6408 -0.1161  0.7656
 1480TIP3    H2 4447   6.067   5.517   1.054 -0.3435 -0.1400  0.2385
 1481TIP3   OH2 4448   1.621   1.084   3.015  0.0299  0.0536  0.0539
 1481TIP3    H1 4449   1.586   1.068   2.928 -2.2949 -0.0483  0.9397
 1481TIP3    H2 4450   1.623   0.998   3.057  2.9897 -0.2367 -0.4425
 1482TIP3   OH2 4451   5.415   4.522   3.506 -0.2247  0.0167  0.4440
 1482TIP3    H1 4452   5.345   4.584   3.524 -0.0556  0.0929  0.8400
 1482TIP3    H2 4453   5.376   4.436   3.523  0.2267  0.1256  2.2125
 1483TIP3   OH2 4454   3.117   2.802   4.350 -0.4470  0.4804  0.0306
 1483TIP3    H1 4455   3.090   2.806   4.442  0.6903 -0.7170  0.4450
 1483TIP3    H2 4456   3.205   2.765   4.353 -0.9351 -0.9062 -1.6386
 1484TIP3   OH2 4457   0.845   5.804   4.471  0.3468  0.4100  0.0422
 1484TIP3    H1 4458   0.897   5.869   4.424  0.8200 -0.3534 -0.5166
 1484TIP3    H2 4459   0.876   5.720   4.437 -0.6536 -0.0889  0.3380
 1485TIP3   OH2 4460   1.694   1.289   3.430 -0.1764 -0.7245  0.3998
 1485TIP3    H1 4461   1.602   1.281   3.407  0.1148 -2.3255 -0.3992
 1485TIP3    H2 4462   1.737   1.316   3.348  0.2787 -1.7709  0.2803
 1486TIP3   OH2 4463   1.248   0.211   0.264 -0.3198 -0.1444 -0.2426
 1486TIP3    H1 4464   1.247   0.305   0.279 -0.7688  0.2896 -2.6212
 1486TIP3    H2 4465   1.340   0.186   0.273 -0.3826  0.2093  1.8225
 1487TIP3   OH2 4466   1.126   0.759   2.774  0.2257 -0.6238 -0.7285
 1487TIP3    H1 4467   1.189   0.806   2.829 -0.0494 -0.7988 -0.2552
 1487TIP3    H2 4468   1.124   0.671   2.812 -0.8522 -0.4205 -0.2774
 1488TIP3   OH2 4469   3.745   2.112   3.622  0.1321  0.2563 -0.0547
 1488TIP3    H1 4470   3.727   2.020   3.642 -0.2916  0.5783  1.0862
 1488TIP3    H2 4471   3.832   2.111   3.581 -0.9374 -0.9390 -2.5190
 1489TIP3   OH2 4472   3.476   4.396   2.657  0.3413 -0.2213 -0.1838
 1489TIP3    H1 4473   3.397   4.418   2.707  0.9285  0.4272  0.4730
 1489TIP3    H2 4474   3.466   4.302   2.639 -1.0576  0.0506 -0.9826
 1490TIP3   OH2 4475   2.004   3.905   1.936 -0.1040 -0.4384  0.0692
 1490TIP3    H1 4476   2.012   3.965   2.010 -0.9025  1.1089 -1.0375
 1490TIP3    H2 4477   2.091   3.905   1.895  1.1076 -3.2153  2.3000
 1491TIP3   OH2 4478   3.951   0.525   3.680 -0.8059 -0.5469  0.9889
 1491TIP3    H1 4479   3.934   0.444   3.631 -1.3917 -0.3497  0.8559
 1491TIP3    H2 4480   3.874   0.579   3.663 -0.7714 -0.2688  1.7158
 1492TIP3   OH2 4481   4.718   5.977   2.734  0.2127 -0.0388  0.0675
 1492TIP3    H1 4482   4.754   5.913   2.674 -1.1748 -0.8277  0.0405
 1492TIP3    H2 4483   4.624   5.963   2.731  0.0788 -0.1461  2.4533
 1493TIP3   OH2 4484   1.156   4.063   4.547  0.0795 -0.4000 -0.1384
 1493TIP3    H1 4485   1.107   4.016   4.479 -0.6823  0.7248 -0.3961
 1493TIP3    H2 4486   1.142   4.011   4.626 -0.5294 -0.7570 -0.4667
 1494TIP3   OH2 4487   1.613   3.531   2.031 -0.4173 -0.1927 -0.0783
 1494TIP3    H1 4488   1.635   3.480   1.953 -2.6249 -2.1329  0.4288
 1494TIP3    H2 4489   1.557   3.602   1.998 -1.2487 -0.9389 -0.3281
 1495TIP3   OH2 4490   1.558   1.062   0.718 -0.6665 -0.0346 -0.4589
 1495TIP3    H1 4491   1.564   1.113   0.798 -1.9661 -0.7767  0.1494
 1495TIP3    H2 4492   1.491   1.106   0.666 -0.0622  0.2548 -1.0081
 1496TIP3   OH2 4493   1.692   2.444   3.129 -0.1651 -0.0908  0.5109
 1496TIP3    H1 4494   1.761   2.442   3.195 -0.1695 -0.7797  0.4970
 1496TIP3    H2 4495   1.636   2.517   3.155 -1.2469 -1.5113  2.3934
 1497TIP3   OH2 4496   0.493   1.981   2.214 -0.2882 -0.0074  0.1572
 1497TIP3    H1 4497   0.581   2.019   2.220 -0.0801 -0.1563 -1.4834
 1497TIP3    H2 4498   0.454   2.022   2.137 -0.9608 -1.2935 -0.2182
 1498TIP3   OH2 4499   5.812   1.547   3.644 -0.2823  0.5258 -0.3874
 1498TIP3    H1 4500   5.806   1.505   3.558  0.9344 -0.0726 -0.1985
 1498TIP3    H2 4501   5.724   1.535   3.682 -0.2092 -1.1909 -0.6657
 1499TIP3   OH2 4502   5.608   5.925   1.019 -0.1434 -0.2259 -0.2199
 1499TIP3    H1 4503   5.643   5.883   0.941  1.2032 -0.3007  0.3945
 1499TIP3    H2 4504   5.667   5.998   1.035 -0.9797  0.3845  0.1842
 1500TIP3   OH2 4505   3.822   4.337   2.105  0.5209  0.0659 -0.2574
 1500TIP3    H1 4506   3.775   4.420   2.097 -0.2807  0.1442  3.3185
 1500TIP3    H2 4507   3.784   4.281   2.038 -0.4714  1.9211 -1.3274
 1501TIP3   OH2 4508   0.898   4.567   3.631  0.3497 -0.5162  0.3124
 1501TIP3    H1 4509   0.904   4.564   3.727  0.9926 -1.9629  0.2536
 1501TIP3    H2 4510   0.960   4.634   3.605  1.4731 -1.3156  0.8413
 1502TIP3   OH2 4511   6.047   0.712   2.910 -0.3186 -0.1123  0.4655
 1502TIP3    H1 4512   5.977   0.736   2.969 -0.1109  0.9329  0.2975
 1502TIP3    H2 4513   6.011   0.640   2.858 -0.6003 -0.8380  1.6429
 1503TIP3   OH2 4514   5.674   2.190   4.608  0.9300 -0.0096 -0.4837
 1503TIP3    H1 4515   5.705   2.262   4.551  0.5542  1.5083  1.1483
 1503TIP3    H2 4516   5.754   2.146   4.635  1.1576 -0.3611 -1.6499
 1504TIP3   OH2 4517   4.033   1.691   3.615  0.2483  0.5101 -0.0081
 1504TIP3    H1 4518   4.080   1.758   3.665  2.5299 -0.7765 -0.3317
 1504TIP3    H2 4519   4.050   1.713   3.524 -1.0347  0.8392 -0.1922
 1505TIP3   OH2 4520   4.055   4.980   2.529  0.0476 -0.8815  0.2331
 1505TIP3    H1 4521   4.054   4.970   2.434  2.3175  0.8387 -0.0557
 1505TIP3    H2 4522   4.103   4.904   2.561  3.1641  0.6162 -0.4932
 1506TIP3   OH2 4523   4.872   1.629   3.160 -0.3260 -0.9450 -0.4966
 1506TIP3    H1 4524   4.900   1.656   3.247 -2.4415  3.0674 -0.8232
 1506TIP3    H2 4525   4.788   1.585   3.174 -1.0642  0.4171 -0.4872
 1507TIP3   OH2 4526   2.942   4.469   0.460  0.2871  0.0434 -0.0151
 1507TIP3    H1 4527   2.997   4.508   0.528  1.7980 -0.4905 -0.9006
 1507TIP3    H2 4528   2.936   4.376   0.485 -0.8580  0.2215  0.4682
 1508TIP3   OH2 4529   2.744   1.211   2.380 -0.0991  0.0481 -0.0422
 1508TIP3    H1 4530   2.702   1.129   2.406 -1.3085  1.1392  1.5840
 1508TIP3    H2 4531   2.787   1.243   2.459  0.6147  0.8615 -0.7284
 1509TIP3   OH2 4532   4.679   4.608   3.881  0.2752 -0.1485 -0.5560
 1509TIP3    H1 4533   4.607   4.558   3.919  1.9543 -1.7307  0.7336
 1509TIP3    H2 4534   4.655   4.621   3.790 -1.0585 -1.7598 -0.4649
 1510TIP3   OH2 4535   1.827   3.517   4.460  0.5417  0.3744 -0.2236
 1510TIP3    H1 4536   1.876   3.567   4.525 -1.5311  1.5141  0.5735
 1510TIP3    H2 4537   1.810   3.581   4.390 -1.8532  0.7801  0.6503
 1511TIP3   OH2 4538   2.913   3.461   5.023  0.0801 -0.2300 -0.1984
 1511TIP3    H1 4539   2.839   3.513   4.993 -0.0984  1.8623  3.3184
 1511TIP3    H2 4540   2.973   3.525   5.062  1.3582 -2.3450  1.5214
 1512TIP3   OH2 4541   5.077   0.396   1.085 -0.0687 -0.5598  0.7273
 1512TIP3    H1 4542   4.989   0.434   1.081 -0.4911 -1.3811  1.7776
 1512TIP3    H2 4543   5.132   0.457   1.035 -1.2739 -0.1781 -0.1704
 1513TIP3   OH2 4544   2.097   2.950   2.155  0.2225 -0.4420 -0.1344
 1513TIP3    H1 4545   2.138   3.033   2.128 -0.6540  0.5007  1.2824
 1513TIP3    H2 4546   2.047   2.973   2.234 -0.3103 -2.2656  0.0978
 1514TIP3   OH2 4547   5.720   5.791   2.972 -0.1234  0.2264 -0.2566
 1514TIP3    H1 4548   5.805   5.747   2.974 -0.0552  0.3320 -0.6972
 1514TIP3    H2 4549   5.679   5.768   3.055  0.5717  0.6345  0.2102
 1515TIP3   OH2 4550   0.533   0.386   4.363  0.4786  0.0022 -0.0414
 1515TIP3    H1 4551   0.581   0.315   4.321  0.3862 -0.8767  1.2814
 1515TIP3    H2 4552   0.504   0.349   4.446  0.1806  1.5014  0.5485
 1516TIP3   OH2 4553   3.235   5.738   0.200 -0.0837 -0.1368 -0.4670
 1516TIP3    H1 4554   3.330   5.736   0.212  0.1802 -2.2623 -2.2688
 1516TIP3    H2 4555   3.201   5.673   0.262 -0.1643 -0.6236 -1.0108
 1517TIP3   OH2 4556   3.703   0.103   1.017 -0.1997 -0.0087  0.6282
 1517TIP3    H1 4557   3.724   0.021   1.062 -1.4881 -0.2778  0.7928
 1517TIP3    H2 4558   3.689   0.166   1.088  0.8063  0.3687  0.5008
 1518TIP3   OH2 4559   0.250   0.310   0.563  0.4317 -0.3195  0.1349
 1518TIP3    H1 4560   0.170   0.358   0.585 -0.6554 -1.2543 -1.6121
 1518TIP3    H2 4561   0.321   0.364   0.599 -0.8371  1.6642 -0.2156
 1519TIP3   OH2 4562   5.277   0.696   1.320 -0.5736 -0.1922  0.0811
 1519TIP3    H1 4563   5.302   0.789   1.319 -0.6129 -0.1788  0.3238
 1519TIP3    H2 4564   5.223   0.687   1.398  0.2547 -0.6290  0.6188
 1520TIP3   OH2 4565   3.483   5.566   1.557 -0.0082  0.3191  0.3937
 1520TIP3    H1 4566   3.573   5.548   1.582  0.4823  0.5159 -1.1330
 1520TIP3    H2 4567   3.490   5.623   1.480 -1.3276 -2.3955 -1.9185
 1521TIP3   OH2 4568   1.318   0.668   4.479  0.1049 -0.0429 -0.3935
 1521TIP3    H1 4569   1.314   0.663   4.384 -3.3125 -0.9566 -0.3472
 1521TIP3    H2 4570   1.243   0.722   4.504 -0.7234 -1.9957  1.8033
 1522TIP3   OH2 4571   5.822   4.059   1.913 -0.0331 -0.2170 -0.1367
 1522TIP3    H1 4572   5.803   3.965   1.915  0.0398 -0.2265  0.6122
 1522TIP3    H2 4573   5.771   4.095   1.986  1.1066  0.0772  0.5420
 1523TIP3   OH2 4574   3.777   1.552   0.725 -0.0690  0.0068 -0.4390
 1523TIP3    H1 4575   3.744   1.576   0.812  1.4118  1.5788 -0.2560
 1523TIP3    H2 4576   3.705   1.504   0.685 -1.0548 -0.1572  1.3964
 1524TIP3   OH2 4577   0.647   2.657   1.262 -0.2911 -0.3407 -0.3801
 1524TIP3    H1 4578   0.736   2.692   1.263 -0.2335 -0.4432  1.3335
 1524TIP3    H2 4579   0.643   2.601   1.340 -1.8788 -0.2579 -0.3833
 1525TIP3   OH2 4580   1.197   3.205   2.148  0.3445 -0.3570 -0.4057
 1525TIP3    H1 4581   1.189   3.300   2.152 -1.6910 -0.4631 -0.9095
 1525TIP3    H2 4582   1.173   3.175   2.235 -1.1803 -0.4865 -0.8430
 1526TIP3   OH2 4583   2.178   0.828   1.980  0.1316  0.1420  0.5551
 1526TIP3    H1 4584   2.115   0.887   1.937  0.4020  1.2772  1.6435
 1526TIP3    H2 4585   2.249   0.886   2.009  2.0051 -1.1847 -1.1486
 1527TIP3   OH2 4586   1.297   1.414   0.337  0.3018  0.0094  0.3617
 1527TIP3    H1 4587   1.378   1.399   0.290  0.7294  0.5938  0.8920
 1527TIP3    H2 4588   1.318   1.398   0.428 -0.1628  0.2020  0.5096
 1528TIP3   OH2 4589   5.254   5.277   4.920 -0.1052 -0.4001  0.5914
 1528TIP3    H1 4590   5.259   5.360   4.874 -0.5723 -0.2754  0.7602
 1528TIP3    H2 4591   5.345   5.248   4.928  0.1827  0.7564  1.7526
 1529TIP3   OH2 4592   5.571   0.975   0.577 -0.5008 -0.3090 -0.2932
 1529TIP3    H1 4593   5.613   0.964   0.492 -1.3645  0.1802 -0.7999
 1529TIP3    H2 4594   5.527   0.892   0.593 -0.8318 -0.1946 -0.6063
 1530TIP3   OH2 4595   1.995   3.844   4.511 -0.0197  0.0570  0.4293
 1530TIP3    H1 4596   2.015   3.828   4.419  2.9174  0.2683  0.9362
 1530TIP3    H2 4597   1.910   3.887   4.509 -0.1727 -0.1647 -2.1472
 1531TIP3   OH2 4598   5.362   2.472   4.606 -0.3972 -0.2456  0.1457
 1531TIP3    H1 4599   5.364   2.523   4.686  0.4491  0.0310 -0.0477
 1531TIP3    H2 4600   5.430   2.406   4.616 -1.8192 -1.7086  0.6121
 1532TIP3   OH2 4601   5.771   2.881   1.665  0.1978 -0.4081 -0.1747
 1532TIP3    H1 4602   5.701   2.817   1.675  0.9683 -1.1369  0.9417
 1532TIP3    H2 4603   5.748   2.952   1.726  0.5824 -0.8105  0.4531
 1533TIP3   OH2 4604   2.502   4.165   2.695 -0.4425  0.0394 -0.0531
 1533TIP3    H1 4605   2.471   4.128   2.612  2.0533 -1.3340 -0.4883
 1533TIP3    H2 4606   2.591   4.194   2.676 -0.2006  0.7005  1.9070
 1534TIP3   OH2 4607   2.664   2.839   4.118 -0.3420  0.4390 -0.1888
 1534TIP3    H1 4608   2.733   2.888   4.163 -0.8606  0.7944  0.2384
 1534TIP3    H2 4609   2.634   2.775   4.183  0.6692 -0.8125 -0.9059
 1535TIP3   OH2 4610   4.573   1.426   4.558 -0.1367 -0.2862  0.4003
 1535TIP3    H1 4611   4.546   1.384   4.477  1.3748 -1.7064  0.5732
 1535TIP3    H2 4612   4.648   1.480   4.534 -0.0897 -0.1962  0.7372
 1536TIP3   OH2 4613   4.726   3.099   3.194 -0.7889  0.0771  0.2738
 1536TIP3    H1 4614   4.656   3.147   3.150 -1.6405 -0.3023  1.1949
 1536TIP3    H2 4615   4.691   3.011   3.207  0.2490 -0.4283 -0.1644
 1537TIP3   OH2 4616   2.510   1.199   2.973  0.1960 -0.2915  0.0139
 1537TIP3    H1 4617   2.511   1.266   3.041 -0.7098 -0.4765  0.2307
 1537TIP3    H2 4618   2.586   1.144   2.992 -0.5590 -0.8927  1.4595
 1538TIP3   OH2 4619   6.191   3.697   1.414  0.2452 -0.6828 -0.6312
 1538TIP3    H1 4620   6.236   3.679   1.496 -0.0536 -0.0635 -0.3221
 1538TIP3    H2 4621   6.098   3.690   1.435  0.1715 -0.6910 -0.9548
 1539TIP3   OH2 4622   5.925   2.115   2.244  0.3304 -0.8536 -0.0109
 1539TIP3    H1 4623   5.986   2.065   2.189  3.3557  1.4527  0.9714
 1539TIP3    H2 4624   5.932   2.074   2.331  1.1633 -0.0882  0.2943
 1540TIP3   OH2 4625   2.896   5.555   1.229  0.6021  0.3438  0.4787
 1540TIP3    H1 4626   2.804   5.527   1.231  1.3575 -2.4133  0.2659
 1540TIP3    H2 4627   2.943   5.486   1.275  2.5461  1.9774  1.0671
 1541TIP3   OH2 4628   4.242   5.149   4.485  0.0054  0.2125  0.0363
 1541TIP3    H1 4629   4.294   5.220   4.447 -0.7885  0.8566  0.1159
 1541TIP3    H2 4630   4.275   5.070   4.444  0.7287  0.6606 -0.2589
 1542TIP3   OH2 4631   5.852   3.516   4.612 -0.1927 -0.3791  0.3119
 1542TIP3    H1 4632   5.849   3.445   4.548 -1.1884  0.7116 -0.8826
 1542TIP3    H2 4633   5.918   3.577   4.578  0.0405 -0.2908  0.8921
 1543TIP3   OH2 4634   4.451   5.109   4.073  0.2340  0.4495 -0.1415
 1543TIP3    H1 4635   4.465   5.204   4.081  0.4998  0.2390  3.9993
 1543TIP3    H2 4636   4.358   5.097   4.090  0.6938 -0.1293  2.3087
 1544TIP3   OH2 4637   4.197   5.363   3.734  0.1502 -0.3482  0.4504
 1544TIP3    H1 4638   4.235   5.283   3.697 -3.3974 -1.7653 -0.4985
 1544TIP3    H2 4639   4.171   5.415   3.658  2.0885  1.6875  1.0590
 1545TIP3   OH2 4640   0.223   4.781   2.093  0.3399  0.0538  0.0969
 1545TIP3    H1 4641   0.317   4.769   2.106  0.5835  0.9239 -0.7673
 1545TIP3    H2 4642   0.183   4.709   2.142  1.4583 -0.4420  0.3147
 1546TIP3   OH2 4643   2.121   5.489   3.233  1.1054 -0.2196  0.2376
 1546TIP3    H1 4644   2.172   5.410   3.214  0.6388 -0.2171 -1.1370
 1546TIP3    H2 4645   2.030   5.460   3.230  0.8708  0.6048 -1.6220
 1547TIP3   OH2 4646   5.962   5.447   5.097  0.2681  0.1806  0.0737
 1547TIP3    H1 4647   5.939   5.399   5.018 -0.3167  1.7497 -0.7379
 1547TIP3    H2 4648   5.915   5.400   5.167 -0.3027 -0.4142 -0.6861
 1548TIP3   OH2 4649   1.652   2.633   1.557 -0.4990 -0.4448 -0.2329
 1548TIP3    H1 4650   1.627   2.696   1.625 -1.3440  0.7269 -1.5933
 1548TIP3    H2 4651   1.694   2.562   1.606  0.3415  1.0639  1.3786
 1549TIP3   OH2 4652   2.196   5.210   3.186 -0.4628 -0.2195  0.5279
 1549TIP3    H1 4653   2.227   5.173   3.268 -0.2747 -0.8244  0.1834
 1549TIP3    H2 4654   2.222   5.147   3.119  0.9363  1.0894 -0.2133
 1550TIP3   OH2 4655   1.452   0.475   2.858 -0.1591  0.1408  0.6968
 1550TIP3    H1 4656   1.496   0.545   2.809 -0.6918 -0.3245 -0.4816
 1550TIP3    H2 4657   1.519   0.441   2.917  1.0766 -0.4988 -1.0040
 1551TIP3   OH2 4658   0.254   5.027   3.684 -0.1483 -0.6351  0.1092
 1551TIP3    H1 4659   0.252   5.082   3.762 -0.8182 -0.0914 -0.2786
 1551TIP3    H2 4660   0.272   4.939   3.716 -0.5250 -0.4305  0.8809
 1552TIP3   OH2 4661   3.402   5.726   4.605 -0.2668  0.3571 -0.6320
 1552TIP3    H1 4662   3.316   5.700   4.572 -0.6536  0.7549  0.0528
 1552TIP3    H2 4663   3.389   5.815   4.639  0.1430 -0.0017  0.4920
 1553TIP3   OH2 4664   5.444   0.180   0.775  0.3282  0.2108 -0.0835
 1553TIP3    H1 4665   5.353   0.166   0.800 -0.0552  0.1176 -1.4669
 1553TIP3    H2 4666   5.475   0.094   0.746  1.3907 -0.1448  1.9292
 1554TIP3   OH2 4667   1.527   5.894   0.572 -0.4739 -0.1288 -0.6152
 1554TIP3    H1 4668   1.602   5.931   0.619 -0.1285 -1.1294 -0.3661
 1554TIP3    H2 4669   1.560   5.813   0.534 -1.2259 -0.1937 -1.1610
 1555TIP3   OH2 4670   3.561   4.979   2.343  0.6204  0.6444 -0.3225
 1555TIP3    H1 4671   3.508   4.902   2.324  2.3802 -0.7056 -0.0285
 1555TIP3    H2 4672   3.630   4.978   2.277  0.8765  1.7885 -0.0996
 1556TIP3   OH2 4673   5.839   4.651   0.439 -0.0053 -0.1752  0.1876
 1556TIP3    H1 4674   5.834   4.647   0.535 -0.7412 -0.4210  0.1453
 1556TIP3    H2 4675   5.858   4.743   0.421 -0.6155  0.0360  0.5524
 1557TIP3   OH2 4676   4.557   3.220   0.298  0.0692 -0.5599 -0.1223
 1557TIP3    H1 4677   4.465   3.219   0.271 -0.4773  1.1173  1.4738
 1557TIP3    H2 4678   4.563   3.292   0.360  2.2694 -1.2435  0.5548
 1558TIP3   OH2 4679   2.135   3.277   2.978 -0.3993 -0.1147 -0.4771
 1558TIP3    H1 4680   2.131   3.364   2.938  2.0971  0.6198  0.6776
 1558TIP3    H2 4681   2.125   3.293   3.072 -1.6779 -1.3029 -0.3815
 1559TIP3   OH2 4682   0.661   3.007   2.833  0.3896 -0.1541 -0.1271
 1559TIP3    H1 4683   0.670   2.913   2.822  3.2842 -0.3602  2.5273
 1559TIP3    H2 4684   0.747   3.043   2.811  0.2929  1.4340  1.7287
 1560TIP3   OH2 4685   0.111   3.913   4.739  0.5326  0.0011 -0.3303
 1560TIP3    H1 4686   0.156   3.923   4.822  1.3043 -0.6327 -0.6641
 1560TIP3    H2 4687   0.147   3.833   4.701  0.1982  0.2857 -1.2808
 1561TIP3   OH2 4688   0.978   1.011   4.087 -0.1599 -0.2858  0.3088
 1561TIP3    H1 4689   0.947   1.070   4.018  1.5437  1.2633  0.8069
 1561TIP3    H2 4690   0.935   0.927   4.067 -1.2445  0.6212 -1.4627
 1562TIP3   OH2 4691   0.458   4.117   3.220  0.3121 -0.4373 -0.0004
 1562TIP3    H1 4692   0.423   4.143   3.134  2.0000 -0.5680 -0.7674
 1562TIP3    H2 4693   0.536   4.171   3.231  0.7133 -1.1970  0.9609
 1563TIP3   OH2 4694   2.239   3.113   0.398  0.6689  0.1674  0.4764
 1563TIP3    H1 4695   2.165   3.062   0.429  1.5234 -0.8229  0.9717
 1563TIP3    H2 4696   2.248   3.184   0.461  0.6133 -0.1561  0.8508
 1564TIP3   OH2 4697   5.717   3.915   4.424 -0.3589 -0.0521 -0.1199
 1564TIP3    H1 4698   5.760   3.946   4.504 -2.4581 -1.8758  1.8617
 1564TIP3    H2 4699   5.649   3.980   4.408 -0.1543  0.1359 -0.2353
 1565TIP3   OH2 4700   2.380   3.732   2.263  0.0855  0.1645 -0.0243
 1565TIP3    H1 4701   2.373   3.650   2.311  0.3187  0.7198  1.0060
 1565TIP3    H2 4702   2.350   3.712   2.174 -1.5758 -0.5967  0.6837
 1566TIP3   OH2 4703   0.816   3.991   0.739  0.1396  0.3509  0.0939
 1566TIP3    H1 4704   0.771   4.059   0.788  0.6309  0.7320  0.0282
 1566TIP3    H2 4705   0.908   4.018   0.740  0.3945 -0.4867  0.3625
 1567TIP3   OH2 4706   0.763   5.935   3.399  0.2404  0.3481 -0.4947
 1567TIP3    H1 4707   0.677   5.897   3.379  0.6129 -0.9297  0.2069
 1567TIP3    H2 4708   0.790   5.977   3.317  0.3005 -1.9301 -1.7438
 1568TIP3   OH2 4709   6.051   2.522   1.993 -0.5169  0.0442 -0.3080
 1568TIP3    H1 4710   6.091   2.518   2.080  1.6691 -0.5579 -1.2631
 1568TIP3    H2 4711   6.064   2.612   1.964  0.0295 -0.1009 -0.5370
 1569TIP3   OH2 4712   0.243   3.686   4.661 -0.3115 -0.1153 -0.8058
 1569TIP3    H1 4713   0.231   3.613   4.722  1.8836  2.0216  2.5381
 1569TIP3    H2 4714   0.311   3.657   4.601 -1.4074 -1.7158 -1.3363
 1570TIP3   OH2 4715   1.392   0.156   2.229 -0.0861 -0.6316  0.1006
 1570TIP3    H1 4716   1.469   0.146   2.173  1.2236  2.7727  1.0134
 1570TIP3    H2 4717   1.422   0.125   2.315 -0.3807 -1.0751  0.0440
 1571TIP3   OH2 4718   2.333   5.458   0.635 -0.2913 -0.2866  0.0307
 1571TIP3    H1 4719   2.265   5.393   0.651 -0.3939  0.0148  0.9033
 1571TIP3    H2 4720   2.333   5.471   0.541  0.5521 -2.4370 -0.3202
 1572TIP3   OH2 4721   4.796   4.379   1.554 -0.7395  0.0998  0.2497
 1572TIP3    H1 4722   4.723   4.381   1.492 -0.7391 -1.2884  0.1765
 1572TIP3    H2 4723   4.761   4.418   1.634 -0.8918  1.4346 -0.4456
 1573TIP3   OH2 4724   0.782   0.646   0.188  0.5159 -0.3071 -0.0136
 1573TIP3    H1 4725   0.756   0.632   0.279 -0.4235 -2.3096 -0.5239
 1573TIP3    H2 4726   0.779   0.559   0.149  4.3002 -0.0789 -1.1348
 1574TIP3   OH2 4727   5.587   1.482   1.326 -0.0644  0.0444  0.2858
 1574TIP3    H1 4728   5.638   1.439   1.257  0.4661  0.0627  0.6647
 1574TIP3    H2 4729   5.650   1.539   1.370 -1.0325  2.2641 -1.0526
 1575TIP3   OH2 4730   0.770   3.792   3.356 -0.4198  0.1318 -0.1481
 1575TIP3    H1 4731   0.778   3.882   3.387 -0.1129  0.3352 -0.7963
 1575TIP3    H2 4732   0.700   3.754   3.409 -0.7136  0.8258 -0.0306
 1576TIP3   OH2 4733   4.955   4.165   1.272  0.2894  1.3609  0.2090
 1576TIP3    H1 4734   5.050   4.171   1.276  0.2627  2.3405 -0.3668
 1576TIP3    H2 4735   4.930   4.223   1.200 -0.8941  2.7243  1.6549
 1577TIP3   OH2 4736   2.950   0.984   2.230  0.4881  0.0283  0.2695
 1577TIP3    H1 4737   2.954   1.008   2.322 -0.0510  1.0830  0.0380
 1577TIP3    H2 4738   2.886   0.913   2.225  1.4633 -0.9228  0.8589
 1578TIP3   OH2 4739   6.273   0.674   1.031  0.0954 -0.0327  0.2517
 1578TIP3    H1 4740   6.254   0.630   1.115 -0.6242 -2.3436 -1.0257
 1578TIP3    H2 4741   6.232   0.618   0.965  2.8422  0.3047 -1.8997
 1579TIP3   OH2 4742   4.392   4.425   0.982 -0.5158 -0.1362  0.3603
 1579TIP3    H1 4743   4.459   4.434   0.913  0.2206 -0.1680  1.0565
 1579TIP3    H2 4744   4.331   4.497   0.965  1.4014  1.8868  1.5568
 1580TIP3   OH2 4745   2.720   3.688   0.894  0.1616 -0.2888  0.7242
 1580TIP3    H1 4746   2.709   3.705   0.800  0.0847 -0.1522  0.7590
 1580TIP3    H2 4747   2.813   3.701   0.910 -0.0306  0.9110  0.9208
 1581TIP3   OH2 4748   4.853   4.301   4.957 -0.5226  0.4222 -0.2133
 1581TIP3    H1 4749   4.842   4.389   4.919 -0.4697 -0.5853 -2.8154
 1581TIP3    H2 4750   4.939   4.303   4.999 -0.1676  1.3981 -0.9418
 1582TIP3   OH2 4751   6.138   0.894   4.745  0.1458  0.0634  0.2672
 1582TIP3    H1 4752   6.160   0.821   4.687 -0.0270 -0.1988  0.5297
 1582TIP3    H2 4753   6.105   0.852   4.824  1.0419  0.4005  0.8336
 1583TIP3   OH2 4754   5.843   4.497   1.051  0.0063  0.1625 -0.2105
 1583TIP3    H1 4755   5.889   4.430   1.001 -0.0012 -0.0694  0.0853
 1583TIP3    H2 4756   5.806   4.556   0.985  0.3982  0.1323 -0.4577
 1584TIP3   OH2 4757   1.585   0.540   4.301 -0.1110 -0.2625 -0.2435
 1584TIP3    H1 4758   1.630   0.535   4.385 -0.6999  1.5733  0.2251
 1584TIP3    H2 4759   1.607   0.626   4.266 -1.2688 -0.2989 -1.1460
 1585TIP3   OH2 4760   1.867   2.820   1.777  0.1732  0.5485 -0.3295
 1585TIP3    H1 4761   1.776   2.848   1.790 -0.2936 -0.0652 -1.9836
 1585TIP3    H2 4762   1.875   2.739   1.826 -0.4393  0.1710 -0.8383
 1586TIP3   OH2 4763   3.928   1.795   4.083 -0.3358 -0.0322  0.0552
 1586TIP3    H1 4764   3.951   1.881   4.049 -0.4812  0.8344  2.0321
 1586TIP3    H2 4765   4.003   1.771   4.138 -1.6757  0.3419  2.1369
 1587TIP3   OH2 4766   1.944   5.689   1.088 -0.0012  0.0628 -0.4155
 1587TIP3    H1 4767   1.998   5.654   1.017 -2.0563 -0.5929 -1.7550
 1587TIP3    H2 4768   1.890   5.615   1.116 -0.2572  0.6952  0.8432
 1588TIP3   OH2 4769   2.219   2.216   0.512 -0.1353  0.4495 -0.5027
 1588TIP3    H1 4770   2.155   2.257   0.570 -1.4009 -0.2024 -1.3654
 1588TIP3    H2 4771   2.217   2.123   0.537 -0.7939  0.1406 -1.6267
 1589TIP3   OH2 4772   0.341   0.891   3.992 -0.0359  0.1385  0.2900
 1589TIP3    H1 4773   0.343   0.809   3.943  0.6726 -0.8340  1.8358
 1589TIP3    H2 4774   0.253   0.896   4.027  0.1495 -0.4221  0.8687
 1590TIP3   OH2 4775   2.302   3.665   2.015  0.4842  0.2381  0.0369
 1590TIP3    H1 4776   2.294   3.675   1.920  1.2266  1.9908  0.1245
 1590TIP3    H2 4777   2.238   3.597   2.037 -0.0921  0.1842 -1.6419
 1591TIP3   OH2 4778   3.243   0.141   2.527 -0.3607 -0.6640 -0.0765
 1591TIP3    H1 4779   3.282   0.225   2.505 -1.4299 -0.0319  0.3280
 1591TIP3    H2 4780   3.165   0.164   2.579  0.0553 -1.9459  1.1758
 1592TIP3   OH2 4781   4.493   0.092   4.121  0.2698 -0.8051 -0.5651
 1592TIP3    H1 4782   4.408   0.098   4.164 -0.4256 -0.4912 -1.9222
 1592TIP3    H2 4783   4.495   0.004   4.084  0.5700 -0.8412 -0.4633
 1593TIP3   OH2 4784   2.965   0.140   0.496  0.1255  0.3688 -0.4154
 1593TIP3    H1 4785   2.989   0.184   0.415  1.0928 -3.0784 -2.1856
 1593TIP3    H2 4786   3.049   0.125   0.541 -0.1486  0.1540  0.0328
 1594TIP3   OH2 4787   4.524   1.503   3.791 -0.7022  0.2825 -0.1968
 1594TIP3    H1 4788   4.571   1.531   3.870  0.5140  2.7730 -1.6695
 1594TIP3    H2 4789   4.574   1.428   3.759  1.3910  1.8158 -0.7769
 1595TIP3   OH2 4790   2.165   5.732   1.318 -0.3134 -0.2068  0.5208
 1595TIP3    H1 4791   2.156   5.787   1.395  1.4289  0.2129  0.4781
 1595TIP3    H2 4792   2.076   5.720   1.286 -0.8320  1.8991  1.0140
 1596TIP3   OH2 4793   3.981   3.146   5.129  0.3452 -0.0925 -0.2998
 1596TIP3    H1 4794   4.067   3.186   5.124  0.6094 -0.7962 -1.8113
 1596TIP3    H2 4795   3.969   3.102   5.045 -2.1589  1.3482 -0.8022
 1597TIP3   OH2 4796   4.230   4.893   4.675 -0.1443 -0.2597  0.6161
 1597TIP3    H1 4797   4.178   4.827   4.629 -1.6968  1.7002 -0.5988
 1597TIP3    H2 4798   4.243   4.963   4.612  1.6190  0.5592  1.7973
 1598TIP3   OH2 4799   1.943   4.718   2.868 -0.0653  0.7072 -0.3226
 1598TIP3    H1 4800   1.904   4.631   2.875 -0.7867  1.1047  0.8767
 1598TIP3    H2 4801   1.875   4.772   2.828  0.0814  0.9119 -0.2991
 1599TIP3   OH2 4802   6.004   1.261   2.431  0.0366 -0.7120 -0.2748
 1599TIP3    H1 4803   5.974   1.305   2.511  0.8020  2.0574 -1.3860
 1599TIP3    H2 4804   5.941   1.190   2.417 -1.6301  0.3543  1.3963
 1600TIP3   OH2 4805   5.284   4.607   1.837  0.2390  0.3601  0.0720
 1600TIP3    H1 4806   5.290   4.518   1.802 -0.3733 -0.7897  2.6516
 1600TIP3    H2 4807   5.369   4.646   1.819  1.8510 -2.0049  1.8636
 1601TIP3   OH2 4808   5.830   5.509   3.217  0.4755  0.5661  0.4552
 1601TIP3    H1 4809   5.901   5.574   3.211  2.7007 -1.5727  1.4839
 1601TIP3    H2 4810   5.801   5.497   3.127  3.2591 -0.2715 -0.4428
 1602TIP3   OH2 4811   2.030   3.366   5.119 -0.0545 -0.8299  0.0871
 1602TIP3    H1 4812   2.002   3.423   5.047  1.8758  1.7969  1.2516
 1602TIP3    H2 4813   1.953   3.359   5.175 -0.7832 -0.6454 -0.8587
 1603TIP3   OH2 4814   6.261   3.714   1.140  0.2008  0.4170  0.4315
 1603TIP3    H1 4815   6.269   3.621   1.117  0.6337  0.6059 -0.2015
 1603TIP3    H2 4816   6.256   3.714   1.235  1.6233 -0.1724  0.5373
 1604TIP3   OH2 4817   5.183   2.926   2.514 -0.1392 -0.6000 -0.0443
 1604TIP3    H1 4818   5.167   3.016   2.485 -2.2631 -0.2324  1.9992
 1604TIP3    H2 4819   5.253   2.895   2.457  3.4356  3.5463  1.5567
 1605TIP3   OH2 4820   3.159   4.799   5.031  0.2288 -0.0427 -0.0784
 1605TIP3    H1 4821   3.156   4.893   5.048  1.8208 -0.1857  1.3027
 1605TIP3    H2 4822   3.147   4.791   4.937 -2.1947  1.3408  0.0293
 1606TIP3   OH2 4823   3.119   5.673   1.461 -1.1017 -0.2271  0.5223
 1606TIP3    H1 4824   3.157   5.731   1.526 -0.7224  0.2663 -0.1294
 1606TIP3    H2 4825   3.099   5.730   1.387 -0.3243 -1.0005 -0.2943
 1607TIP3   OH2 4826   3.322   2.983   2.064  0.2143  0.3966 -0.5843
 1607TIP3    H1 4827   3.227   2.996   2.060  0.3250  1.0544 -1.0819
 1607TIP3    H2 4828   3.355   3.021   1.983  0.8376 -0.4498 -0.7399
 1608TIP3   OH2 4829   5.027   5.957   0.401 -0.0945 -0.1297  0.3394
 1608TIP3    H1 4830   5.111   5.971   0.444 -0.4308  0.7349  0.7363
 1608TIP3    H2 4831   4.962   5.985   0.466 -0.7787 -2.0822  0.5894
 1609TIP3   OH2 4832   3.434   0.655   3.038 -0.1760 -0.0602 -0.4032
 1609TIP3    H1 4833   3.385   0.737   3.026  0.4057  0.4177  0.4117
 1609TIP3    H2 4834   3.524   0.683   3.056  0.0079 -0.8801 -0.0126
 1610TIP3   OH2 4835   3.100   1.910   1.621 -1.1153 -0.6369  0.3459
 1610TIP3    H1 4836   3.132   1.933   1.709  0.8774 -1.3749 -0.1349
 1610TIP3    H2 4837   3.065   1.992   1.587 -0.2865  0.0928  1.1811
 1611TIP3   OH2 4838   5.954   4.137   2.205 -1.4237 -0.4190 -0.3436
 1611TIP3    H1 4839   5.867   4.125   2.167 -1.3619  1.5099 -1.1887
 1611TIP3    H2 4840   5.956   4.228   2.234  0.3825 -0.3487 -0.5546
 1612TIP3   OH2 4841   5.425   1.569   2.183 -0.0829  0.2945  0.8778
 1612TIP3    H1 4842   5.451   1.659   2.161 -0.2024 -0.0125 -0.6747
 1612TIP3    H2 4843   5.456   1.517   2.109 -1.4032 -0.7136  0.9919
 1613TIP3   OH2 4844   0.178   1.505   1.054  0.0480  0.5669 -0.2672
 1613TIP3    H1 4845   0.204   1.517   0.963  0.7290  1.1659 -0.0048
 1613TIP3    H2 4846   0.106   1.442   1.051  0.8233 -0.2998 -1.1128
 1614TIP3   OH2 4847   2.757   1.139   3.101 -0.3260  0.2470 -0.3380
 1614TIP3    H1 4848   2.804   1.221   3.114  0.3661 -0.0870 -0.6679
 1614TIP3    H2 4849   2.716   1.120   3.185 -0.0464  0.6591 -0.1098
 1615TIP3   OH2 4850   4.580   1.972   0.291  0.2910 -0.0879  0.0632
 1615TIP3    H1 4851   4.660   1.975   0.239 -0.5585  2.2578 -1.2453
 1615TIP3    H2 4852   4.515   1.934   0.233  0.4897 -2.6222  1.3409
 1616TIP3   OH2 4853   1.558   2.438   3.480 -0.4783  0.0975  0.4433
 1616TIP3    H1 4854   1.531   2.529   3.481  0.5619  0.4148  1.6234
 1616TIP3    H2 4855   1.525   2.404   3.396  1.4383  2.2810 -1.3370
 1617TIP3   OH2 4856   1.358   4.811   4.767  0.1309  0.9053  0.2717
 1617TIP3    H1 4857   1.425   4.842   4.828 -0.1951  1.0166  0.5777
 1617TIP3    H2 4858   1.313   4.742   4.815 -0.2791  1.1519  0.2413
 1618TIP3   OH2 4859   3.231   2.986   0.810  0.6683  0.0472  0.3647
 1618TIP3    H1 4860   3.246   2.892   0.821  1.6721 -0.0394 -1.4549
 1618TIP3    H2 4861   3.286   3.011   0.736 -1.2510  1.6335 -0.6361
 1619TIP3   OH2 4862   1.726   3.464   1.229 -0.2132 -0.4133  0.6622
 1619TIP3    H1 4863   1.683   3.417   1.158  1.4658  0.4035 -0.9802
 1619TIP3    H2 4864   1.676   3.544   1.239  0.2228  0.0211 -0.4676
 1620TIP3   OH2 4865   0.208   5.923   1.352 -0.8189 -0.2597 -0.3142
 1620TIP3    H1 4866   0.181   6.015   1.353 -2.2278 -0.6424 -0.2915
 1620TIP3    H2 4867   0.131   5.876   1.383  0.4005 -1.3499  1.1702
 1621TIP3   OH2 4868   3.595   3.111   2.662 -0.3532 -0.2833  0.0274
 1621TIP3    H1 4869   3.517   3.065   2.631 -0.3946  0.3140 -0.7823
 1621TIP3    H2 4870   3.666   3.048   2.652 -0.1511  0.2590 -2.4387
 1622TIP3   OH2 4871   2.190   0.668   1.639  0.4273  0.0706  0.4267
 1622TIP3    H1 4872   2.129   0.726   1.594 -2.2993 -2.0343  1.1380
 1622TIP3    H2 4873   2.263   0.724   1.664 -1.3632  2.8439 -0.1744
 1623TIP3   OH2 4874   5.751   5.842   3.672  0.0020  0.3515 -0.1319
 1623TIP3    H1 4875   5.696   5.827   3.749  0.9804  0.1536  0.5448
 1623TIP3    H2 4876   5.826   5.893   3.705 -0.8426  2.5969 -1.4577
 1624TIP3   OH2 4877   5.677   5.275   3.971 -0.3099  0.2833  0.3689
 1624TIP3    H1 4878   5.735   5.201   3.948 -0.0557  0.8051 -0.7667
 1624TIP3    H2 4879   5.593   5.234   3.989 -0.4749 -0.2359 -1.3434
 1625TIP3   OH2 4880   2.588   4.611   1.610 -0.1597 -0.1107  0.2964
 1625TIP3    H1 4881   2.611   4.529   1.567  0.2059 -0.3429  0.9229
 1625TIP3    H2 4882   2.519   4.588   1.672 -1.3879  0.3968 -0.8250
 1626TIP3   OH2 4883   1.898   5.676   0.462 -0.3624  0.0666  0.3542
 1626TIP3    H1 4884   1.891   5.742   0.531  0.4635  0.9217 -0.3528
 1626TIP3    H2 4885   1.957   5.715   0.397 -1.5808 -0.4632 -1.1276
 1627TIP3   OH2 4886   4.906   0.972   3.573 -0.0819  0.1788 -0.1102
 1627TIP3    H1 4887   4.860   0.968   3.656  0.7566 -1.4143  0.3150
 1627TIP3    H2 4888   4.988   1.018   3.593 -0.4647  0.9927 -0.3692
 1628TIP3   OH2 4889   0.268   1.500   0.793 -0.0111  0.2719 -0.2759
 1628TIP3    H1 4890   0.184   1.511   0.750 -0.1352  1.4383  0.2199
 1628TIP3    H2 4891   0.313   1.584   0.781  1.9760 -0.9749 -2.3297
 1629TIP3   OH2 4892   0.444   4.555   2.469 -0.2331  0.0805 -0.1017
 1629TIP3    H1 4893   0.359   4.600   2.468 -0.1434  0.4533 -3.4051
 1629TIP3    H2 4894   0.426   4.467   2.438  0.6097  0.3642 -1.5100
 1630TIP3   OH2 4895   4.542   5.563   2.683  0.1792  0.0118  0.2908
 1630TIP3    H1 4896   4.512   5.652   2.667  1.2934  0.6539  1.5903
 1630TIP3    H2 4897   4.635   5.572   2.703  0.1340 -1.3552  1.2280
 1631TIP3   OH2 4898   3.554   4.131   2.373  0.0547  0.0977 -0.6262
 1631TIP3    H1 4899   3.589   4.149   2.460 -2.1882  1.3081  0.1213
 1631TIP3    H2 4900   3.485   4.067   2.388 -0.0745  0.0050 -1.5721
 1632TIP3   OH2 4901   2.443   3.379   0.879 -0.0900 -0.1121  0.1887
 1632TIP3    H1 4902   2.500   3.309   0.910 -0.5442 -0.4385  0.2842
 1632TIP3    H2 4903   2.354   3.347   0.893 -0.3015  0.2923 -0.1963
 1633TIP3   OH2 4904   0.077   2.958   3.182 -0.0288 -0.0659 -0.4522
 1633TIP3    H1 4905   0.140   2.887   3.191  0.3042  0.3818  0.9691
 1633TIP3    H2 4906   0.129   3.033   3.152 -0.2027 -0.1621 -0.9953
 1634TIP3   OH2 4907   5.363   0.625   1.699  0.1633 -0.0505  0.5569
 1634TIP3    H1 4908   5.436   0.680   1.670 -0.3200  0.1068 -0.3849
 1634TIP3    H2 4909   5.347   0.653   1.789  1.2374 -0.0641  0.7656
 1635TIP3   OH2 4910   1.686   1.583   4.102 -0.4659  0.2797  0.4331
 1635TIP3    H1 4911   1.649   1.647   4.162 -0.9921  1.1534 -0.7986
 1635TIP3    H2 4912   1.653   1.499   4.134 -0.1023  0.6419  1.8140
 1636TIP3   OH2 4913   4.359   5.272   0.993 -0.6446  0.0564  0.5354
 1636TIP3    H1 4914   4.366   5.343   1.056  0.1642  1.2212 -0.7861
 1636TIP3    H2 4915   4.271   5.237   1.004 -1.1993  1.5330  0.9647
 1637TIP3   OH2 4916   1.692   5.739   4.693  0.1999 -0.2722 -0.1026
 1637TIP3    H1 4917   1.786   5.757   4.699  0.2700 -0.4899 -0.5236
 1637TIP3    H2 4918   1.654   5.820   4.660  0.6797 -1.2323 -3.3295
 1638TIP3   OH2 4919   0.720   2.999   3.475  0.0320 -0.3053  0.1049
 1638TIP3    H1 4920   0.640   2.961   3.441 -0.2553 -0.7252  1.1890
 1638TIP3    H2 4921   0.718   3.090   3.445 -0.1684 -0.6678 -1.0025
 1639TIP3   OH2 4922   0.525   4.398   1.193 -0.6027  0.1245  0.0725
 1639TIP3    H1 4923   0.620   4.387   1.205 -0.3324 -0.6628 -2.2465
 1639TIP3    H2 4924   0.495   4.313   1.159 -1.6315  1.1562 -1.7664
 1640TIP3   OH2 4925   3.122   5.605   2.475  0.5412  0.1052 -0.1780
 1640TIP3    H1 4926   3.101   5.673   2.411 -0.5050 -0.6081 -0.6341
 1640TIP3    H2 4927   3.089   5.524   2.435  0.3680 -0.4351  1.0158
 1641TIP3   OH2 4928   0.214   1.884   3.866  0.8462  0.0762  0.0927
 1641TIP3    H1 4929   0.254   1.816   3.920  0.5015  0.6316  1.0709
 1641TIP3    H2 4930   0.284   1.946   3.850  0.8458  0.1222  0.2629
 1642TIP3   OH2 4931   2.098   4.063   3.094 -0.6348  0.7582 -0.2846
 1642TIP3    H1 4932   2.171   4.032   3.147  0.0891  1.2305 -0.9651
 1642TIP3    H2 4933   2.026   4.076   3.155 -0.6397 -1.1825  0.1832
 1643TIP3   OH2 4934   0.452   3.393   0.520 -0.0117 -0.8845 -0.2901
 1643TIP3    H1 4935   0.465   3.373   0.428 -0.0931  0.3207 -0.5767
 1643TIP3    H2 4936   0.509   3.469   0.536 -2.3443  0.9647 -0.1690
 1644TIP3   OH2 4937   5.962   2.378   4.293  0.4193  0.3235 -0.5676
 1644TIP3    H1 4938   5.888   2.320   4.310  0.3127  0.5290 -0.3273
 1644TIP3    H2 4939   5.956   2.398   4.200 -0.4148  1.1416 -0.3522
 1645TIP3   OH2 4940   6.282   0.114   0.569 -0.4274 -0.0337  0.1392
 1645TIP3    H1 4941   6.243   0.027   0.560 -1.4124  0.3975  0.1999
 1645TIP3    H2 4942   6.247   0.148   0.651 -1.1869  0.9899 -0.5878
 1646TIP3   OH2 4943   2.610   4.360   0.954  0.0157  0.1115  0.2451
 1646TIP3    H1 4944   2.561   4.442   0.964  0.8096  0.4638  1.4865
 1646TIP3    H2 4945   2.603   4.317   1.039 -0.1951 -1.0121 -0.3282
 1647TIP3   OH2 4946   5.900   0.837   2.596  0.1085  0.2300 -0.9816
 1647TIP3    H1 4947   5.992   0.809   2.591  0.3913  1.2519 -1.7263
 1647TIP3    H2 4948   5.894   0.883   2.680  0.4341  0.6922 -1.2088
 1648TIP3   OH2 4949   4.302   4.406   4.107 -0.2541 -0.0569  0.1672
 1648TIP3    H1 4950   4.336   4.393   4.019  0.0340  1.0673  0.1007
 1648TIP3    H2 4951   4.342   4.336   4.160  0.6998  0.1471 -0.2882
 1649TIP3   OH2 4952   2.863   1.575   1.877 -0.4649  0.4563  0.0903
 1649TIP3    H1 4953   2.955   1.585   1.854 -0.1857  1.1642  1.4161
 1649TIP3    H2 4954   2.854   1.619   1.962 -1.3559 -2.1728  1.4803
 1650TIP3   OH2 4955   3.241   1.051   2.638 -0.0178 -0.3905 -0.3010
 1650TIP3    H1 4956   3.304   0.979   2.640 -2.0244 -2.2372 -0.2675
 1650TIP3    H2 4957   3.232   1.072   2.545  0.5164 -0.2299 -0.3182
 1651TIP3   OH2 4958   5.475   1.985   4.986  0.1825  0.4416  0.4687
 1651TIP3    H1 4959   5.464   1.912   4.924  0.1276  0.3296  0.6097
 1651TIP3    H2 4960   5.424   1.959   5.062 -1.3155  1.4342 -0.1498
 1652TIP3   OH2 4961   2.473   3.870   3.394  0.2029  0.0400 -0.2222
 1652TIP3    H1 4962   2.434   3.888   3.480 -0.6310  0.2954 -0.6407
 1652TIP3    H2 4963   2.420   3.800   3.357  2.0342 -1.7864  0.4338
 1653TIP3   OH2 4964   2.493   5.370   0.000  0.5657  0.1712 -0.8226
 1653TIP3    H1 4965   2.459   5.459   0.011 -0.9080 -0.3067 -1.3210
 1653TIP3    H2 4966   2.546   5.355   0.079 -0.5424  0.8823  0.0917
 1654TIP3   OH2 4967   1.028   4.360   1.526  0.1756 -0.2155  0.6827
 1654TIP3    H1 4968   1.098   4.423   1.543  0.1294 -0.0931  0.4307
 1654TIP3    H2 4969   0.978   4.357   1.607 -0.9574  1.5137  0.1093
 1655TIP3   OH2 4970   3.493   4.428   5.139  0.1319  0.0147 -0.1768
 1655TIP3    H1 4971   3.492   4.523   5.126 -0.3098 -0.0165 -0.4028
 1655TIP3    H2 4972   3.401   4.402   5.131  0.4109 -0.6413 -1.7132
 1656TIP3   OH2 4973   3.803   0.375   0.715 -0.2470 -0.1871 -0.1378
 1656TIP3    H1 4974   3.711   0.397   0.703 -0.3168 -0.2913  0.1754
 1656TIP3    H2 4975   3.833   0.348   0.629 -0.5352 -0.2367 -0.2249
 1657TIP3   OH2 4976   5.763   2.868   2.058 -0.1078 -0.5585 -0.0476
 1657TIP3    H1 4977   5.669   2.856   2.040  0.1705 -1.8141 -0.7653
 1657TIP3    H2 4978   5.791   2.785   2.095  0.7186 -0.1691  0.2203
 1658TIP3   OH2 4979   2.730   5.118   3.623 -0.2856 -0.3655  0.0224
 1658TIP3    H1 4980   2.649   5.127   3.673  0.5399  0.0788  1.3248
 1658TIP3    H2 4981   2.776   5.200   3.637  0.6711 -0.8535 -0.1887
 1659TIP3   OH2 4982   1.936   4.753   1.609 -1.0570 -0.0857  0.2517
 1659TIP3    H1 4983   1.866   4.775   1.547 -1.3366  1.0059  0.9241
 1659TIP3    H2 4984   1.908   4.670   1.648 -1.4358 -0.2103 -0.2749
 1660TIP3   OH2 4985   1.291   1.089   2.480  0.4282 -0.8656 -1.1260
 1660TIP3    H1 4986   1.341   1.026   2.429  0.1546 -0.1537 -2.3160
 1660TIP3    H2 4987   1.328   1.174   2.457  0.7104 -0.5546  0.3625
 1661TIP3   OH2 4988   4.232   2.453   2.083 -0.0853 -0.0592  0.4109
 1661TIP3    H1 4989   4.290   2.527   2.065  0.3359 -0.4574  0.0966
 1661TIP3    H2 4990   4.218   2.457   2.177 -0.0514  0.4109  0.4016
 1662TIP3   OH2 4991   2.759   3.165   0.064  0.6853  0.2910  0.3478
 1662TIP3    H1 4992   2.668   3.170   0.035  0.8193  0.7393 -0.0017
 1662TIP3    H2 4993   2.757   3.200   0.153  0.2349 -1.3041  1.0072
 1663TIP3   OH2 4994   0.601   3.266   2.749 -0.0428 -0.0132  0.0673
 1663TIP3    H1 4995   0.628   3.175   2.759 -0.8768 -0.3018 -0.2424
 1663TIP3    H2 4996   0.641   3.294   2.667 -0.3919 -0.3333 -0.2169
 1664TIP3   OH2 4997   0.211   4.481   1.724 -0.3909  0.4426  0.4847
 1664TIP3    H1 4998   0.282   4.544   1.734 -0.6033  0.9004 -0.7809
 1664TIP3    H2 4999   0.175   4.472   1.812  1.3619  0.0329  1.2028
 1665TIP3   OH2 5000   4.863   0.044   0.031 -0.4398 -0.1980 -0.1416
 1665TIP3    H1 5001   4.942   0.005   0.069 -1.2217 -2.3926 -0.6512
 1665TIP3    H2 5002   4.893   0.127  -0.005  1.0869  0.2563  1.9338
 1666TIP3   OH2 5003   3.691   1.647   4.055 -0.1388 -0.5729  0.0711
 1666TIP3    H1 5004   3.731   1.560   4.052  2.0222  0.3169  0.7536
 1666TIP3    H2 5005   3.760   1.706   4.024 -1.5331  0.9141 -0.3317
 1667TIP3   OH2 5006   2.460   4.421   4.033 -0.1475  0.0728  0.1459
 1667TIP3    H1 5007   2.419   4.356   4.089 -1.0510  0.1131 -0.4434
 1667TIP3    H2 5008   2.554   4.404   4.041 -0.2096  0.4054  2.0472
 1668TIP3   OH2 5009   3.558   0.518   1.188 -0.6405  0.0851  0.2713
 1668TIP3    H1 5010   3.544   0.587   1.253 -0.0442  1.4817 -1.0208
 1668TIP3    H2 5011   3.520   0.552   1.107  2.2753  0.2769 -1.1748
 1669TIP3   OH2 5012   5.068   5.619   1.036 -0.2363  0.0896  0.2244
 1669TIP3    H1 5013   5.092   5.711   1.027  1.3143 -0.2230  0.7606
 1669TIP3    H2 5014   5.132   5.572   0.983  0.4441 -0.8067  1.7612
 1670TIP3   OH2 5015   0.883   4.907   4.621 -0.3377 -0.6548 -0.2999
 1670TIP3    H1 5016   0.897   4.829   4.675 -0.7529  0.4083  1.4127
 1670TIP3    H2 5017   0.958   4.964   4.641 -0.5736 -0.1834 -0.7274
 1671TIP3   OH2 5018   5.655   2.552   0.806 -0.1188  0.3388  0.5369
 1671TIP3    H1 5019   5.695   2.490   0.744  0.7786  0.6136  0.8240
 1671TIP3    H2 5020   5.722   2.565   0.873 -0.5858  1.0571  0.8756
 1672TIP3   OH2 5021   4.436   0.630   3.387 -0.4100 -0.1960 -0.0876
 1672TIP3    H1 5022   4.481   0.557   3.343  1.0237  0.4506  0.2384
 1672TIP3    H2 5023   4.371   0.588   3.443 -1.9951 -1.0691 -2.4136
 1673TIP3   OH2 5024   5.260   1.483   4.943 -0.4338  0.3821 -0.3442
 1673TIP3    H1 5025   5.194   1.546   4.972 -0.2436  0.2165  0.4842
 1673TIP3    H2 5026   5.210   1.410   4.907 -0.6734  0.6644 -0.5863
 1674TIP3   OH2 5027   0.876   0.626   0.548 -0.2012 -0.0676  0.3935
 1674TIP3    H1 5028   0.932   0.634   0.625 -0.3954 -0.2001  0.5504
 1674TIP3    H2 5029   0.901   0.700   0.492  2.0117 -1.5699 -0.7613
 1675TIP3   OH2 5030   5.273   4.546   0.272 -0.2193 -0.0718 -0.6150
 1675TIP3    H1 5031   5.249   4.523   0.362  1.8962 -0.5821 -0.1261
 1675TIP3    H2 5032   5.286   4.640   0.275  0.6332 -0.1963 -0.1684
 1676TIP3   OH2 5033   3.226   2.732   5.057  0.2822  0.4690 -0.3769
 1676TIP3    H1 5034   3.321   2.740   5.048  0.4407  0.5378  1.0616
 1676TIP3    H2 5035   3.193   2.820   5.044  0.5929  0.7667  0.7485
 1677TIP3   OH2 5036   2.607   0.598   3.679  0.4192  0.7336 -0.0819
 1677TIP3    H1 5037   2.592   0.603   3.773  1.6828  1.2892  0.1020
 1677TIP3    H2 5038   2.697   0.566   3.670 -0.2304 -0.9444 -1.1287
 1678TIP3   OH2 5039   4.085   3.131   1.206 -0.2616  0.5183  0.4028
 1678TIP3    H1 5040   4.102   3.223   1.226 -1.0552  0.5250  1.1224
 1678TIP3    H2 5041   4.117   3.083   1.284  0.8792  0.0958 -0.2961
 1679TIP3   OH2 5042   0.926   3.477   3.771 -0.3234 -0.4571 -0.0691
 1679TIP3    H1 5043   0.896   3.441   3.687  0.7676 -1.2239 -0.1590
 1679TIP3    H2 5044   1.012   3.436   3.785  0.3261  1.0311  0.5494
 1680TIP3   OH2 5045   5.700   2.217   0.895 -0.7868  0.0161 -0.2042
 1680TIP3    H1 5046   5.699   2.135   0.845  0.6594  0.4657 -1.0463
 1680TIP3    H2 5047   5.712   2.285   0.829  2.4255  0.5375  0.7517
 1681TIP3   OH2 5048   5.344   3.056   1.562  0.4870  0.1572 -0.0225
 1681TIP3    H1 5049   5.388   3.118   1.619  0.2042 -1.3952  2.0022
 1681TIP3    H2 5050   5.265   3.101   1.533 -0.0489  0.5560  1.9287
 1682TIP3   OH2 5051   1.308   3.959   5.160 -0.5253 -0.0484 -0.0527
 1682TIP3    H1 5052   1.314   4.034   5.219  1.0360 -0.6892  0.6452
 1682TIP3    H2 5053   1.392   3.958   5.114 -0.5870 -1.2777 -0.1662
 1683TIP3   OH2 5054   5.514   1.471   4.832 -0.3472  0.6430 -0.0115
 1683TIP3    H1 5055   5.543   1.406   4.895 -1.6084  0.9269  0.8971
 1683TIP3    H2 5056   5.434   1.507   4.869 -0.8367  1.2029 -1.5265
 1684TIP3   OH2 5057   4.073   5.324   3.963  0.3190 -0.4647  0.2927
 1684TIP3    H1 5058   4.142   5.330   3.896  0.3157  0.0856  0.3323
 1684TIP3    H2 5059   3.994   5.305   3.914  0.6488 -2.1113  0.3357
 1685TIP3   OH2 5060  -0.019   1.253   0.312 -0.3816 -0.0995 -0.7242
 1685TIP3    H1 5061  -0.004   1.347   0.298  0.6580  0.0794  1.3270
 1685TIP3    H2 5062   0.025   1.211   0.238 -1.6860  1.0004 -2.2238
 1686TIP3   OH2 5063   1.360   0.827   1.462  0.0328  0.0802 -0.0943
 1686TIP3    H1 5064   1.277   0.821   1.416 -0.0122 -0.6010  0.0643
 1686TIP3    H2 5065   1.426   0.826   1.392 -0.0118 -1.5169 -0.1423
 1687TIP3   OH2 5066   4.853   5.389   3.657  0.0857  0.3044 -0.5541
 1687TIP3    H1 5067   4.936   5.342   3.649  0.3788  0.7786 -0.3623
 1687TIP3    H2 5068   4.806   5.342   3.726  0.3581  0.2626 -0.3933
 1688TIP3   OH2 5069   0.316   1.181   4.058 -0.3012  0.7536 -0.5678
 1688TIP3    H1 5070   0.250   1.222   4.114 -0.5785  1.0441 -1.1071
 1688TIP3    H2 5071   0.305   1.087   4.074 -0.7326  0.8085 -0.5303
 1689TIP3   OH2 5072   3.086   1.384   2.548 -1.1643  0.3078 -0.3266
 1689TIP3    H1 5073   3.129   1.422   2.625 -2.4749 -1.0184  1.1170
 1689TIP3    H2 5074   3.141   1.411   2.475  0.4405  1.1636  1.1215
 1690TIP3   OH2 5075   5.220   1.837   2.809 -0.0075  0.0443 -1.3822
 1690TIP3    H1 5076   5.309   1.871   2.813 -0.5128  1.2833  1.5243
 1690TIP3    H2 5077   5.193   1.829   2.900 -3.2992  0.8217 -2.1596
 1691TIP3   OH2 5078   1.591   3.888   0.779 -0.1396 -0.3361 -0.5521
 1691TIP3    H1 5079   1.567   3.801   0.810  1.3963 -1.0704 -1.3368
 1691TIP3    H2 5080   1.650   3.922   0.846 -3.0117  1.4280  1.3232
 1692TIP3   OH2 5081   3.366   2.296   2.309 -0.1717  0.4856 -0.5303
 1692TIP3    H1 5082   3.323   2.290   2.394  0.0521  0.4431 -0.4186
 1692TIP3    H2 5083   3.301   2.264   2.247 -0.3552  0.5659 -0.3807
 1693TIP3   OH2 5084   5.937   0.512   2.785 -0.0104  0.4412  0.0358
 1693TIP3    H1 5085   5.933   0.511   2.689 -1.2550  0.2001  0.0653
 1693TIP3    H2 5086   5.857   0.468   2.813  1.1903 -1.0935  1.2078
 1694TIP3   OH2 5087   5.105   0.163   0.113  0.2903 -0.2839 -0.6226
 1694TIP3    H1 5088   5.115   0.236   0.051  1.5151  0.5054  0.4593
 1694TIP3    H2 5089   5.051   0.198   0.183  0.6858 -0.4842 -0.2124
 1695TIP3   OH2 5090   2.010   5.493   1.597 -0.2617  0.0673  0.4210
 1695TIP3    H1 5091   2.012   5.434   1.673  3.5331 -0.4716  0.1410
 1695TIP3    H2 5092   2.067   5.565   1.623  0.1412  0.4636 -1.4610
 1696TIP3   OH2 5093   5.113   4.595   2.063 -0.5496 -0.6296  0.2558
 1696TIP3    H1 5094   5.174   4.651   2.112  0.0883 -0.9550 -0.1418
 1696TIP3    H2 5095   5.162   4.572   1.984 -0.3812 -2.5784  0.8688
 1697TIP3   OH2 5096   3.976   1.262   1.967  0.1808  0.2306 -0.2199
 1697TIP3    H1 5097   3.948   1.352   1.953  1.0719  0.4180 -0.8432
 1697TIP3    H2 5098   4.062   1.256   1.925  1.0659 -0.3411  1.5438
 1698TIP3   OH2 5099   0.065   2.234   1.093  0.2116  0.8697 -0.0575
 1698TIP3    H1 5100   0.125   2.195   1.156  0.1664  0.3075 -0.3606
 1698TIP3    H2 5101  -0.022   2.209   1.124  0.2422 -1.1921 -1.4706
 1699TIP3   OH2 5102   5.727   0.410   2.919  0.4780 -0.6131 -0.2820
 1699TIP3    H1 5103   5.749   0.322   2.950  0.6168 -0.3992  0.2327
 1699TIP3    H2 5104   5.635   0.403   2.891 -0.3814 -0.3071  2.1817
 1700TIP3   OH2 5105   5.318   4.750   0.014 -0.6181 -0.4168 -0.0958
 1700TIP3    H1 5106   5.366   4.778  -0.064 -1.3341  1.1751 -0.0023
 1700TIP3    H2 5107   5.380   4.761   0.086 -0.6409  0.1943 -0.1658
 1701TIP3   OH2 5108   4.679   1.296   2.889  0.1399 -0.4497 -0.6752
 1701TIP3    H1 5109   4.757   1.292   2.944  0.4498  2.1451 -0.8063
 1701TIP3    H2 5110   4.699   1.362   2.823 -2.2859  0.5975 -0.4848
 1702TIP3   OH2 5111   5.014   2.835   1.308 -0.2963 -0.2917  0.8313
 1702TIP3    H1 5112   4.967   2.906   1.353 -0.2595 -0.2364  0.7835
 1702TIP3    H2 5113   4.948   2.791   1.256  0.1645  1.5836 -1.5612
 1703TIP3   OH2 5114   2.850   4.520   1.087  0.0638  0.3344  0.0862
 1703TIP3    H1 5115   2.836   4.550   1.177  0.2976  2.0048 -0.4012
 1703TIP3    H2 5116   2.803   4.436   1.082  1.9105 -0.9406  2.3868
 1704TIP3   OH2 5117   0.527   2.593   0.437  0.1649  0.2077  0.2153
 1704TIP3    H1 5118   0.502   2.683   0.413 -0.7051 -0.6073 -2.2902
 1704TIP3    H2 5119   0.577   2.603   0.518  0.9154  3.0534 -0.4718
 1705TIP3   OH2 5120   2.055   0.543   3.363 -0.4536 -0.9394 -0.4915
 1705TIP3    H1 5121   2.115   0.599   3.413 -0.1673 -0.7396 -1.0414
 1705TIP3    H2 5122   2.106   0.516   3.287 -1.6831  0.9297 -2.0704
 1706TIP3   OH2 5123   4.595   2.131   4.196 -0.0114 -0.3436  0.3274
 1706TIP3    H1 5124   4.611   2.175   4.112 -1.4979  1.4502  0.8958
 1706TIP3    H2 5125   4.646   2.182   4.259 -2.7874  1.6239  1.2040
 1707TIP3   OH2 5126   4.219   5.379   5.023  0.1660 -0.6549  0.6951
 1707TIP3    H1 5127   4.240   5.403   4.933 -1.7991  0.6221  0.5120
 1707TIP3    H2 5128   4.193   5.287   5.018 -0.2144 -0.5188 -0.1188
 1708TIP3   OH2 5129   2.635   4.347   1.491 -0.5376  0.0361 -0.3704
 1708TIP3    H1 5130   2.590   4.282   1.545 -0.4927  0.4039  0.1125
 1708TIP3    H2 5131   2.700   4.296   1.442  1.1633 -0.0275  1.7549
 1709TIP3   OH2 5132   3.084   4.786   3.767 -0.3344 -0.1525  0.1227
 1709TIP3    H1 5133   3.119   4.697   3.771  0.9012  0.3435  0.8401
 1709TIP3    H2 5134   3.040   4.798   3.851  1.3201  0.6174  0.9076
 1710TIP3   OH2 5135   5.781   0.132   2.975 -0.2679  0.2618 -0.1900
 1710TIP3    H1 5136   5.762   0.040   2.960  0.7682 -0.0683  0.4127
 1710TIP3    H2 5137   5.846   0.154   2.908 -1.8282  1.0652 -1.5006
 1711TIP3   OH2 5138   4.715   5.284   2.821 -0.2857  0.0776  0.0181
 1711TIP3    H1 5139   4.662   5.220   2.774 -0.0543 -1.3884  1.6670
 1711TIP3    H2 5140   4.695   5.270   2.913  0.5281  1.7233  0.4904
 1712TIP3   OH2 5141   3.409   4.117   3.014  0.1214  0.7744 -0.3111
 1712TIP3    H1 5142   3.494   4.088   3.048 -0.4081 -1.3342 -0.6419
 1712TIP3    H2 5143   3.348   4.102   3.086 -0.1644  1.2538 -0.4466
 1713TIP3   OH2 5144   4.702   3.316   3.547 -0.0238 -0.1336  0.1818
 1713TIP3    H1 5145   4.695   3.299   3.641  0.6056  0.3390  0.3238
 1713TIP3    H2 5146   4.780   3.267   3.520 -0.8079 -1.1339 -0.3147
 1714TIP3   OH2 5147   5.676   0.164   3.271 -0.3492 -0.3071 -0.9443
 1714TIP3    H1 5148   5.636   0.114   3.200  0.3186 -0.7887 -0.9859
 1714TIP3    H2 5149   5.746   0.214   3.229  0.6702 -1.3142 -0.4870
 1715TIP3   OH2 5150   5.243   5.506   4.776  0.2063 -0.1247  0.0083
 1715TIP3    H1 5151   5.298   5.572   4.734 -0.7166 -0.3060 -1.5832
 1715TIP3    H2 5152   5.209   5.454   4.703 -0.5114 -1.2409  1.0974
 1716TIP3   OH2 5153   2.859   5.402   0.432  0.1533  0.6012  0.5052
 1716TIP3    H1 5154   2.909   5.322   0.415  0.4092  1.1378 -1.4864
 1716TIP3    H2 5155   2.851   5.404   0.527  3.3483  0.1227  0.9214
 1717TIP3   OH2 5156   4.211   1.289   0.759 -0.0180  0.2871  0.3368
 1717TIP3    H1 5157   4.298   1.281   0.720 -0.6926 -0.4706 -1.0954
 1717TIP3    H2 5158   4.178   1.373   0.726  0.1846  0.6235  0.9618
 1718TIP3   OH2 5159   2.885   1.353   1.323 -0.0053  0.0441 -0.4526
 1718TIP3    H1 5160   2.931   1.410   1.384 -0.9691  0.1603  0.1768
 1718TIP3    H2 5161   2.868   1.408   1.246  1.4886 -0.1928 -0.9895
 1719TIP3   OH2 5162   1.005   0.940   0.354  0.2735 -0.3047 -0.1144
 1719TIP3    H1 5163   0.915   0.954   0.385  0.4981  0.4163  0.2256
 1719TIP3    H2 5164   1.054   1.016   0.386  0.5182  0.4906 -2.2219
 1720TIP3   OH2 5165   0.396   5.148   4.148  0.2756  0.0319 -0.0907
 1720TIP3    H1 5166   0.484   5.175   4.175  1.0394 -1.7740 -0.5895
 1720TIP3    H2 5167   0.378   5.071   4.201  0.0398 -1.0564 -1.6756
 1721TIP3   OH2 5168   2.742   4.650   2.219  0.1978 -0.5479  0.0072
 1721TIP3    H1 5169   2.650   4.621   2.223  0.4192 -1.3106 -0.1420
 1721TIP3    H2 5170   2.771   4.651   2.311  0.8354 -3.0717 -0.0789
 1722TIP3   OH2 5171   2.886   4.725   1.986 -0.1148 -0.2586 -0.2067
 1722TIP3    H1 5172   2.839   4.694   2.064  1.6813 -0.9014  0.7000
 1722TIP3    H2 5173   2.971   4.680   1.991  1.3503  2.2894 -0.6944
 1723TIP3   OH2 5174   5.337   1.613   3.172  0.4200 -0.2445 -0.5051
 1723TIP3    H1 5175   5.432   1.604   3.166  0.2856 -1.0782 -1.9818
 1723TIP3    H2 5176   5.311   1.553   3.242  0.8941 -0.8334 -0.8216
 1724TIP3   OH2 5177   1.321   2.425   3.840  0.0648  0.3449  0.6610
 1724TIP3    H1 5178   1.338   2.467   3.924 -1.4255  2.3887  0.0047
 1724TIP3    H2 5179   1.350   2.489   3.775 -3.0345  0.8323 -0.3855
 1725TIP3   OH2 5180   2.547   2.571   0.804 -0.0698  0.1006  0.2395
 1725TIP3    H1 5181   2.613   2.637   0.783  0.4883  0.4548  2.7697
 1725TIP3    H2 5182   2.583   2.489   0.771  1.1886  0.4462  0.7087
 1726TIP3   OH2 5183   3.132   2.638   2.730 -0.4522 -0.9305 -0.6212
 1726TIP3    H1 5184   3.192   2.584   2.782 -0.5175  0.4232  0.9260
 1726TIP3    H2 5185   3.077   2.683   2.794 -0.8613  0.4460 -1.8703
 1727TIP3   OH2 5186   1.270   4.798   1.690  0.1802 -0.0465 -0.8921
 1727TIP3    H1 5187   1.282   4.855   1.615  0.0229  1.3200  0.0869
 1727TIP3    H2 5188   1.265   4.857   1.765 -0.0900 -1.3389  0.1521
 1728TIP3   OH2 5189   4.874   0.696   4.395  0.4514  0.0077 -0.0018
 1728TIP3    H1 5190   4.873   0.602   4.411  0.0295  0.0257  0.0962
 1728TIP3    H2 5191   4.783   0.723   4.407  0.2153  0.1326 -1.8430
 1729TIP3   OH2 5192   5.452   0.391   4.382  0.8150  0.3129  0.0450
 1729TIP3    H1 5193   5.464   0.482   4.353 -0.7078 -0.0320 -1.8730
 1729TIP3    H2 5194   5.358   0.380   4.387  0.9761 -1.2250  0.0842
 1730TIP3   OH2 5195   2.726   3.747   3.165  0.2651 -0.0060 -0.3375
 1730TIP3    H1 5196   2.666   3.688   3.212 -1.0020  1.6052  0.1309
 1730TIP3    H2 5197   2.707   3.731   3.073  1.5164 -1.9044 -0.3279
 1731TIP3   OH2 5198   2.840   3.388   0.666 -0.1164  0.5575 -0.2675
 1731TIP3    H1 5199   2.868   3.422   0.751 -0.6790 -0.2436  0.2432
 1731TIP3    H2 5200   2.747   3.410   0.661 -0.0651  0.6857 -0.7259
 1732TIP3   OH2 5201   5.244   1.437   3.374  0.1520 -0.2325 -0.1323
 1732TIP3    H1 5202   5.337   1.423   3.391  0.3589  0.0946 -0.9819
 1732TIP3    H2 5203   5.206   1.349   3.376  0.2056 -0.2567  1.6823
 1733TIP3   OH2 5204   3.683   5.966   3.737  0.5089 -0.4190 -0.6762
 1733TIP3    H1 5205   3.713   6.033   3.798 -0.6731  0.5538 -1.1263
 1733TIP3    H2 5206   3.649   5.896   3.792 -1.1865  0.7387 -0.1483
 1734TIP3   OH2 5207   4.564   4.346   2.300  0.2634  0.0769 -0.5218
 1734TIP3    H1 5208   4.552   4.251   2.299  0.2951  0.0786 -1.3756
 1734TIP3    H2 5209   4.487   4.381   2.255  0.0432  0.4825  0.1615
 1735TIP3   OH2 5210   6.112   4.126   3.859 -0.0862 -0.3379 -0.2110
 1735TIP3    H1 5211   6.076   4.108   3.946  0.6449  0.7114  0.3394
 1735TIP3    H2 5212   6.205   4.105   3.866  0.0544  0.1134 -0.6163
 1736TIP3   OH2 5213   3.871   0.324   3.110  0.8358  0.5277 -0.2389
 1736TIP3    H1 5214   3.841   0.333   3.019 -1.3446  1.0247  0.4827
 1736TIP3    H2 5215   3.797   0.352   3.163  1.8141 -0.4333  1.7394
 1737TIP3   OH2 5216   0.688   4.082   3.729  0.0912  0.1387 -0.5236
 1737TIP3    H1 5217   0.677   4.047   3.640 -0.4175 -0.7990 -0.1121
 1737TIP3    H2 5218   0.769   4.042   3.761  0.1645  0.3119 -0.4927
 1738TIP3   OH2 5219   0.633   2.286   1.845 -0.3881  0.0498  0.0902
 1738TIP3    H1 5220   0.705   2.255   1.900 -0.4285 -0.2922 -0.0448
 1738TIP3    H2 5221   0.676   2.328   1.771 -0.2575 -1.9257 -1.0375
 1739TIP3   OH2 5222   2.028   5.766   0.216 -0.0592 -0.0950  0.7825
 1739TIP3    H1 5223   2.008   5.698   0.152 -0.4319 -0.2898  1.1030
 1739TIP3    H2 5224   1.965   5.835   0.197 -0.4182 -0.3108  1.1801
 1740TIP3   OH2 5225   3.945   1.012   0.156  0.2725 -0.2259 -0.4522
 1740TIP3    H1 5226   3.862   0.993   0.112 -0.5501 -0.6983  1.2560
 1740TIP3    H2 5227   4.009   0.957   0.111 -0.8008 -1.7519 -0.1747
 1741TIP3   OH2 5228   2.169   5.280   4.297  0.0912  0.0418 -0.1261
 1741TIP3    H1 5229   2.127   5.199   4.271  0.1229  0.3390 -1.1379
 1741TIP3    H2 5230   2.241   5.252   4.354 -1.1352 -0.4952  1.2263
 1742TIP3   OH2 5231   4.267   0.422   0.638  0.0461 -0.4537  0.3155
 1742TIP3    H1 5232   4.321   0.493   0.674 -2.0939  0.9871  0.8670
 1742TIP3    H2 5233   4.276   0.351   0.702  2.7032 -1.0168 -0.5503
 1743TIP3   OH2 5234   5.632   2.383   2.093  0.7761  0.4722 -0.3317
 1743TIP3    H1 5235   5.672   2.468   2.109 -0.1699  0.9498 -0.4397
 1743TIP3    H2 5236   5.541   2.403   2.070  0.6922 -0.5252 -0.9430
 1744TIP3   OH2 5237   5.051   3.711   1.007 -0.2531  0.3385 -0.4629
 1744TIP3    H1 5238   5.116   3.728   0.939  0.6559 -1.3411 -0.0744
 1744TIP3    H2 5239   5.027   3.797   1.040  3.4576  1.0623  0.8740
 1745TIP3   OH2 5240   4.384   0.741   0.163  0.0080 -0.0203  0.1391
 1745TIP3    H1 5241   4.439   0.665   0.141 -0.6023 -0.2870 -0.4930
 1745TIP3    H2 5242   4.419   0.812   0.108  0.8641  0.2879  1.0534
 1746TIP3   OH2 5243   1.796   0.413   5.011  0.1000 -0.3789 -0.3495
 1746TIP3    H1 5244   1.840   0.383   5.090  0.3307 -0.5243 -0.5323
 1746TIP3    H2 5245   1.861   0.465   4.964 -0.6354  1.4048  0.5164
 1747TIP3   OH2 5246   5.971   0.200   3.495 -0.1445 -0.7899  0.5518
 1747TIP3    H1 5247   5.972   0.127   3.556  3.0927 -1.5097 -0.1779
 1747TIP3    H2 5248   6.062   0.212   3.470 -1.0689  0.6487 -2.7472
 1748TIP3   OH2 5249   6.302   5.752   4.960  0.0823 -0.3810  0.5569
 1748TIP3    H1 5250   6.300   5.670   5.009 -0.9805 -0.2125  0.8367
 1748TIP3    H2 5251   6.387   5.753   4.917  1.3075 -0.2771  2.8338
 1749TIP3   OH2 5252   0.509   5.848   2.569 -0.1586  0.3894  0.1765
 1749TIP3    H1 5253   0.478   5.759   2.585 -2.1100  0.8073 -1.0447
 1749TIP3    H2 5254   0.514   5.856   2.474 -1.3405  1.9848  0.2077
 1750TIP3   OH2 5255   4.471   4.048   2.658 -0.5583  0.3033  0.4001
 1750TIP3    H1 5256   4.493   3.999   2.737  1.5936 -1.1323 -0.9781
 1750TIP3    H2 5257   4.397   4.001   2.621 -1.5235  0.9322  1.4777
 1751TIP3   OH2 5258   4.978   5.513   4.323  0.3164 -0.5478  0.1047
 1751TIP3    H1 5259   4.989   5.608   4.322 -0.7477 -0.4062 -1.5777
 1751TIP3    H2 5260   5.008   5.484   4.237 -0.8328 -1.5346  0.0092
 1752TIP3   OH2 5261   0.565   2.843   0.858  0.0814 -0.0334  0.1677
 1752TIP3    H1 5262   0.507   2.864   0.931  3.0032  2.1472  2.1220
 1752TIP3    H2 5263   0.534   2.897   0.785 -0.1132  1.4409  1.3027
 1753TIP3   OH2 5264   5.273   5.900   1.151 -0.0993 -0.3997  0.1909
 1753TIP3    H1 5265   5.186   5.904   1.192  0.2512  0.0331  0.9021
 1753TIP3    H2 5266   5.319   5.978   1.184  0.6763 -0.8059  0.0854
 1754TIP3   OH2 5267   5.662   3.357   0.993  0.3835  0.1219  0.6348
 1754TIP3    H1 5268   5.605   3.305   1.050 -2.1924  1.3535 -0.6712
 1754TIP3    H2 5269   5.648   3.321   0.905  1.6619  0.4700  0.2647
 1755TIP3   OH2 5270   2.017   5.187   0.420  0.0683  0.6180  0.3652
 1755TIP3    H1 5271   1.928   5.153   0.428  0.2443  0.2597  0.9127
 1755TIP3    H2 5272   2.060   5.129   0.358  0.2990 -0.0456  1.1184
 1756TIP3   OH2 5273   2.251   3.552   0.516  0.1945  0.1230 -0.1022
 1756TIP3    H1 5274   2.225   3.627   0.570  1.1792 -0.2882  0.9885
 1756TIP3    H2 5275   2.206   3.565   0.433 -0.9546  1.0651  0.6309
 1757TIP3   OH2 5276   2.396   3.456   4.860  0.0319 -0.3623 -0.2800
 1757TIP3    H1 5277   2.360   3.480   4.946  0.0484  1.5039 -0.7605
 1757TIP3    H2 5278   2.470   3.398   4.881  0.6048  0.7720  1.0343
 1758TIP3   OH2 5279   6.007   5.311   1.934 -0.6032  0.1923  0.0832
 1758TIP3    H1 5280   6.076   5.335   1.995 -1.6135  0.4296  1.1752
 1758TIP3    H2 5281   6.011   5.378   1.866  0.6722 -0.1980 -0.2632
 1759TIP3   OH2 5282   1.715   2.484   4.120  0.5845 -0.4072  0.7032
 1759TIP3    H1 5283   1.803   2.474   4.155  0.9024  0.7900  0.2816
 1759TIP3    H2 5284   1.673   2.547   4.178  0.8445  0.9427 -0.5177
 1760TIP3   OH2 5285   1.953   4.617   0.548 -0.2198  0.3147 -0.5614
 1760TIP3    H1 5286   2.018   4.628   0.617  0.0444 -0.3173 -0.7018
 1760TIP3    H2 5287   1.872   4.653   0.585 -0.0098  0.2469 -0.0334
 1761TIP3   OH2 5288   0.443   4.943   4.357 -0.1503  0.1483  0.2093
 1761TIP3    H1 5289   0.442   4.878   4.286 -0.7580  0.7265 -0.3177
 1761TIP3    H2 5290   0.404   4.897   4.432 -1.8491  0.3015 -0.5372
 1762TIP3   OH2 5291   6.057   3.405   4.816  0.1994 -0.3168 -0.1187
 1762TIP3    H1 5292   5.978   3.358   4.844  0.4981 -1.0373 -0.4859
 1762TIP3    H2 5293   6.025   3.468   4.752 -0.1733 -0.1487  0.2272
 1763TIP3   OH2 5294   3.895   5.230   0.989 -0.1336 -0.1725 -0.0240
 1763TIP3    H1 5295   3.960   5.301   0.989 -0.9688  0.6105  0.5558
 1763TIP3    H2 5296   3.824   5.263   1.044 -0.6558 -1.3610  0.0315
 1764TIP3   OH2 5297   2.958   2.508   1.643  0.0647 -0.1276 -0.2380
 1764TIP3    H1 5298   2.912   2.477   1.565  0.8083  0.3407 -0.8764
 1764TIP3    H2 5299   2.937   2.601   1.648 -1.0742 -0.4154  0.9073
 1765TIP3   OH2 5300   4.148   5.698   5.029  0.0503 -0.1383  0.6550
 1765TIP3    H1 5301   4.096   5.651   5.094  0.9336  1.9465  3.0501
 1765TIP3    H2 5302   4.196   5.630   4.983 -1.3498 -1.7781  1.4842
 1766TIP3   OH2 5303   0.719   3.276   2.503  0.0358  0.5666  0.7601
 1766TIP3    H1 5304   0.666   3.233   2.437  1.3966  0.8163 -0.5354
 1766TIP3    H2 5305   0.768   3.343   2.456  0.4215  1.3223  2.1632
 1767TIP3   OH2 5306   5.788   2.368   1.366 -0.6547  0.1242 -0.1801
 1767TIP3    H1 5307   5.738   2.350   1.446  1.2682  0.6439  1.2317
 1767TIP3    H2 5308   5.723   2.393   1.301 -2.4479 -1.8600  0.7361
 1768TIP3   OH2 5309   3.185   2.260   0.897 -0.2330 -0.3646  0.6261
 1768TIP3    H1 5310   3.198   2.339   0.845 -0.8562 -1.5306 -1.4039
 1768TIP3    H2 5311   3.110   2.216   0.856 -1.6160 -0.7301  3.3422
 1769TIP3   OH2 5312   6.006   1.661   4.456  0.2844  0.0513  0.1080
 1769TIP3    H1 5313   6.022   1.699   4.542  2.1778  0.8240 -0.5265
 1769TIP3    H2 5314   5.969   1.733   4.405 -0.7965 -0.3948  0.2264
 1770TIP3   OH2 5315   5.688   4.286   4.979  0.2234  0.4576  0.2248
 1770TIP3    H1 5316   5.747   4.314   4.909 -0.3720 -0.6630 -0.7822
 1770TIP3    H2 5317   5.626   4.358   4.988 -0.9669 -0.2043 -1.9375
 1771TIP3   OH2 5318   2.858   3.143   1.162 -0.1052 -0.1430  0.9873
 1771TIP3    H1 5319   2.845   3.066   1.106 -0.0663 -0.3287  1.2340
 1771TIP3    H2 5320   2.769   3.176   1.176 -0.0258  0.6711 -0.2490
 1772TIP3   OH2 5321   0.238   5.439   3.837 -0.0362 -0.2390  0.1288
 1772TIP3    H1 5322   0.157   5.487   3.855 -0.5532 -1.4480  1.2374
 1772TIP3    H2 5323   0.300   5.472   3.902 -0.4664 -1.2066  1.0571
 1773TIP3   OH2 5324   2.103   0.529   3.938 -0.2677  0.5702  0.1922
 1773TIP3    H1 5325   2.020   0.574   3.952  0.6426  1.7466  2.1350
 1773TIP3    H2 5326   2.080   0.436   3.930 -1.8219  0.9706 -0.1702
 1774TIP3   OH2 5327   1.577   1.133   2.405 -0.5182 -0.2144  0.3273
 1774TIP3    H1 5328   1.576   1.155   2.311 -2.7325 -0.7366  0.1751
 1774TIP3    H2 5329   1.566   1.038   2.407 -1.5789 -0.0967  1.0962
 1775TIP3   OH2 5330   3.816   3.823   1.201 -0.1909  0.4334 -0.3177
 1775TIP3    H1 5331   3.906   3.789   1.205 -0.1063  0.7697  1.2604
 1775TIP3    H2 5332   3.824   3.915   1.224 -0.8783  0.6520 -0.8977
 1776TIP3   OH2 5333   1.633   1.896   2.687 -0.0607  0.7127 -0.7958
 1776TIP3    H1 5334   1.661   1.960   2.622  0.7793  2.8747  1.5670
 1776TIP3    H2 5335   1.709   1.883   2.743 -1.3068  0.4172  0.9037
 1777TIP3   OH2 5336   1.572   0.941   1.092  1.2852  0.4825 -0.1245
 1777TIP3    H1 5337   1.548   0.860   1.137  2.4215  0.2043  0.0022
 1777TIP3    H2 5338   1.629   0.913   1.021  2.7147  1.2558  0.6779
 1778TIP3   OH2 5339   2.856   0.037   4.008 -0.4390  0.0076 -0.1355
 1778TIP3    H1 5340   2.935   0.090   3.995  0.1455 -0.9867 -0.7616
 1778TIP3    H2 5341   2.823   0.063   4.094  0.7747  0.1820  0.2882
 1779TIP3   OH2 5342   1.053   3.818   2.902  0.5740 -0.3569 -0.2032
 1779TIP3    H1 5343   1.036   3.780   2.988  0.4346  1.1438  0.4725
 1779TIP3    H2 5344   0.972   3.865   2.881  1.7588  2.1644  0.4649
 1780TIP3   OH2 5345   1.936   2.628   4.163 -0.1949 -0.1002  0.0412
 1780TIP3    H1 5346   1.887   2.708   4.147 -0.3117 -0.1290  0.2536
 1780TIP3    H2 5347   1.989   2.616   4.084 -0.0232  0.2961  0.0939
 1781TIP3   OH2 5348   1.855   5.078   0.190 -0.4200 -0.3186  0.4890
 1781TIP3    H1 5349   1.807   5.061   0.109 -1.5120 -0.0713  1.0622
 1781TIP3    H2 5350   1.856   4.994   0.235  0.5606 -0.5623  0.0514
 1782TIP3   OH2 5351   1.927   0.389   1.229 -0.4092 -0.0644  0.1842
 1782TIP3    H1 5352   1.999   0.429   1.277 -0.8798  0.8494  0.1576
 1782TIP3    H2 5353   1.925   0.298   1.259  0.8849 -0.1595  0.0135
 1783TIP3   OH2 5354   0.609   3.420   4.665 -0.6473  0.3097  0.3176
 1783TIP3    H1 5355   0.558   3.460   4.594  0.8410  0.0846 -0.9290
 1783TIP3    H2 5356   0.600   3.326   4.650  0.6732  0.2678 -0.3563
 1784TIP3   OH2 5357   5.092   4.997   3.606 -0.6451  0.1024 -0.4388
 1784TIP3    H1 5358   5.107   5.004   3.512 -0.6508  0.7812 -0.3909
 1784TIP3    H2 5359   5.097   5.087   3.638 -0.5382 -0.1361  0.2268
 1785TIP3   OH2 5360   2.917   5.051   1.551 -0.1410 -0.2511  0.1695
 1785TIP3    H1 5361   2.933   5.031   1.643  0.3400  3.8691  1.1907
 1785TIP3    H2 5362   2.995   5.099   1.523 -1.7994  1.8661 -1.1627
 1786TIP3   OH2 5363   0.653   0.064   3.729  0.3525 -0.3494  0.0726
 1786TIP3    H1 5364   0.673   0.001   3.660 -0.1633 -1.0722  0.5697
 1786TIP3    H2 5365   0.724   0.053   3.792  0.5877  0.0043 -0.1240
 1787TIP3   OH2 5366   1.518   5.301   2.982  0.3130  0.0309  0.0628
 1787TIP3    H1 5367   1.584   5.366   3.004  0.7245 -0.5387  0.5599
 1787TIP3    H2 5368   1.511   5.246   3.060 -1.8993  0.9972  0.6254
 1788TIP3   OH2 5369   2.978   2.695   4.049 -0.3436  0.4447  0.2625
 1788TIP3    H1 5370   2.917   2.768   4.044 -0.1932  0.5330 -0.4674
 1788TIP3    H2 5371   3.063   2.733   4.029 -0.5207 -0.2276 -2.0624
 1789TIP3   OH2 5372   2.641   5.519   0.210  0.3967  0.1947 -0.1823
 1789TIP3    H1 5373   2.561   5.532   0.262 -1.5712 -0.4072 -2.8223
 1789TIP3    H2 5374   2.681   5.440   0.246 -2.0266 -1.3995 -0.7658
 1790TIP3   OH2 5375   3.298   5.379   1.708  0.1751 -0.0837 -0.0747
 1790TIP3    H1 5376   3.338   5.439   1.645 -1.1131  0.5601 -0.3084
 1790TIP3    H2 5377   3.213   5.417   1.728 -0.0610 -1.0662  0.9216
 1791TIP3   OH2 5378   0.574   3.657   2.676 -0.0624  0.4539  0.7925
 1791TIP3    H1 5379   0.527   3.638   2.595 -3.5800 -1.5194  3.0455
 1791TIP3    H2 5380   0.579   3.752   2.680 -0.5543  0.6035 -1.3031
 1792TIP3   OH2 5381   1.582   4.786   5.031 -0.3003 -0.4008 -0.2932
 1792TIP3    H1 5382   1.670   4.804   5.064 -1.1528 -0.3778  2.1785
 1792TIP3    H2 5383   1.574   4.691   5.036 -0.9018 -0.3013  0.9355
 1793TIP3   OH2 5384   2.536   4.035   4.514 -0.2387 -0.0805 -0.2485
 1793TIP3    H1 5385   2.448   4.007   4.541 -0.7429  0.4917 -1.2290
 1793TIP3    H2 5386   2.587   3.954   4.510 -0.6314 -0.3861  0.6236
 1794TIP3   OH2 5387   5.588   3.368   3.169 -0.0669  0.6311  0.4685
 1794TIP3    H1 5388   5.533   3.423   3.226 -1.6136 -0.3845 -0.0134
 1794TIP3    H2 5389   5.528   3.331   3.105  1.4762  0.9058 -1.2315
 1795TIP3   OH2 5390   5.615   1.105   2.719  0.1502 -0.3148  0.6937
 1795TIP3    H1 5391   5.617   1.128   2.811  0.7555 -0.3896  0.7062
 1795TIP3    H2 5392   5.528   1.068   2.705  0.7976 -2.3983  1.7613
 1796TIP3   OH2 5393   0.640   1.048   1.580 -0.4708 -0.0344  0.0931
 1796TIP3    H1 5394   0.574   1.115   1.602 -1.3634 -0.4904 -1.0635
 1796TIP3    H2 5395   0.700   1.048   1.655 -0.4355  2.0550  0.1433
 1797TIP3   OH2 5396   0.750   4.657   3.248  0.0385 -0.6034 -0.2572
 1797TIP3    H1 5397   0.830   4.707   3.263 -0.1798 -0.4623  0.5032
 1797TIP3    H2 5398   0.694   4.679   3.322 -0.7605 -0.6013 -0.8516
 1798TIP3   OH2 5399   2.264   5.667   4.818 -0.4055 -0.5528 -0.4164
 1798TIP3    H1 5400   2.243   5.624   4.735  0.2726 -2.1493  0.2030
 1798TIP3    H2 5401   2.203   5.740   4.823 -1.3932 -1.2483 -1.6627
 1799TIP3   OH2 5402   4.654   4.579   2.112  0.1038 -0.1521  0.2043
 1799TIP3    H1 5403   4.708   4.611   2.040  0.7849 -1.4770  0.0945
 1799TIP3    H2 5404   4.681   4.632   2.187  1.5218 -0.7131  0.1300
 1800TIP3   OH2 5405   0.283   3.208   1.345  0.2625  0.0525 -0.1146
 1800TIP3    H1 5406   0.217   3.152   1.385 -2.7907  2.5979 -1.1169
 1800TIP3    H2 5407   0.296   3.171   1.258  1.7591 -1.6055  0.7699
 1801TIP3   OH2 5408  -0.023   1.569   0.300 -0.3339  0.0999  0.1501
 1801TIP3    H1 5409   0.044   1.577   0.368 -0.3349  1.1239  0.0532
 1801TIP3    H2 5410   0.023   1.593   0.219 -0.3799 -0.9246 -0.1876
 1802TIP3   OH2 5411   5.570   5.672   2.777  0.4302 -0.3141 -0.4972
 1802TIP3    H1 5412   5.627   5.717   2.839 -0.9996  0.9434 -0.0334
 1802TIP3    H2 5413   5.625   5.603   2.739  1.9331  0.2039  0.6500
 1803TIP3   OH2 5414   5.728   3.529   1.966  0.1206 -0.1220  0.4215
 1803TIP3    H1 5415   5.776   3.518   1.884  1.1135 -1.1277  1.1102
 1803TIP3    H2 5416   5.655   3.466   1.960 -0.2158  0.3025  0.0258
 1804TIP3   OH2 5417   0.643   1.875   4.718  0.0427  0.1499 -0.3526
 1804TIP3    H1 5418   0.564   1.926   4.736 -0.2159 -0.1788 -0.5448
 1804TIP3    H2 5419   0.612   1.785   4.707  0.6859 -0.3815  1.7600
 1805TIP3   OH2 5420   3.158   3.658   4.882 -0.0709  0.0112 -0.0280
 1805TIP3    H1 5421   3.143   3.588   4.819  2.6232 -0.2851 -0.4624
 1805TIP3    H2 5422   3.198   3.616   4.958 -0.5946  0.7735  0.7004
 1806TIP3   OH2 5423   4.770   4.702   1.871 -0.4957 -0.3155  0.2210
 1806TIP3    H1 5424   4.850   4.704   1.818 -0.8611 -1.2570 -0.3751
 1806TIP3    H2 5425   4.747   4.794   1.882  0.4838 -0.0403  0.1184
 1807TIP3   OH2 5426   0.751   1.910   4.302  0.3855 -0.1486  0.7035
 1807TIP3    H1 5427   0.751   1.924   4.207 -0.7944 -1.4623  0.4860
 1807TIP3    H2 5428   0.844   1.901   4.324  0.6505 -0.2670 -0.3980
 1808TIP3   OH2 5429   4.245   2.788   1.398  0.1426  0.1642 -0.4674
 1808TIP3    H1 5430   4.289   2.787   1.312 -1.3997  3.0831 -1.4487
 1808TIP3    H2 5431   4.309   2.750   1.458  1.3283 -1.9201 -2.8566
 1809TIP3   OH2 5432   2.278   1.806   2.367  0.5955  0.7946 -0.7280
 1809TIP3    H1 5433   2.267   1.899   2.349 -0.7415  0.8171  0.1389
 1809TIP3    H2 5434   2.354   1.801   2.425 -1.8102  1.8428  2.8211
 1810TIP3   OH2 5435   6.224   3.882   5.105  0.0330  0.1810 -0.4124
 1810TIP3    H1 5436   6.273   3.963   5.114  0.5308 -0.1340 -0.2234
 1810TIP3    H2 5437   6.247   3.849   5.018 -0.3480  0.3557 -0.5820
 1811TIP3   OH2 5438   4.492   5.354   3.424  0.5474 -0.4150  0.0095
 1811TIP3    H1 5439   4.468   5.315   3.508 -0.3294  0.1143  0.0222
 1811TIP3    H2 5440   4.430   5.318   3.362 -0.7871  1.4552  0.1545
 1812TIP3   OH2 5441  -0.010   5.322   0.092 -0.3302 -0.1066  0.4337
 1812TIP3    H1 5442  -0.000   5.376   0.170 -2.2913 -1.1534  1.4617
 1812TIP3    H2 5443   0.036   5.241   0.112 -3.2718 -1.5788  1.8123
 1813TIP3   OH2 5444   0.247   5.460   4.411 -0.5588  0.9507  0.5619
 1813TIP3    H1 5445   0.319   5.483   4.351 -1.7473  0.0900 -1.2943
 1813TIP3    H2 5446   0.262   5.514   4.488  2.2265  0.6167  0.3569
 1814TIP3   OH2 5447   4.990   4.714   0.884  0.2196  0.0064 -0.1482
 1814TIP3    H1 5448   4.909   4.757   0.854 -0.3980 -1.3564 -0.5073
 1814TIP3    H2 5449   4.996   4.738   0.977 -0.4238  0.3861 -0.1975
 1815TIP3   OH2 5450   3.089   3.261   1.981  0.2394 -0.1694 -0.1770
 1815TIP3    H1 5451   3.073   3.217   2.065 -1.4602  1.2266  0.2771
 1815TIP3    H2 5452   3.084   3.354   2.001  2.4178  0.2849 -1.3726
 1816TIP3   OH2 5453   6.289   3.540   4.860  0.4945  0.2471 -0.0291
 1816TIP3    H1 5454   6.366   3.483   4.849  0.3320 -0.2090  1.0906
 1816TIP3    H2 5455   6.215   3.479   4.863  0.2158  0.5953  0.1493
 1817TIP3   OH2 5456   2.899   1.642   3.331  0.4683  0.0733 -0.1308
 1817TIP3    H1 5457   2.836   1.708   3.359 -0.7400 -0.9295 -0.3697
 1817TIP3    H2 5458   2.938   1.610   3.412  0.0404  0.1156  0.0948
 1818TIP3   OH2 5459   3.407   1.920   2.858  0.2096  0.1613  0.4736
 1818TIP3    H1 5460   3.490   1.901   2.814  1.4782  0.9164  2.4104
 1818TIP3    H2 5461   3.425   1.906   2.951 -1.2604  2.2836  1.1568
 1819TIP3   OH2 5462   5.113   2.191   2.702 -0.5337  0.4985  0.1675
 1819TIP3    H1 5463   5.111   2.098   2.679 -2.7155  0.9009 -1.5947
 1819TIP3    H2 5464   5.105   2.192   2.798 -0.4257 -1.1069  0.2277
 1820TIP3   OH2 5465   3.613   0.290   4.351 -0.0704  0.3471  0.4670
 1820TIP3    H1 5466   3.641   0.351   4.283  0.0872 -0.5296 -0.2811
 1820TIP3    H2 5467   3.684   0.227   4.358 -1.4266 -1.4429 -0.8745
 1821TIP3   OH2 5468   1.648   0.327   3.402  0.7288 -0.3246  0.4499
 1821TIP3    H1 5469   1.573   0.360   3.453  0.6335 -3.0818  2.3281
 1821TIP3    H2 5470   1.614   0.317   3.313  0.1607  2.3474  0.2846
 1822TIP3   OH2 5471   3.924   2.918   2.731 -0.1928 -0.1023  0.3284
 1822TIP3    H1 5472   3.986   2.846   2.736 -0.6615 -0.5740 -0.4154
 1822TIP3    H2 5473   3.934   2.953   2.643 -0.2222  0.5182  0.5633
 1823TIP3   OH2 5474   0.880   5.988   2.345  0.2042  0.6665  0.2835
 1823TIP3    H1 5475   0.907   5.897   2.333 -0.8237  0.5149 -1.2844
 1823TIP3    H2 5476   0.961   6.037   2.359  1.0046 -0.1742 -1.2031
 1824TIP3   OH2 5477   3.150   3.943   0.140  0.3366 -0.4708 -0.0694
 1824TIP3    H1 5478   3.065   3.982   0.155  0.6757  0.4690 -0.5586
 1824TIP3    H2 5479   3.213   4.007   0.174  0.8164 -1.9469  2.0465
 1825TIP3   OH2 5480   1.237   4.857   2.175 -0.7128  0.1628 -0.0570
 1825TIP3    H1 5481   1.305   4.924   2.184 -0.1700 -0.3431 -0.3112
 1825TIP3    H2 5482   1.186   4.884   2.099 -1.3297  0.9965  0.6341
 1826TIP3   OH2 5483   1.403   5.588   1.221 -0.2542  0.0204  0.7540
 1826TIP3    H1 5484   1.453   5.524   1.171 -0.2764  1.3103 -1.0192
 1826TIP3    H2 5485   1.313   5.555   1.219 -0.0778 -0.4757  0.8647
 1827TIP3   OH2 5486   2.741   2.449   0.624 -0.0548  0.7999  0.0555
 1827TIP3    H1 5487   2.698   2.532   0.602 -1.9808 -0.4271 -1.1605
 1827TIP3    H2 5488   2.730   2.395   0.546  1.3218 -0.5541  0.7487
 1828TIP3   OH2 5489   4.803   0.414   4.459  0.2834  0.1968  0.1478
 1828TIP3    H1 5490   4.782   0.343   4.398  1.0732  1.6845 -2.0130
 1828TIP3    H2 5491   4.868   0.377   4.518  1.8772 -0.5079 -1.9321
 1829TIP3   OH2 5492   4.233   5.842   1.088 -0.6481 -0.3804 -0.3434
 1829TIP3    H1 5493   4.273   5.760   1.117 -1.5910 -1.0870 -0.9850
 1829TIP3    H2 5494   4.307   5.900   1.070  0.0431 -1.2170 -0.2521
 1830TIP3   OH2 5495   1.936   4.801   4.777 -0.5343 -0.4963  0.1775
 1830TIP3    H1 5496   1.871   4.735   4.755  1.1191 -1.6537 -1.5111
 1830TIP3    H2 5497   2.016   4.752   4.794  0.1905  0.9500  1.2420
 1831TIP3   OH2 5498   3.962   1.221   4.834 -0.1658  0.3489 -0.5317
 1831TIP3    H1 5499   3.868   1.233   4.816 -0.9230 -1.9252  1.4326
 1831TIP3    H2 5500   3.981   1.285   4.903 -0.6651 -0.1935  0.1200
 1832TIP3   OH2 5501   4.611   2.681   4.743  0.3957 -0.4168  0.1911
 1832TIP3    H1 5502   4.623   2.620   4.816  0.6623 -1.1371 -0.4420
 1832TIP3    H2 5503   4.592   2.765   4.785 -3.0991 -1.5076  1.0721
 1833TIP3   OH2 5504   3.202   4.613   1.049  0.7875  0.0472 -0.3504
 1833TIP3    H1 5505   3.211   4.602   1.144 -1.6682  0.8837  0.0473
 1833TIP3    H2 5506   3.211   4.524   1.014  0.2980 -0.4789  0.8066
 1834TIP3   OH2 5507   3.645   0.120   5.146 -0.3319  0.1276  0.4932
 1834TIP3    H1 5508   3.623   0.053   5.210 -1.2154  0.3556  0.4391
 1834TIP3    H2 5509   3.729   0.093   5.110 -2.3227 -3.0769 -2.3477
 1835TIP3   OH2 5510   0.094   2.479   0.953  0.1314  0.0644 -0.3243
 1835TIP3    H1 5511   0.095   2.540   1.027  1.1567  1.3648 -1.3635
 1835TIP3    H2 5512   0.117   2.395   0.991 -0.5527  0.4562  1.0255
 1836TIP3   OH2 5513   2.663   0.141   2.498 -0.2276 -0.1669  0.2151
 1836TIP3    H1 5514   2.653   0.143   2.402 -3.0282 -0.9391  0.4187
 1836TIP3    H2 5515   2.653   0.049   2.521  0.3527  0.0243  1.2963
 1837TIP3   OH2 5516   4.845   4.110   3.443 -0.0072  0.4338 -0.2596
 1837TIP3    H1 5517   4.823   4.166   3.518 -0.0492 -0.0289  0.0741
 1837TIP3    H2 5518   4.863   4.024   3.481 -1.6062 -0.2364 -0.9087
 1838TIP3   OH2 5519   0.649   4.190   2.778 -0.2931 -0.4626 -0.0812
 1838TIP3    H1 5520   0.636   4.139   2.858 -1.0958 -0.9543 -0.5099
 1838TIP3    H2 5521   0.679   4.276   2.808  1.8720 -1.4002  0.6352
 1839TIP3   OH2 5522   5.314   5.262   4.567 -0.1941  0.4610  0.3203
 1839TIP3    H1 5523   5.295   5.176   4.606 -1.9362  0.3165 -0.7289
 1839TIP3    H2 5524   5.227   5.299   4.548  0.5571  1.7618 -0.7349
 1840TIP3   OH2 5525   2.818   0.268   1.754  0.1457  0.3355 -0.7508
 1840TIP3    H1 5526   2.764   0.214   1.812  0.6817  1.4673  0.8630
 1840TIP3    H2 5527   2.883   0.207   1.718 -0.1448 -0.3731 -0.0871
 1841TIP3   OH2 5528   2.807   0.068   4.276  0.0667 -0.6047 -0.0500
 1841TIP3    H1 5529   2.887   0.050   4.325  0.0334  0.0532  0.2527
 1841TIP3    H2 5530   2.783   0.158   4.300  0.3078 -0.0916 -1.6178
 1842TIP3   OH2 5531   2.522   3.025   2.299  0.0920 -0.6971 -0.7118
 1842TIP3    H1 5532   2.471   3.093   2.255  0.7730 -0.5565 -1.2941
 1842TIP3    H2 5533   2.465   2.994   2.369  0.4410  1.7567  0.7829
 1843TIP3   OH2 5534   5.639   1.147   4.192  0.0474 -0.1260 -0.0446
 1843TIP3    H1 5535   5.553   1.106   4.195 -0.1551  0.3036  2.4468
 1843TIP3    H2 5536   5.700   1.076   4.213  0.1728 -0.1481 -0.4782
 1844TIP3   OH2 5537   5.556   4.569   2.244 -0.5138  0.5276 -0.4451
 1844TIP3    H1 5538   5.581   4.647   2.293 -1.0419 -0.0404  0.7853
 1844TIP3    H2 5539   5.486   4.530   2.295  0.7251 -1.5579 -0.1942
 1845TIP3   OH2 5540   3.394   2.994   4.369 -0.3796 -0.2280  0.1513
 1845TIP3    H1 5541   3.375   2.901   4.375 -1.1500  0.0021  1.8213
 1845TIP3    H2 5542   3.354   3.022   4.287 -1.9468 -0.9808  0.6187
 1846TIP3   OH2 5543   6.144   1.902   4.272 -0.0941 -0.5202 -0.0636
 1846TIP3    H1 5544   6.157   1.915   4.178  0.2794 -2.4213 -0.3186
 1846TIP3    H2 5545   6.064   1.850   4.279  1.6004 -3.2879  0.3662
 1847TIP3   OH2 5546   0.096   4.281   2.433  0.4123  0.5070  0.6172
 1847TIP3    H1 5547   0.155   4.214   2.467  0.9051  0.8223  0.3953
 1847TIP3    H2 5548   0.118   4.288   2.340  0.2191  0.8274  0.5921
 1848TIP3   OH2 5549   0.647   1.125   2.121 -0.1162 -0.4193 -0.2169
 1848TIP3    H1 5550   0.592   1.155   2.194  0.5708  1.2220 -0.3313
 1848TIP3    H2 5551   0.592   1.064   2.073 -1.2603 -0.0554  0.5851
 1849TIP3   OH2 5552   2.390   5.646   3.786 -0.4120  0.3406  0.7191
 1849TIP3    H1 5553   2.407   5.554   3.765  0.9923  0.6638  0.3096
 1849TIP3    H2 5554   2.304   5.664   3.747 -0.0955 -0.4486 -0.4024
 1850TIP3   OH2 5555   4.434   3.224   1.570  0.7432  0.3299 -0.0669
 1850TIP3    H1 5556   4.432   3.298   1.631  1.9957  0.1735  0.1949
 1850TIP3    H2 5557   4.348   3.225   1.528 -0.7521 -0.4293  2.7306
 1851TIP3   OH2 5558   4.596   0.852   0.640 -0.0053 -0.4761 -0.8189
 1851TIP3    H1 5559   4.560   0.819   0.557 -0.4744  1.2445 -1.3408
 1851TIP3    H2 5560   4.520   0.883   0.689  0.5454  1.8602 -1.3214
 1852TIP3   OH2 5561   6.336   1.693   4.372 -0.0569 -0.3324  0.1962
 1852TIP3    H1 5562   6.290   1.774   4.348  1.2501 -0.1136 -1.9135
 1852TIP3    H2 5563   6.270   1.640   4.416 -1.2391  1.4582  0.7091
 1853TIP3   OH2 5564   3.284   2.312   1.884 -0.3077 -0.3700 -0.1972
 1853TIP3    H1 5565   3.264   2.356   1.801  0.9330  0.8619  0.1167
 1853TIP3    H2 5566   3.211   2.252   1.897 -1.2233  0.3936 -1.5032
 1854TIP3   OH2 5567   0.389   0.035   4.304  0.1789 -0.1751 -0.4176
 1854TIP3    H1 5568   0.395   0.010   4.397 -0.3587  0.1649 -0.2895
 1854TIP3    H2 5569   0.301   0.072   4.294  0.4902  0.4676 -0.8949
 1855TIP3   OH2 5570   1.342   5.962   0.750  0.0272 -0.3141 -0.5930
 1855TIP3    H1 5571   1.355   5.907   0.827  2.2017  1.1613  0.1652
 1855TIP3    H2 5572   1.409   5.932   0.688  0.4985  0.7153 -0.5954
 1856TIP3   OH2 5573   2.865   5.355   2.052  0.3798 -0.2132  0.2122
 1856TIP3    H1 5574   2.847   5.442   2.017 -0.0338 -0.4089 -0.0731
 1856TIP3    H2 5575   2.782   5.326   2.089  0.3891 -0.6649 -0.1013
 1857TIP3   OH2 5576   0.252   1.212   2.962 -0.4397  0.6308 -0.1607
 1857TIP3    H1 5577   0.158   1.194   2.955 -0.3126  0.1924 -0.7460
 1857TIP3    H2 5578   0.271   1.203   3.056 -1.0940  1.3010  0.0460
 1858TIP3   OH2 5579   0.567   3.124   2.337 -0.0125 -0.5667  0.8292
 1858TIP3    H1 5580   0.613   3.062   2.281 -0.4205  0.0599 -0.2187
 1858TIP3    H2 5581   0.477   3.092   2.339 -0.3135  0.1903 -0.0366
 1859TIP3   OH2 5582   3.548   1.838   1.768 -0.1080 -0.1879 -0.0402
 1859TIP3    H1 5583   3.502   1.756   1.753 -2.7941  1.1508  0.3596
 1859TIP3    H2 5584   3.486   1.893   1.816  3.0444  0.6856  3.5731
 1860TIP3   OH2 5585   1.965   1.951   0.418 -0.0515 -0.1923  0.4045
 1860TIP3    H1 5586   1.928   2.031   0.454 -1.5948 -0.2860 -0.8600
 1860TIP3    H2 5587   2.030   1.981   0.355 -0.6214  0.0853 -0.0627
 1861TIP3   OH2 5588   4.823   0.053   4.507 -0.8420  0.2174 -0.1628
 1861TIP3    H1 5589   4.830   0.009   4.423  0.0237 -0.1322  0.0752
 1861TIP3    H2 5590   4.766   0.128   4.491 -0.1940  0.5089 -1.2162
 1862TIP3   OH2 5591   2.223   0.551   2.166  0.5911 -0.3636 -0.5677
 1862TIP3    H1 5592   2.283   0.483   2.198 -0.2841 -0.9295 -0.0787
 1862TIP3    H2 5593   2.136   0.512   2.175  0.1097  0.6359 -0.7736
 1863TIP3   OH2 5594   5.654   2.172   1.593 -0.3771 -0.1110  0.2525
 1863TIP3    H1 5595   5.603   2.126   1.660 -0.4564 -0.3629  0.0186
 1863TIP3    H2 5596   5.664   2.261   1.628 -3.5339  0.8617 -1.0367
 1864TIP3   OH2 5597   0.729   1.218   5.116 -0.2910 -0.0803  0.0978
 1864TIP3    H1 5598   0.676   1.141   5.096  1.0565 -1.0495  0.1705
 1864TIP3    H2 5599   0.668   1.292   5.105 -1.1858 -1.0059 -1.5840
 1865TIP3   OH2 5600   3.300   0.205   3.783 -0.3306 -0.0515 -0.1043
 1865TIP3    H1 5601   3.317   0.221   3.690 -1.2567 -0.0725 -0.2911
 1865TIP3    H2 5602   3.236   0.133   3.783 -1.4137  0.8833  0.4834
 1866TIP3   OH2 5603   2.649   2.373   3.100  0.2473  0.4154  0.2498
 1866TIP3    H1 5604   2.605   2.305   3.049  3.2564 -0.1214 -1.9110
 1866TIP3    H2 5605   2.714   2.325   3.152  0.2846  1.3841  1.1244
 1867TIP3   OH2 5606   4.087   5.310   1.665  0.2372 -0.0067  0.1393
 1867TIP3    H1 5607   4.014   5.289   1.723  1.7943  0.1247  2.2749
 1867TIP3    H2 5608   4.102   5.403   1.678 -0.3723  0.3879 -1.7447
 1868TIP3   OH2 5609   1.489   3.385   3.275  0.0645 -0.0752 -0.2040
 1868TIP3    H1 5610   1.420   3.422   3.220 -0.1656 -0.0846  0.0757
 1868TIP3    H2 5611   1.512   3.455   3.335 -0.6324 -0.4942  0.5701
 1869TIP3   OH2 5612   5.291   4.508   4.115 -0.3334  0.4360  0.0156
 1869TIP3    H1 5613   5.251   4.441   4.060  0.0260 -0.5931  0.9689
 1869TIP3    H2 5614   5.303   4.583   4.057 -1.5332 -0.0165 -0.8619
 1870TIP3   OH2 5615   1.200   2.758   4.229 -0.5329  0.4468  0.1427
 1870TIP3    H1 5616   1.156   2.678   4.259  0.7963 -0.7662 -0.9906
 1870TIP3    H2 5617   1.197   2.752   4.133 -0.5604  1.8565  0.0421
 1871TIP3   OH2 5618   5.051   3.227   4.977  0.3138 -0.2589  0.8265
 1871TIP3    H1 5619   5.055   3.133   4.990  0.8367 -0.0455  2.4747
 1871TIP3    H2 5620   5.118   3.263   5.035 -0.3827  1.1703  0.8145
 1872TIP3   OH2 5621   5.924   0.411   4.037  0.1310  0.0181  0.6125
 1872TIP3    H1 5622   5.923   0.437   4.129  0.5434 -0.5153  0.7674
 1872TIP3    H2 5623   5.831   0.411   4.012 -0.0628 -0.7743  1.2955
 1873TIP3   OH2 5624   4.838   4.487   2.743 -0.1025  0.4901  0.0536
 1873TIP3    H1 5625   4.757   4.522   2.705  0.2442 -0.6946 -1.8923
 1873TIP3    H2 5626   4.818   4.395   2.761  1.3031 -0.3312 -2.1878
 1874TIP3   OH2 5627   3.288   3.249   4.520  0.2709  0.2991 -0.3736
 1874TIP3    H1 5628   3.342   3.177   4.551  0.2757 -0.2291 -1.5492
 1874TIP3    H2 5629   3.347   3.300   4.464  0.3355  1.3623  0.6346
 1875TIP3   OH2 5630   1.798   1.150   1.072 -0.6196  0.7546 -0.4384
 1875TIP3    H1 5631   1.794   1.068   1.021  0.5404  0.1985  0.3319
 1875TIP3    H2 5632   1.802   1.121   1.163 -4.4143  1.7366  0.2299
 1876TIP3   OH2 5633   0.933   4.671   0.605  0.0568  0.1556  0.2134
 1876TIP3    H1 5634   0.962   4.588   0.568 -0.7538 -0.3198  0.6162
 1876TIP3    H2 5635   1.008   4.729   0.596  0.2658 -0.2790 -1.1225
 1877TIP3   OH2 5636   3.722   3.230   0.451 -0.0534 -0.0120  0.2285
 1877TIP3    H1 5637   3.784   3.302   0.438  0.4995 -0.2377  1.4704
 1877TIP3    H2 5638   3.687   3.243   0.539 -0.2135 -1.0509  0.3385
 1878TIP3   OH2 5639   1.503   5.000   2.680  0.6222  0.0945  0.2219
 1878TIP3    H1 5640   1.492   4.931   2.614  1.2901 -0.6601  0.8797
 1878TIP3    H2 5641   1.447   5.071   2.649  1.2083 -0.0895 -1.3523
 1879TIP3   OH2 5642   3.747   1.233   1.552  0.3035 -0.0201  0.5791
 1879TIP3    H1 5643   3.662   1.257   1.516 -0.6601 -1.9022  1.4818
 1879TIP3    H2 5644   3.797   1.200   1.478 -0.8076 -1.6227  0.5162
 1880TIP3   OH2 5645   0.625   4.499   2.683 -0.0595 -0.6743  0.0914
 1880TIP3    H1 5646   0.549   4.524   2.630  1.0338  1.7402 -0.4598
 1880TIP3    H2 5647   0.677   4.579   2.690  0.3865 -1.0930  3.9899
 1881TIP3   OH2 5648   3.674   4.415   4.318 -0.7436  0.2249 -0.2250
 1881TIP3    H1 5649   3.655   4.451   4.405 -1.2622  0.8379 -0.5839
 1881TIP3    H2 5650   3.671   4.491   4.260  0.4258 -0.0465 -0.6650
 1882TIP3   OH2 5651   2.357   1.197   1.329 -0.3540 -0.6329  0.0514
 1882TIP3    H1 5652   2.353   1.115   1.378 -2.3811  0.0029  1.0708
 1882TIP3    H2 5653   2.413   1.254   1.381  0.5008 -1.1165 -0.3118
 1883TIP3   OH2 5654   2.466   5.373   3.756  0.3005  0.3479  0.1299
 1883TIP3    H1 5655   2.471   5.285   3.793  0.5611  0.2582 -0.1163
 1883TIP3    H2 5656   2.543   5.418   3.791  0.2467  0.4310  0.1405
 1884TIP3   OH2 5657   5.117   0.179   3.260 -0.7090 -0.4586 -0.6365
 1884TIP3    H1 5658   5.210   0.167   3.243 -0.5644 -0.4690  0.1241
 1884TIP3    H2 5659   5.084   0.223   3.182 -0.4003 -1.8933 -1.6043
 1885TIP3   OH2 5660   5.692   5.539   3.970  0.4214  0.3579 -0.2664
 1885TIP3    H1 5661   5.674   5.450   3.940 -1.5829  1.2101 -1.7743
 1885TIP3    H2 5662   5.778   5.560   3.932  0.7820 -0.7879 -0.1237
 1886TIP3   OH2 5663   5.849   3.270   3.649 -0.2413  0.2123 -0.1349
 1886TIP3    H1 5664   5.928   3.282   3.702  1.0098 -1.3573 -1.5172
 1886TIP3    H2 5665   5.790   3.339   3.678  1.3594  1.0012  1.4633
 1887TIP3   OH2 5666   1.081   3.873   0.926 -0.3566 -0.6361  0.4876
 1887TIP3    H1 5667   1.133   3.858   0.847 -0.2518  0.2034  0.3946
 1887TIP3    H2 5668   1.103   3.799   0.983 -0.8161 -1.5207 -0.4579
 1888TIP3   OH2 5669   1.697   4.986   1.436  0.1103 -0.3641 -0.3595
 1888TIP3    H1 5670   1.667   4.933   1.363 -2.5576  0.3063  0.1425
 1888TIP3    H2 5671   1.671   4.938   1.514 -1.1047  0.9621  0.1013
 1889TIP3   OH2 5672   5.085   3.240   3.532 -0.2211  0.7434  0.2319
 1889TIP3    H1 5673   5.107   3.296   3.458 -0.8845  1.7812  0.7821
 1889TIP3    H2 5674   5.018   3.181   3.499  1.2601 -0.5033 -0.6585
 1890TIP3   OH2 5675   6.127   3.583   4.011 -0.3495 -0.3628 -0.2883
 1890TIP3    H1 5676   6.124   3.500   3.964 -1.0379 -2.3016  2.8645
 1890TIP3    H2 5677   6.188   3.567   4.083 -1.2448  1.5512  0.9803
 1891TIP3   OH2 5678   2.717   2.752   0.659  0.1035 -0.1411 -0.5947
 1891TIP3    H1 5679   2.673   2.830   0.625 -0.9176 -0.9617 -1.2180
 1891TIP3    H2 5680   2.810   2.769   0.646 -0.0745  1.1358 -0.3372
 1892TIP3   OH2 5681   1.928   1.715   4.854 -0.2338  0.2408  0.0010
 1892TIP3    H1 5682   1.937   1.639   4.912 -1.4207 -0.7427 -1.0610
 1892TIP3    H2 5683   2.010   1.716   4.804 -1.4686 -2.4833 -2.3855
 1893TIP3   OH2 5684   5.176   5.180   1.843 -1.0190 -0.5930  0.3140
 1893TIP3    H1 5685   5.094   5.151   1.804  0.4576 -1.2233 -2.6082
 1893TIP3    H2 5686   5.235   5.105   1.835  0.5824  0.6482 -0.1110
 1894TIP3   OH2 5687   2.197   4.480   0.701 -0.0235 -0.2818  0.2620
 1894TIP3    H1 5688   2.214   4.401   0.754  0.6186 -0.1789  0.2262
 1894TIP3    H2 5689   2.285   4.511   0.677 -0.3090 -0.6978 -1.4128
 1895TIP3   OH2 5690   4.770   4.961   0.510  0.0309  0.0120 -0.1927
 1895TIP3    H1 5691   4.753   5.054   0.528 -0.0265 -0.2403  1.1428
 1895TIP3    H2 5692   4.860   4.958   0.477 -0.2929  0.6381 -1.1777
 1896TIP3   OH2 5693   0.946   4.114   4.723  0.6774  0.4247  0.2535
 1896TIP3    H1 5694   0.923   4.119   4.631  0.3144 -1.0490  0.2446
 1896TIP3    H2 5695   0.929   4.203   4.757 -0.7518  0.5581 -0.7324
 1897TIP3   OH2 5696   4.819   5.533   2.704 -0.2623 -0.2131  0.1098
 1897TIP3    H1 5697   4.821   5.441   2.679  0.6855 -0.4923  1.1056
 1897TIP3    H2 5698   4.879   5.576   2.644 -1.0362 -0.1520 -0.6378
 1898TIP3   OH2 5699   1.356   5.076   2.928  0.1307  0.7520 -0.1489
 1898TIP3    H1 5700   1.391   5.165   2.938  1.2924  0.1021  2.5373
 1898TIP3    H2 5701   1.396   5.044   2.847  0.5854  2.2788 -0.5633
 1899TIP3   OH2 5702   1.148   0.795   2.075 -0.3164  0.3857 -0.0743
 1899TIP3    H1 5703   1.199   0.715   2.066  0.3302  0.3024  3.1696
 1899TIP3    H2 5704   1.125   0.799   2.168 -1.4790  3.2786 -0.3767
 1900TIP3   OH2 5705   1.531   0.150   0.305 -0.1232 -0.0609 -0.1446
 1900TIP3    H1 5706   1.572   0.131   0.221 -1.6355 -1.2170 -0.6779
 1900TIP3    H2 5707   1.554   0.075   0.360  0.8380  0.6774  0.4957
 1901TIP3   OH2 5708   1.584   2.926   1.422 -0.3257  0.2709  0.0510
 1901TIP3    H1 5709   1.589   2.973   1.505 -0.0074 -2.2990  1.5694
 1901TIP3    H2 5710   1.498   2.949   1.387 -1.0246  0.3724  1.7363
 1902TIP3   OH2 5711   4.495   1.101   2.196 -0.3776 -0.7687  0.5250
 1902TIP3    H1 5712   4.535   1.130   2.279  0.2075  0.5763 -0.2056
 1902TIP3    H2 5713   4.402   1.092   2.217 -1.0816  3.8016  0.3610
 1903TIP3   OH2 5714   3.553   3.539   0.371 -0.0261  0.6668 -0.1414
 1903TIP3    H1 5715   3.558   3.511   0.279  0.4839  1.9435 -0.5330
 1903TIP3    H2 5716   3.459   3.542   0.389 -0.3363  3.3367 -1.6432
 1904TIP3   OH2 5717   2.722   4.596   3.640 -0.0720  0.2247 -0.3470
 1904TIP3    H1 5718   2.784   4.665   3.618 -0.3415  1.2453  1.8470
 1904TIP3    H2 5719   2.758   4.556   3.720 -0.5546 -1.3747 -0.8879
 1905TIP3   OH2 5720   6.330   0.297   3.045  0.7255 -0.2855  0.1195
 1905TIP3    H1 5721   6.280   0.373   3.018 -0.3042 -1.6035 -1.9192
 1905TIP3    H2 5722   6.303   0.281   3.136  2.4881  2.8836  1.3358
 1906TIP3   OH2 5723   6.106   1.687   0.902  0.1721  0.1299  0.1138
 1906TIP3    H1 5724   6.053   1.759   0.937  2.0268  0.8867  1.5417
 1906TIP3    H2 5725   6.066   1.608   0.939 -2.2145  0.2682 -1.8977
 1907TIP3   OH2 5726   3.402   2.060   1.819  0.5149  0.5460 -0.7206
 1907TIP3    H1 5727   3.377   2.138   1.868  1.9723  1.7961 -1.8625
 1907TIP3    H2 5728   3.354   2.066   1.737  0.8052  0.3667 -0.9081
 1908TIP3   OH2 5729   2.439   5.379   0.944  0.4170 -0.7261 -0.2573
 1908TIP3    H1 5730   2.461   5.437   0.872  0.7515 -1.9337 -1.1450
 1908TIP3    H2 5731   2.503   5.400   1.012  0.1079  0.4060 -0.2904
 1909TIP3   OH2 5732   5.053   3.838   5.092  0.8067 -0.0364  0.0255
 1909TIP3    H1 5733   5.085   3.822   5.003  0.4361 -0.5346 -0.0177
 1909TIP3    H2 5734   5.099   3.918   5.119  0.2881  0.6012 -0.9266
 1910TIP3   OH2 5735   0.084   3.910   3.450  0.1186 -0.4795 -0.3541
 1910TIP3    H1 5736   0.110   3.842   3.388  1.1004  0.3165 -0.8460
 1910TIP3    H2 5737  -0.011   3.902   3.456 -0.0266 -0.4861 -2.0831
 1911TIP3   OH2 5738   1.347   3.622   0.480  0.7059  0.5649  0.5220
 1911TIP3    H1 5739   1.371   3.535   0.513 -0.4440 -0.1573 -0.4364
 1911TIP3    H2 5740   1.253   3.617   0.467  0.7969  1.5564 -0.6937
 1912TIP3   OH2 5741   2.714   4.127   3.018 -0.0748  0.0065 -0.6326
 1912TIP3    H1 5742   2.623   4.099   3.016 -0.1078 -0.1382  1.0877
 1912TIP3    H2 5743   2.732   4.144   3.111  1.5685  0.2991 -0.9646
 1913TIP3   OH2 5744   0.520   1.864   1.101  1.0572  0.2575  0.3307
 1913TIP3    H1 5745   0.430   1.831   1.103  0.4954  1.7531  0.2708
 1913TIP3    H2 5746   0.561   1.825   1.178  0.9571 -1.9852 -0.6526
 1914TIP3   OH2 5747   4.463   4.802   1.574 -0.1464 -0.0591 -0.1833
 1914TIP3    H1 5748   4.461   4.754   1.657  0.4303  0.2079 -0.0134
 1914TIP3    H2 5749   4.443   4.735   1.508  0.3269 -0.4777  0.0856
 1915TIP3   OH2 5750   2.846   5.934   3.303 -0.4231  0.4495 -0.1814
 1915TIP3    H1 5751   2.780   5.919   3.235 -0.2165  2.2280 -0.8388
 1915TIP3    H2 5752   2.902   6.002   3.266  0.7290  0.2273  1.0978
 1916TIP3   OH2 5753   3.627   0.180   0.529 -0.2933 -0.8158 -0.3958
 1916TIP3    H1 5754   3.683   0.181   0.607 -2.6181 -0.1905  1.3754
 1916TIP3    H2 5755   3.614   0.087   0.509  1.4246 -0.9759 -0.9577
 1917TIP3   OH2 5756   1.902   3.650   4.679 -0.1971 -1.2186  0.1021
 1917TIP3    H1 5757   1.940   3.719   4.624  0.0648 -0.2441  1.4596
 1917TIP3    H2 5758   1.881   3.694   4.761 -0.6582 -2.6206  0.7592
 1918TIP3   OH2 5759   1.097   4.463   0.528  0.4204 -0.1129 -0.4900
 1918TIP3    H1 5760   1.067   4.455   0.437  1.5471  0.9884 -0.9910
 1918TIP3    H2 5761   1.067   4.383   0.570 -1.5302  0.0746 -1.4070
 1919TIP3   OH2 5762   2.948   1.283   4.784  0.4217  0.4472 -0.1769
 1919TIP3    H1 5763   2.936   1.262   4.877  1.2635 -0.5901 -0.2759
 1919TIP3    H2 5764   3.041   1.265   4.768 -0.0769 -1.1378 -1.6222
 1920TIP3   OH2 5765   2.021   4.188   4.583 -0.1019 -0.2355  0.4801
 1920TIP3    H1 5766   2.073   4.144   4.515 -0.5527  0.4976 -0.3533
 1920TIP3    H2 5767   1.945   4.132   4.594 -0.5870  0.2216 -0.4512
 1921TIP3   OH2 5768   3.372   0.315   1.718 -0.0821  0.1295 -0.0795
 1921TIP3    H1 5769   3.386   0.301   1.625 -0.3338  1.8984 -0.4138
 1921TIP3    H2 5770   3.331   0.235   1.749 -2.7665  0.6190 -2.1047
 1922TIP3   OH2 5771  -0.012   1.621   4.022  0.0192 -0.1164  1.0077
 1922TIP3    H1 5772   0.071   1.668   4.011  0.1943 -0.5270  0.5638
 1922TIP3    H2 5773   0.014   1.531   4.044 -0.2077 -1.1126 -2.2861
 1923TIP3   OH2 5774   5.003   3.478   2.355 -0.2528  0.2437  0.6174
 1923TIP3    H1 5775   5.006   3.562   2.309 -1.6689 -0.0024  0.0182
 1923TIP3    H2 5776   5.080   3.479   2.412  0.6917  1.2202 -0.6223
 1924TIP3   OH2 5777   3.932   3.943   4.049 -0.6927  0.1959 -0.6003
 1924TIP3    H1 5778   3.914   4.015   3.989  2.7282  1.3103 -0.4894
 1924TIP3    H2 5779   3.902   3.975   4.135  0.3056  1.2860 -0.6475
 1925TIP3   OH2 5780   5.892   4.445   3.814 -0.6325 -0.0557 -0.1575
 1925TIP3    H1 5781   5.983   4.414   3.806 -0.1435  1.4717 -1.0039
 1925TIP3    H2 5782   5.896   4.512   3.882 -0.9526  0.5929 -0.7705
 1926TIP3   OH2 5783   3.761   2.125   4.108 -0.3220 -0.7323 -0.5439
 1926TIP3    H1 5784   3.752   2.160   4.019 -1.5231 -2.1883 -1.0479
 1926TIP3    H2 5785   3.689   2.063   4.116 -0.1974 -0.6658  1.4553
 1927TIP3   OH2 5786   4.068   5.713   1.848 -0.1641 -0.3513 -0.2787
 1927TIP3    H1 5787   4.123   5.639   1.871 -2.1877 -1.1886  2.5020
 1927TIP3    H2 5788   4.013   5.682   1.776 -0.9881 -1.6326  0.8591
 1928TIP3   OH2 5789   0.846   2.374   4.822  0.7085 -0.0103 -0.0996
 1928TIP3    H1 5790   0.771   2.376   4.762  0.0207 -0.3178  0.7149
 1928TIP3    H2 5791   0.808   2.398   4.907  1.2373 -1.6164  0.6284
 1929TIP3   OH2 5792   4.029   3.967   2.764  0.1709 -0.4069 -0.3529
 1929TIP3    H1 5793   4.029   4.043   2.822 -1.9157 -0.3451 -0.3491
 1929TIP3    H2 5794   4.100   3.984   2.702 -1.3530  2.5514 -1.5373
 1930TIP3   OH2 5795   4.192   2.558   0.467  0.0767 -0.2661  0.4253
 1930TIP3    H1 5796   4.224   2.629   0.413 -0.8794 -0.3581 -0.2810
 1930TIP3    H2 5797   4.174   2.486   0.406  0.6461 -0.9813  1.0728
 1931TIP3   OH2 5798   0.983   3.398   0.121  1.1467 -0.0704 -0.0734
 1931TIP3    H1 5799   0.938   3.344   0.055 -0.4499 -0.2147  1.0691
 1931TIP3    H2 5800   1.059   3.433   0.075 -1.0930  1.7688 -2.7876
 1932TIP3   OH2 5801   4.592   5.441   5.131  0.4573 -0.2020  0.1954
 1932TIP3    H1 5802   4.646   5.516   5.157  0.8507 -0.3545 -0.1714
 1932TIP3    H2 5803   4.602   5.436   5.036 -0.6504  0.1013  0.0415
 1933TIP3   OH2 5804   6.111   4.240   3.297 -0.5286  0.3262  0.3226
 1933TIP3    H1 5805   6.175   4.194   3.243  1.0222  2.5703  0.0967
 1933TIP3    H2 5806   6.026   4.215   3.261  0.3337 -0.5675 -1.1944
 1934TIP3   OH2 5807   2.781   3.992   4.789 -0.4097 -0.5104  0.4272
 1934TIP3    H1 5808   2.768   4.087   4.797  0.2019 -0.1345 -2.3156
 1934TIP3    H2 5809   2.698   3.954   4.820 -1.4709  1.0387 -0.3984
 1935TIP3   OH2 5810   0.736   0.964   3.503 -0.2433 -0.2719 -0.4111
 1935TIP3    H1 5811   0.666   1.023   3.530 -0.0024  0.5220 -1.4730
 1935TIP3    H2 5812   0.691   0.893   3.457 -0.4377 -0.3916 -0.0467
 1936TIP3   OH2 5813   2.694   4.557   0.170  0.6487 -0.0835  0.2034
 1936TIP3    H1 5814   2.692   4.653   0.169  0.3988 -0.0874 -0.4313
 1936TIP3    H2 5815   2.656   4.533   0.255  1.3050  0.3831  0.6366
 1937TIP3   OH2 5816   1.065   0.429   0.145 -0.4451 -0.0463 -0.3017
 1937TIP3    H1 5817   1.066   0.401   0.236  0.2572  0.6474 -0.0889
 1937TIP3    H2 5818   1.054   0.347   0.095  0.9195 -0.6433  0.3313
 1938TIP3   OH2 5819   0.231   2.582   4.023  0.1637 -0.5570  0.1130
 1938TIP3    H1 5820   0.271   2.514   4.076 -0.3477 -0.7758  0.2236
 1938TIP3    H2 5821   0.147   2.599   4.065 -1.5119 -2.6312 -2.0748
 1939TIP3   OH2 5822   2.169   0.366   4.660 -0.0403  0.0573  0.3282
 1939TIP3    H1 5823   2.106   0.313   4.709  2.3602 -2.5283  0.8885
 1939TIP3    H2 5824   2.246   0.368   4.716  1.8545 -0.6126 -2.0869
 1940TIP3   OH2 5825   0.274   5.303   0.600 -0.1771  0.2814 -0.5177
 1940TIP3    H1 5826   0.264   5.211   0.623  0.3920  0.5335  0.8234
 1940TIP3    H2 5827   0.186   5.340   0.609 -0.4923 -0.2094 -1.4909
 1941TIP3   OH2 5828   1.240   4.133   1.792 -0.1057 -0.1431  0.2014
 1941TIP3    H1 5829   1.228   4.159   1.883  1.0158  1.2419 -0.0149
 1941TIP3    H2 5830   1.170   4.070   1.776 -0.7715  0.1377  1.8013
 1942TIP3   OH2 5831   5.722   4.876   0.081  0.0898  0.1372 -0.5575
 1942TIP3    H1 5832   5.798   4.835   0.039  0.1023 -1.0854  0.5701
 1942TIP3    H2 5833   5.686   4.935   0.015  1.9520  0.6588 -1.1548
 1943TIP3   OH2 5834   1.161   4.665   2.368  0.4718  0.3940 -0.1399
 1943TIP3    H1 5835   1.182   4.579   2.331  2.6123  0.4450  0.8512
 1943TIP3    H2 5836   1.178   4.726   2.296 -1.6299  0.0090 -1.0445
 1944TIP3   OH2 5837   4.767   4.228   2.905  0.1582  0.3151 -0.6375
 1944TIP3    H1 5838   4.692   4.239   2.964  0.5181 -0.1733 -0.0675
 1944TIP3    H2 5839   4.729   4.216   2.818 -0.4393 -0.2724 -0.3012
 1945TIP3   OH2 5840   3.724   5.865   5.164 -0.4084 -0.0658  0.1056
 1945TIP3    H1 5841   3.762   5.782   5.194  0.6582  0.2511 -0.3323
 1945TIP3    H2 5842   3.638   5.841   5.131 -0.3138 -0.9172  0.4517
 1946TIP3   OH2 5843   1.741   2.527   5.151  0.3950  0.1987 -0.6952
 1946TIP3    H1 5844   1.789   2.604   5.121  0.2810 -0.0661 -1.5845
 1946TIP3    H2 5845   1.800   2.485   5.214 -0.1513  1.8069  0.9863
 1947TIP3   OH2 5846   0.163   3.865   1.355 -0.2974 -0.0376  0.4692
 1947TIP3    H1 5847   0.113   3.877   1.435  0.0374 -0.7532  0.7961
 1947TIP3    H2 5848   0.106   3.899   1.286 -0.5887  0.5825  1.0023
 1948TIP3   OH2 5849   3.795   2.455   2.970 -1.0553 -0.6511 -0.0744
 1948TIP3    H1 5850   3.803   2.549   2.986  0.8757 -0.5904 -1.0774
 1948TIP3    H2 5851   3.811   2.414   3.056  0.5035 -0.1120 -0.0863
 1949TIP3   OH2 5852   5.255   3.781   0.823  0.0760  0.5331 -0.5159
 1949TIP3    H1 5853   5.337   3.777   0.873  0.3318  0.4846 -0.9378
 1949TIP3    H2 5854   5.280   3.816   0.738 -0.4344  1.0405 -0.4636
 1950TIP3   OH2 5855   4.905   1.831   1.475 -0.1791  0.1967  0.0260
 1950TIP3    H1 5856   4.835   1.767   1.463 -1.3664  1.2442  1.1000
 1950TIP3    H2 5857   4.861   1.916   1.471  1.1573  0.9181 -0.0633
 1951TIP3   OH2 5858   1.591   1.286   4.072  0.0344  0.6082  0.1766
 1951TIP3    H1 5859   1.582   1.292   3.977 -1.0159 -0.5662  0.1838
 1951TIP3    H2 5860   1.681   1.257   4.085 -0.1021 -0.1709 -0.5133
 1952TIP3   OH2 5861   0.200   0.844   0.137 -0.0429  0.6836 -0.1014
 1952TIP3    H1 5862   0.127   0.890   0.095  0.1040  1.7272  0.7356
 1952TIP3    H2 5863   0.242   0.911   0.192 -1.1857 -0.9129  2.9383
 1953TIP3   OH2 5864   6.102   2.725   1.010 -0.2342  0.4829 -0.5385
 1953TIP3    H1 5865   6.110   2.813   0.974  2.0809  1.3156  1.6722
 1953TIP3    H2 5866   6.157   2.671   0.953 -0.1072  0.8701 -0.7888
 1954TIP3   OH2 5867   5.173   1.134   2.442  0.0852  1.1266 -0.2517
 1954TIP3    H1 5868   5.257   1.169   2.413  0.4382  0.7781  0.3042
 1954TIP3    H2 5869   5.108   1.171   2.382  0.4215  2.7655  0.3394
 1955TIP3   OH2 5870   5.610   0.400   4.805 -0.3799  1.0985  0.0279
 1955TIP3    H1 5871   5.652   0.476   4.846 -1.1372  2.1266 -1.0154
 1955TIP3    H2 5872   5.516   0.417   4.815 -0.5637  0.7093 -0.9146
 1956TIP3   OH2 5873   5.137   1.615   3.944  0.5748 -0.0872 -0.2223
 1956TIP3    H1 5874   5.046   1.634   3.968  1.2804  2.2577  0.8639
 1956TIP3    H2 5875   5.187   1.632   4.024  2.0666 -0.6191 -1.0082
 1957TIP3   OH2 5876   2.726   4.366   4.209  0.1151  0.1679  0.2947
 1957TIP3    H1 5877   2.775   4.308   4.267 -0.1023 -0.2984  0.0176
 1957TIP3    H2 5878   2.792   4.412   4.158  0.2680 -0.9261 -0.5337
 1958TIP3   OH2 5879   4.128   3.881   3.134 -0.0230 -0.5499  0.3756
 1958TIP3    H1 5880   4.119   3.974   3.114  0.2211 -1.0525 -2.5979
 1958TIP3    H2 5881   4.206   3.876   3.189 -1.1185  1.1121  2.2197
 1959TIP3   OH2 5882   2.587   0.446   1.740  0.3119  0.0112 -0.3508
 1959TIP3    H1 5883   2.582   0.497   1.821 -0.8509 -0.0961 -0.3485
 1959TIP3    H2 5884   2.653   0.379   1.759 -0.4937 -0.4848  0.7778
 1960TIP3   OH2 5885   6.197   2.727   0.609 -0.4096  0.2682 -0.5352
 1960TIP3    H1 5886   6.285   2.715   0.572 -0.0435  2.3024 -0.4614
 1960TIP3    H2 5887   6.211   2.730   0.704 -0.3747  1.5230 -0.5546
 1961TIP3   OH2 5888   1.793   5.429   3.003 -0.4845  0.4404  0.4381
 1961TIP3    H1 5889   1.863   5.405   2.943  0.6005  1.8956  1.0688
 1961TIP3    H2 5890   1.802   5.368   3.076 -0.2542  0.2381  0.2419
 1962TIP3   OH2 5891   4.941   0.924   4.764  0.6612  0.1165 -0.1138
 1962TIP3    H1 5892   4.894   0.855   4.812  2.1359 -1.1756 -0.4436
 1962TIP3    H2 5893   5.027   0.928   4.806  0.5365  1.9343  0.0311
 1963TIP3   OH2 5894   3.864   2.225   2.374  0.0473  0.4199 -0.1550
 1963TIP3    H1 5895   3.863   2.300   2.313  1.0269 -0.3977 -1.2267
 1963TIP3    H2 5896   3.957   2.212   2.394  0.0281 -1.2310 -0.9568
 1964TIP3   OH2 5897   6.233   2.799   3.068 -0.0896  0.1875  0.6362
 1964TIP3    H1 5898   6.274   2.769   2.987 -0.6604 -2.2459  1.1691
 1964TIP3    H2 5899   6.296   2.859   3.107  1.9195 -1.5694  0.2489
 1965TIP3   OH2 5900   1.184   2.796   0.882 -0.2317 -0.0297 -0.0719
 1965TIP3    H1 5901   1.213   2.755   0.801  0.2502  1.1139 -0.5002
 1965TIP3    H2 5902   1.089   2.795   0.877 -0.3601 -3.0208  0.9399
 1966TIP3   OH2 5903   1.555   5.921   4.532 -0.1663  0.1570  0.0256
 1966TIP3    H1 5904   1.583   5.968   4.453 -0.2566 -2.9531 -2.0112
 1966TIP3    H2 5905   1.461   5.909   4.522 -0.0289 -1.1061  0.0990
 1967TIP3   OH2 5906   4.409   2.746   1.158 -0.3744  0.3034  0.0007
 1967TIP3    H1 5907   4.483   2.767   1.215 -0.1515  2.8679 -1.0747
 1967TIP3    H2 5908   4.422   2.803   1.082 -1.9462 -1.2667 -1.5116
 1968TIP3   OH2 5909   3.732   5.304   1.205  0.3387 -0.3124  0.3138
 1968TIP3    H1 5910   3.726   5.394   1.237 -0.4666  0.0727 -0.8554
 1968TIP3    H2 5911   3.744   5.251   1.284 -0.4539  0.7113  1.1463
 1969TIP3   OH2 5912   4.615   5.626   1.978 -0.1234 -0.0113 -0.0957
 1969TIP3    H1 5913   4.632   5.532   1.985 -1.6119 -0.2929  0.0101
 1969TIP3    H2 5914   4.555   5.645   2.050 -0.3997  0.8841 -0.5447
 1970TIP3   OH2 5915   0.864   4.810   2.331  0.4987  0.0291  0.0864
 1970TIP3    H1 5916   0.872   4.800   2.426  0.8043 -0.0928  0.0481
 1970TIP3    H2 5917   0.796   4.748   2.306  0.7246 -0.2548  0.1693
 1971TIP3   OH2 5918   0.498   4.699   4.738  0.0092  0.1936  0.3497
 1971TIP3    H1 5919   0.420   4.667   4.783  0.7627 -1.7962  0.3352
 1971TIP3    H2 5920   0.552   4.738   4.807 -0.3132  0.1897  0.6056
 1972TIP3   OH2 5921   2.685   4.551   0.548  0.0143 -0.3119  0.2185
 1972TIP3    H1 5922   2.763   4.501   0.524  0.4697  0.3763  0.2263
 1972TIP3    H2 5923   2.712   4.642   0.539 -1.5796 -0.0240 -2.3663
 1973TIP3   OH2 5924   0.228   4.548   0.113  0.6503 -0.0431  0.2878
 1973TIP3    H1 5925   0.153   4.591   0.072  0.9172 -0.8783 -1.1291
 1973TIP3    H2 5926   0.198   4.529   0.202 -1.2509 -1.3680 -0.5675
 1974TIP3   OH2 5927   1.545   4.172   0.954 -0.5959  0.0549 -0.5074
 1974TIP3    H1 5928   1.464   4.121   0.949  0.3635 -1.5699 -0.5604
 1974TIP3    H2 5929   1.583   4.166   0.867  0.7073 -1.2664  0.0927
 1975TIP3   OH2 5930   0.549   5.890   0.622 -0.4039  0.4156  0.2609
 1975TIP3    H1 5931   0.508   5.928   0.700 -3.4544 -0.7175 -0.6586
 1975TIP3    H2 5932   0.534   5.796   0.631  2.7889 -0.2075  0.1642
 1976TIP3   OH2 5933   5.916   3.309   4.431  0.2918 -0.3826  0.1590
 1976TIP3    H1 5934   5.993   3.252   4.430  0.1032 -0.6540  0.7603
 1976TIP3    H2 5935   5.939   3.381   4.372  0.3778 -1.2689 -0.9183
 1977TIP3   OH2 5936   4.902   1.063   1.736 -0.0394 -0.7611 -0.1389
 1977TIP3    H1 5937   4.907   1.133   1.801  0.5841 -2.3466  1.6187
 1977TIP3    H2 5938   4.988   1.063   1.694  0.2155 -0.9375  0.3771
 1978TIP3   OH2 5939   4.630   4.816   3.499  0.0975  0.0976 -0.2588
 1978TIP3    H1 5940   4.576   4.748   3.458  1.8569 -2.8874  1.9745
 1978TIP3    H2 5941   4.696   4.839   3.433 -0.1884 -0.7740 -0.8554
 1979TIP3   OH2 5942   5.150   5.027   4.656 -0.1449  0.5039 -0.2815
 1979TIP3    H1 5943   5.070   5.066   4.692 -0.4859  0.2513 -0.7448
 1979TIP3    H2 5944   5.129   5.012   4.563  0.3654  0.2372 -0.3566
 1980TIP3   OH2 5945   4.386   2.011   3.923  0.5984 -0.1078 -0.0516
 1980TIP3    H1 5946   4.355   2.004   3.832 -1.4638 -1.7083  0.6877
 1980TIP3    H2 5947   4.477   2.038   3.915  0.3512  0.2565 -2.5810
 1981TIP3   OH2 5948   4.406   4.312   3.824 -0.2738  0.0985  0.2212
 1981TIP3    H1 5949   4.358   4.236   3.792  0.3407 -0.6977  1.1440
 1981TIP3    H2 5950   4.498   4.288   3.816 -0.0142  1.3386 -0.8760
 1982TIP3   OH2 5951   2.126   4.565   1.804 -0.4472  0.4335 -0.7915
 1982TIP3    H1 5952   2.179   4.571   1.884 -0.2175  0.4745 -0.9464
 1982TIP3    H2 5953   2.161   4.489   1.758  0.8999  1.6720 -1.9181
 1983TIP3   OH2 5954   2.715   0.607   0.432  0.3904 -0.1636 -0.4238
 1983TIP3    H1 5955   2.800   0.612   0.476  1.0975  1.5438 -1.8826
 1983TIP3    H2 5956   2.675   0.692   0.448 -0.2687 -0.3090 -1.2682
 1984TIP3   OH2 5957   2.829   4.850   3.639 -0.4572  0.3561 -0.1284
 1984TIP3    H1 5958   2.901   4.853   3.575 -0.6834 -1.2680 -0.5021
 1984TIP3    H2 5959   2.790   4.937   3.635  2.9564  2.2033  1.8859
 1985TIP3   OH2 5960   2.778   3.006   3.564  0.0987 -0.3939 -0.3917
 1985TIP3    H1 5961   2.737   3.010   3.478 -0.4910 -0.5088 -0.1211
 1985TIP3    H2 5962   2.763   3.092   3.602  0.1131 -0.4323 -0.2978
 1986TIP3   OH2 5963   0.209   2.599   1.423 -0.0020 -0.0785  0.4891
 1986TIP3    H1 5964   0.184   2.512   1.454 -1.9320  0.0778 -0.4628
 1986TIP3    H2 5965   0.126   2.646   1.416  0.5532  0.6270 -2.6198
 1987TIP3   OH2 5966   5.819   2.508   3.717 -0.1928  0.0444  0.1923
 1987TIP3    H1 5967   5.788   2.422   3.689  0.5574 -0.1905  0.0481
 1987TIP3    H2 5968   5.872   2.539   3.644  0.6366  0.0334  0.7776
 1988TIP3   OH2 5969   0.023   4.877   1.915  0.5727  0.1732  0.4497
 1988TIP3    H1 5970   0.098   4.844   1.963  1.8206  1.2045 -0.7304
 1988TIP3    H2 5971  -0.043   4.808   1.923  1.8322 -0.9945  1.0358
 1989TIP3   OH2 5972   2.861   0.843   1.093 -0.6923 -0.1206  0.4378
 1989TIP3    H1 5973   2.801   0.774   1.064 -1.3630  0.0439  1.3864
 1989TIP3    H2 5974   2.826   0.870   1.178 -1.7682  2.9494 -0.8448
 1990TIP3   OH2 5975   0.751   0.375   4.752  0.2862 -0.0084  0.3224
 1990TIP3    H1 5976   0.846   0.378   4.764  0.5560 -3.3047 -0.2269
 1990TIP3    H2 5977   0.739   0.332   4.667 -1.7382  1.7389 -0.3694
 1991TIP3   OH2 5978   1.610   0.976   1.410  0.1045 -0.0258 -0.1648
 1991TIP3    H1 5979   1.682   1.012   1.357 -1.3528 -0.6625 -2.7347
 1991TIP3    H2 5980   1.561   1.053   1.438  1.6109  0.4092  1.4946
 1992TIP3   OH2 5981   4.970   3.838   1.926 -0.4218  0.0672 -0.3481
 1992TIP3    H1 5982   5.060   3.866   1.939  0.3550 -1.1366 -2.5497
 1992TIP3    H2 5983   4.954   3.850   1.832 -3.2358  2.0118  0.2263
 1993TIP3   OH2 5984   2.373   5.003   2.660  0.1827 -0.1458 -0.2605
 1993TIP3    H1 5985   2.293   4.957   2.684 -0.1277  0.8435  0.6971
 1993TIP3    H2 5986   2.407   5.036   2.743  1.4858 -0.3809 -0.6765
 1994TIP3   OH2 5987   5.127   1.191   3.377 -0.2848 -0.2147  1.1236
 1994TIP3    H1 5988   5.140   1.140   3.457 -1.6689 -1.0901  0.8146
 1994TIP3    H2 5989   5.103   1.127   3.310 -0.2260  0.6345  0.2580
 1995TIP3   OH2 5990   3.635   3.759   2.296 -0.5433 -0.4780  0.3055
 1995TIP3    H1 5991   3.581   3.791   2.369  1.2344  2.0413  0.6331
 1995TIP3    H2 5992   3.572   3.741   2.226 -1.9531  0.7594  1.1865
 1996TIP3   OH2 5993   5.204   2.533   1.514 -0.3685 -0.4731  0.1188
 1996TIP3    H1 5994   5.277   2.548   1.454 -0.3865 -0.8673 -0.0048
 1996TIP3    H2 5995   5.135   2.497   1.459 -0.2677 -1.1494  0.4344
 1997TIP3   OH2 5996   5.146   2.214   2.427 -0.1903 -0.3075  0.4652
 1997TIP3    H1 5997   5.144   2.191   2.520  1.0967  0.0623  0.5922
 1997TIP3    H2 5998   5.093   2.146   2.385 -1.0916 -0.2747  1.4973
 1998TIP3   OH2 5999   1.629   5.894   1.765  0.1145  0.5549 -0.2283
 1998TIP3    H1 6000   1.609   5.890   1.859  1.3599  1.9642  0.1327
 1998TIP3    H2 6001   1.672   5.810   1.747  0.5822  0.5917  0.6442
 1999TIP3   OH2 6002   0.456   0.944   0.461  0.0277  0.6314  0.0862
 1999TIP3    H1 6003   0.398   0.872   0.439  0.8415  0.0581 -0.2019
 1999TIP3    H2 6004   0.410   0.990   0.532  0.2822 -1.1860  1.5031
 2000TIP3   OH2 6005   3.394   2.211   3.443  0.3115  0.0935  0.5683
 2000TIP3    H1 6006   3.330   2.231   3.511 -0.8890 -1.0694 -0.1636
 2000TIP3    H2 6007   3.346   2.226   3.361  1.4944  0.7564 -0.0311
 2001TIP3   OH2 6008   6.007   3.644   2.472  0.0969 -0.0268 -0.1429
 2001TIP3    H1 6009   5.940   3.694   2.424 -0.4708  1.5569  2.1436
 2001TIP3    H2 6010   6.090   3.680   2.442 -0.2192  0.4469 -0.4560
 2002TIP3   OH2 6011   2.443   4.616   2.161 -0.2362  0.0401 -0.0582
 2002TIP3    H1 6012   2.367   4.672   2.172  0.1029  0.3052  1.0720
 2002TIP3    H2 6013   2.428   4.570   2.078 -1.5449  0.1889  0.0866
 2003TIP3   OH2 6014   2.895   0.593   3.724 -0.2907  0.6911  0.2565
 2003TIP3    H1 6015   2.935   0.672   3.690  0.7217  0.1314  0.1199
 2003TIP3    H2 6016   2.946   0.572   3.803  1.4946 -1.4947 -1.3498
 2004TIP3   OH2 6017   1.159   4.578   2.903 -0.5462 -0.1037  0.6746
 2004TIP3    H1 6018   1.088   4.514   2.908  0.7149 -1.4633  3.1215
 2004TIP3    H2 6019   1.211   4.562   2.981  1.8480  1.5941 -0.4475
 2005TIP3   OH2 6020   4.610   2.737   0.232 -0.6492  0.0498 -0.4505
 2005TIP3    H1 6021   4.677   2.691   0.283 -2.4662  0.0441  2.1959
 2005TIP3    H2 6022   4.551   2.668   0.203 -0.3028  0.1873 -1.4963
 2006TIP3   OH2 6023   4.498   1.312   1.930 -0.5529 -0.3774  0.3341
 2006TIP3    H1 6024   4.591   1.333   1.920 -0.1655 -1.4323  1.4981
 2006TIP3    H2 6025   4.496   1.219   1.950 -1.9630 -0.6566 -0.8468
 2007TIP3   OH2 6026   1.089   1.673   3.349 -0.1648 -0.1333 -0.2929
 2007TIP3    H1 6027   1.135   1.665   3.265 -0.9956  2.6419 -1.1284
 2007TIP3    H2 6028   1.153   1.646   3.414  1.0585 -0.8056 -1.7182
 2008TIP3   OH2 6029   2.220   1.168   3.216  0.2443  0.4240  0.2945
 2008TIP3    H1 6030   2.251   1.234   3.278  0.4604 -0.8930  1.6316
 2008TIP3    H2 6031   2.234   1.085   3.260 -0.3792 -0.5153 -1.2016
 2009TIP3   OH2 6032   0.543   5.316   3.546 -0.4137 -0.4002  0.4955
 2009TIP3    H1 6033   0.544   5.340   3.639  0.5303 -0.1737  0.4335
 2009TIP3    H2 6034   0.525   5.397   3.500  1.3743 -0.0324  0.3681
 2010TIP3   OH2 6035   4.335   0.808   1.807 -0.0944 -0.7088 -0.1497
 2010TIP3    H1 6036   4.245   0.783   1.832 -1.2397  2.1818 -1.0353
 2010TIP3    H2 6037   4.353   0.885   1.860  1.9393 -1.2682  0.0279
 2011TIP3   OH2 6038   2.620   1.040   3.927 -0.2626  0.0453  0.3792
 2011TIP3    H1 6039   2.602   1.011   3.837  1.3197 -2.0699  0.6647
 2011TIP3    H2 6040   2.693   1.101   3.919 -0.3988  0.1868  0.2019
 2012TIP3   OH2 6041   2.210   1.584   0.455 -0.7887 -0.0510 -0.4590
 2012TIP3    H1 6042   2.263   1.646   0.406  0.5839 -0.2663  0.6938
 2012TIP3    H2 6043   2.138   1.637   0.491  0.4787  0.9581  0.6888
 2013TIP3   OH2 6044   3.105   0.524   2.232 -0.1077  0.2160  0.6459
 2013TIP3    H1 6045   3.035   0.562   2.285 -0.8123 -2.1343  1.5049
 2013TIP3    H2 6046   3.061   0.477   2.162  0.7143  0.4586 -0.0597
 2014TIP3   OH2 6047   0.907   5.377   0.327  0.1451  0.2450  0.4840
 2014TIP3    H1 6048   0.905   5.282   0.326  0.3934  0.2182  1.5062
 2014TIP3    H2 6049   0.994   5.399   0.362  1.1892  0.8889 -2.2099
 2015TIP3   OH2 6050   4.276   0.843   3.325  0.4857  0.2284  0.8828
 2015TIP3    H1 6051   4.268   0.807   3.236 -1.5015 -0.4058  1.2724
 2015TIP3    H2 6052   4.305   0.769   3.378  1.0739  0.4514  0.8791
 2016TIP3   OH2 6053   5.352   1.407   5.199  0.1774 -0.2374 -0.4299
 2016TIP3    H1 6054   5.426   1.432   5.144  0.7394 -0.6232  0.1454
 2016TIP3    H2 6055   5.275   1.423   5.144  0.6562  0.5266 -0.9006
 2017TIP3   OH2 6056   5.634   1.420   0.375  0.0130  0.0933 -0.0675
 2017TIP3    H1 6057   5.712   1.473   0.359  0.5263 -0.7937 -0.5272
 2017TIP3    H2 6058   5.588   1.420   0.291 -0.1746  0.1107  0.0350
 2018TIP3   OH2 6059   0.183   5.688   1.185 -0.8882 -0.5228  0.2612
 2018TIP3    H1 6060   0.267   5.658   1.151 -0.9479 -0.6230  0.2010
 2018TIP3    H2 6061   0.188   5.783   1.181 -1.6451 -0.4994 -1.9321
 2019TIP3   OH2 6062   0.349   5.529   0.280 -0.0469  0.2137 -0.1055
 2019TIP3    H1 6063   0.287   5.599   0.300 -0.5114 -0.3952  0.6424
 2019TIP3    H2 6064   0.431   5.574   0.260 -0.5612  1.0007 -0.4690
 2020TIP3   OH2 6065   0.004   4.283   1.328 -0.1405  0.3826 -0.1239
 2020TIP3    H1 6066  -0.033   4.275   1.416 -3.4855  2.8012 -1.0892
 2020TIP3    H2 6067   0.088   4.326   1.341 -0.4496  0.4738  1.8921
 2021TIP3   OH2 6068   1.909   2.431   3.305 -0.3088  0.2231  0.0219
 2021TIP3    H1 6069   1.882   2.449   3.395  1.2361  0.7296  0.4261
 2021TIP3    H2 6070   2.001   2.460   3.301 -0.7384  1.5485 -2.1040
 2022TIP3   OH2 6071   5.519   0.340   2.537 -0.1256  0.1956 -0.6040
 2022TIP3    H1 6072   5.447   0.364   2.479 -0.2722  0.6629 -0.2395
 2022TIP3    H2 6073   5.575   0.418   2.539 -0.9600  0.7958  1.1277
 2023TIP3   OH2 6074   4.402   5.247   1.316 -0.6909  0.7098 -0.2835
 2023TIP3    H1 6075   4.405   5.244   1.412 -0.9027 -0.4444 -0.2966
 2023TIP3    H2 6076   4.316   5.283   1.296 -0.1890  2.1018 -0.0531
 2024TIP3   OH2 6077   2.504   0.502   3.080  0.0834  0.1571  0.6879
 2024TIP3    H1 6078   2.587   0.543   3.104 -0.2269 -0.4492  3.1019
 2024TIP3    H2 6079   2.509   0.414   3.116 -1.1336 -0.3163 -0.2310
 2025TIP3   OH2 6080   5.138   1.464   1.972  0.3570 -0.3077  0.2496
 2025TIP3    H1 6081   5.199   1.411   2.024  0.6830 -0.5284 -0.3446
 2025TIP3    H2 6082   5.191   1.538   1.941  0.9451 -1.5544 -1.9910
 2026TIP3   OH2 6083   2.108   4.375   3.251  0.0791  0.3920 -0.3075
 2026TIP3    H1 6084   2.159   4.332   3.182 -1.1458 -0.0270 -0.9747
 2026TIP3    H2 6085   2.030   4.322   3.260 -0.2778  1.0582  0.6668
 2027TIP3   OH2 6086   0.123   5.942   0.412  0.3815 -0.0284  0.4263
 2027TIP3    H1 6087   0.105   5.961   0.504  1.1374  1.2384  0.3342
 2027TIP3    H2 6088   0.056   5.989   0.364  0.5932  0.1451  0.2982
 2028TIP3   OH2 6089   3.463   0.915   3.954 -0.0179  0.2474  0.1619
 2028TIP3    H1 6090   3.426   0.999   3.984 -1.9886 -0.8600  1.0721
 2028TIP3    H2 6091   3.429   0.905   3.865  1.0309  0.8371 -0.3224
 2029TIP3   OH2 6092   5.957   4.754   3.692  0.2107 -0.1726  0.0846
 2029TIP3    H1 6093   6.050   4.754   3.716  0.0297 -1.1275  0.8445
 2029TIP3    H2 6094   5.945   4.672   3.645 -0.3117 -0.1850  0.2317
 2030TIP3   OH2 6095   1.558   5.080   4.894  0.6852 -0.2219 -0.1164
 2030TIP3    H1 6096   1.562   5.168   4.931 -0.3620 -0.1498 -0.1416
 2030TIP3    H2 6097   1.551   5.022   4.970 -1.5053 -0.0717 -0.1261
 2031TIP3   OH2 6098   4.863   1.511   4.438  0.5692  0.2109 -0.0917
 2031TIP3    H1 6099   4.904   1.482   4.519  0.6313  1.1330  0.2197
 2031TIP3    H2 6100   4.874   1.607   4.438  0.0368  0.2851 -0.8885
 2032TIP3   OH2 6101   3.030   0.076   0.825 -0.4333  0.2845  0.4182
 2032TIP3    H1 6102   2.990   0.123   0.898 -1.3620  1.7933 -1.0027
 2032TIP3    H2 6103   2.978   0.101   0.749 -0.4802 -2.4338 -0.5742
 2033TIP3   OH2 6104   3.002   3.137   3.948 -0.9268 -0.2657 -0.2260
 2033TIP3    H1 6105   3.061   3.208   3.972 -1.2736  0.0457 -0.2854
 2033TIP3    H2 6106   3.047   3.091   3.877 -1.3393  0.7775 -1.1955
 2034TIP3   OH2 6107   1.676   3.546   1.643 -0.6365  0.0571  0.0635
 2034TIP3    H1 6108   1.610   3.616   1.641 -0.7945 -0.0210  1.3876
 2034TIP3    H2 6109   1.635   3.476   1.694 -0.5250 -1.0884 -1.3442
 2035TIP3   OH2 6110   6.285   0.266   1.162  0.4287  0.4551  0.0103
 2035TIP3    H1 6111   6.325   0.351   1.178  2.2030 -0.5815  1.4288
 2035TIP3    H2 6112   6.319   0.239   1.077 -1.5286  1.8501 -1.3050
 2036TIP3   OH2 6113   4.183   3.269   2.615  0.5927  0.0894  0.3224
 2036TIP3    H1 6114   4.226   3.345   2.654  1.1270 -0.2979  0.4993
 2036TIP3    H2 6115   4.089   3.284   2.629  0.6025  1.3540 -0.8111
 2037TIP3   OH2 6116   2.579   0.786   4.927 -0.0339  0.2053 -0.2990
 2037TIP3    H1 6117   2.655   0.840   4.946  1.2787 -1.9159  0.8924
 2037TIP3    H2 6118   2.614   0.698   4.915 -2.2773 -0.8262  0.1358
 2038TIP3   OH2 6119   1.992   1.717   0.547  0.3478  0.5904 -0.3007
 2038TIP3    H1 6120   1.966   1.738   0.636  2.2986 -0.9035  0.6909
 2038TIP3    H2 6121   1.994   1.802   0.502  2.3248  1.8449  1.9309
 2039TIP3   OH2 6122   0.757   0.090   0.105  0.0779  0.2436  0.4263
 2039TIP3    H1 6123   0.800   0.026   0.162  1.0158  1.6652  1.3718
 2039TIP3    H2 6124   0.829   0.138   0.065 -0.5332 -0.8364 -2.2024
 2040TIP3   OH2 6125   1.827   1.380   2.436 -0.2676  0.1630 -0.8048
 2040TIP3    H1 6126   1.896   1.431   2.478  0.3486 -0.5712 -0.9045
 2040TIP3    H2 6127   1.756   1.378   2.500  0.4580 -0.4914 -0.0100
 2041TIP3   OH2 6128   2.551   2.512   3.661  0.0898  0.6944 -0.0364
 2041TIP3    H1 6129   2.638   2.552   3.666  1.0989 -1.2462 -1.0066
 2041TIP3    H2 6130   2.557   2.434   3.716 -1.3465  0.9782  0.5741
 2042TIP3   OH2 6131   3.568   0.783   0.322 -0.2883  0.5720  0.2176
 2042TIP3    H1 6132   3.515   0.857   0.292  0.9638  1.3514 -0.1393
 2042TIP3    H2 6133   3.632   0.822   0.382  0.2997 -0.2341  0.1271
 2043TIP3   OH2 6134   1.241   2.101   2.242  0.6508 -0.2473 -0.5358
 2043TIP3    H1 6135   1.316   2.073   2.295 -0.0973  1.7479  1.7802
 2043TIP3    H2 6136   1.171   2.040   2.265  0.5980  0.0424  0.1096
 2044TIP3   OH2 6137   4.756   2.128   1.469 -0.2641  0.3506 -0.2306
 2044TIP3    H1 6138   4.695   2.165   1.406 -0.4807  1.8396  0.7839
 2044TIP3    H2 6139   4.719   2.152   1.555  0.0996 -1.4586  0.4795
 2045TIP3   OH2 6140   0.991   2.213   4.201 -0.0090 -0.1892  0.4259
 2045TIP3    H1 6141   0.953   2.254   4.123 -0.7246 -0.5485  0.5831
 2045TIP3    H2 6142   1.085   2.230   4.193 -0.1023 -0.0089 -0.3897
 2046TIP3   OH2 6143   6.080   0.856   4.379  0.0291 -0.2484  0.2012
 2046TIP3    H1 6144   6.010   0.838   4.442 -0.4410  0.7468 -0.0238
 2046TIP3    H2 6145   6.090   0.774   4.331  1.0735 -1.3736  2.1903
 2047TIP3   OH2 6146   3.447   0.038   3.044 -0.3668  0.5109 -0.1625
 2047TIP3    H1 6147   3.452   0.052   2.950  2.6225 -0.4764 -0.2646
 2047TIP3    H2 6148   3.450  -0.057   3.055  1.7685  0.6369  0.9062
 2048TIP3   OH2 6149   5.996   4.128   4.378 -0.1150 -0.0063  0.2063
 2048TIP3    H1 6150   6.069   4.189   4.380 -0.2291  0.1064  1.1529
 2048TIP3    H2 6151   5.918   4.182   4.391 -0.1958 -0.3674  1.3249
 2049TIP3   OH2 6152   2.005   3.064   1.199  0.1994  0.4560  0.6631
 2049TIP3    H1 6153   2.063   3.084   1.272  0.3560  0.7038  0.4715
 2049TIP3    H2 6154   2.056   3.007   1.142 -1.6169 -4.5265  3.3545
 2050TIP3   OH2 6155   1.844   3.754   1.368  0.9320  0.4113  0.3691
 2050TIP3    H1 6156   1.904   3.719   1.301  0.6812  0.6697  0.0064
 2050TIP3    H2 6157   1.863   3.702   1.446  0.6708 -0.4428 -0.1201
 2051TIP3   OH2 6158   0.672   5.020   0.489  0.3798 -0.6164 -0.7793
 2051TIP3    H1 6159   0.736   5.054   0.550  0.7070 -0.8369 -0.9954
 2051TIP3    H2 6160   0.674   5.081   0.415 -1.9587  1.2415  0.5304
 2052TIP3   OH2 6161   1.698   2.180   4.800  0.5405  0.1806  0.6799
 2052TIP3    H1 6162   1.779   2.189   4.749  0.2418  0.5943  0.2692
 2052TIP3    H2 6163   1.725   2.191   4.891  0.8265  1.0892  0.4910
 2053TIP3   OH2 6164   0.813   5.463   4.784 -0.0851 -0.4554 -0.2707
 2053TIP3    H1 6165   0.877   5.526   4.751  1.3742 -1.4228  0.6369
 2053TIP3    H2 6166   0.864   5.398   4.832 -1.5381 -2.3583 -1.1514
 2054TIP3   OH2 6167   4.053   0.249   2.875 -0.0831  0.0391  0.2270
 2054TIP3    H1 6168   4.090   0.219   2.792 -0.5574 -0.0257  0.0358
 2054TIP3    H2 6169   4.073   0.179   2.937 -2.1902 -1.2654 -0.4646
 2055TIP3   OH2 6170   3.453   4.345   2.218  0.0139  0.2734  0.9538
 2055TIP3    H1 6171   3.500   4.335   2.301  0.4384 -2.5062  0.4694
 2055TIP3    H2 6172   3.506   4.295   2.155 -0.0767  2.6138 -1.1370
 2056TIP3   OH2 6173   1.769   5.178   5.128 -0.3657 -0.2188  0.2194
 2056TIP3    H1 6174   1.807   5.207   5.045 -1.4005  0.1811 -0.1353
 2056TIP3    H2 6175   1.752   5.085   5.115  0.5868 -0.4319  0.4291
 2057TIP3   OH2 6176   1.582   5.695   1.401  0.5720 -0.0162  0.5782
 2057TIP3    H1 6177   1.528   5.665   1.328  0.8270  2.4677 -0.7253
 2057TIP3    H2 6178   1.588   5.619   1.459 -0.9082 -1.6033 -1.2202
 2058TIP3   OH2 6179   3.481   5.115   0.741  0.2524  0.6463 -0.2246
 2058TIP3    H1 6180   3.439   5.048   0.688  1.1626  1.5239 -2.1431
 2058TIP3    H2 6181   3.517   5.068   0.816  0.0087 -0.8341 -1.0049
 2059TIP3   OH2 6182   4.771   2.481   0.229  0.0608 -0.0671 -0.7016
 2059TIP3    H1 6183   4.719   2.490   0.149 -0.4247  0.9936 -0.2899
 2059TIP3    H2 6184   4.738   2.401   0.270 -2.4260  1.3614  0.3312
 2060TIP3   OH2 6185   2.327   1.004   3.959  0.4415  0.2056  0.1123
 2060TIP3    H1 6186   2.315   1.003   3.864 -0.6834 -1.6002  0.2179
 2060TIP3    H2 6187   2.415   1.040   3.972  1.3998 -1.2572 -1.7503
 2061TIP3   OH2 6188   3.296   2.584   3.833  0.2757  0.1379  0.3046
 2061TIP3    H1 6189   3.290   2.495   3.866 -3.2229 -0.3992 -1.3858
 2061TIP3    H2 6190   3.367   2.580   3.768  0.1657 -1.3974  0.2438
 2062TIP3   OH2 6191   0.794   4.872   3.661 -0.0206 -0.4404  0.0498
 2062TIP3    H1 6192   0.717   4.917   3.696 -0.0756  0.8904 -1.6183
 2062TIP3    H2 6193   0.789   4.887   3.567  2.0099 -0.7667 -0.1538
 2063TIP3   OH2 6194   2.339   3.963   1.274  0.2183 -0.6064 -0.5558
 2063TIP3    H1 6195   2.256   3.985   1.317  0.3782  1.2247 -1.0715
 2063TIP3    H2 6196   2.387   3.913   1.339  0.6513  2.4194  1.7116
 2064TIP3   OH2 6197   1.616   2.348   2.865 -0.1189  0.4329 -0.5555
 2064TIP3    H1 6198   1.644   2.432   2.828 -1.0977  1.4811  0.9583
 2064TIP3    H2 6199   1.651   2.349   2.955 -0.8837 -0.3843 -0.2367
 2065TIP3   OH2 6200   0.672   4.139   4.990 -0.6910  0.1171 -0.2837
 2065TIP3    H1 6201   0.658   4.131   4.896  1.8122 -2.5088 -0.5793
 2065TIP3    H2 6202   0.766   4.153   5.000 -0.6547 -1.0351  1.8148
 2066TIP3   OH2 6203   1.332   5.549   5.044  0.0642 -0.3920  0.1512
 2066TIP3    H1 6204   1.289   5.600   5.112  0.1585  0.8996 -0.7180
 2066TIP3    H2 6205   1.361   5.614   4.980  3.4134 -1.1217  0.7037
 2067TIP3   OH2 6206   5.576   3.005   4.638 -0.1580  0.3474  0.0873
 2067TIP3    H1 6207   5.490   2.967   4.622  0.1188 -0.7209  1.0095
 2067TIP3    H2 6208   5.581   3.079   4.577 -3.0475  2.5454  2.2385
 2068TIP3   OH2 6209   1.312   0.422   2.289 -0.8253  0.8647 -0.4028
 2068TIP3    H1 6210   1.265   0.409   2.371  0.2888  1.2368  0.3152
 2068TIP3    H2 6211   1.336   0.333   2.261  0.7517  0.8383  0.8787
 2069TIP3   OH2 6212   3.752   4.739   1.493 -0.2196  0.8681 -0.2944
 2069TIP3    H1 6213   3.792   4.772   1.573  0.5322 -0.5054 -0.0692
 2069TIP3    H2 6214   3.795   4.788   1.423  0.1760  1.0398  0.0626
 2070TIP3   OH2 6215   5.866   0.762   3.433  0.1943  0.6877 -0.2918
 2070TIP3    H1 6216   5.780   0.723   3.448 -0.9999  2.3144 -2.2822
 2070TIP3    H2 6217   5.918   0.692   3.393  0.3012 -0.7036  2.1179
 2071TIP3   OH2 6218   5.672   5.462   4.237  0.1411 -0.3670  0.1382
 2071TIP3    H1 6219   5.692   5.472   4.144  0.6961  0.2393  0.3107
 2071TIP3    H2 6220   5.590   5.413   4.239  0.3527 -0.7691 -0.6576
 2072TIP3   OH2 6221   4.333   5.067   2.176 -0.7395  0.3396  0.0009
 2072TIP3    H1 6222   4.404   5.037   2.233  0.1714  1.2466 -0.6234
 2072TIP3    H2 6223   4.343   5.162   2.174 -1.3288  0.3874 -0.9317
 2073TIP3   OH2 6224   5.422   5.985   1.738 -0.2903  0.2818 -0.4780
 2073TIP3    H1 6225   5.440   5.910   1.681 -1.8759  0.1405 -0.8654
 2073TIP3    H2 6226   5.449   5.956   1.825  1.2172  0.1217 -0.9766
 2074TIP3   OH2 6227   5.038   4.782   3.785 -0.2739 -0.3025  0.3700
 2074TIP3    H1 6228   5.042   4.873   3.754 -1.5997 -0.4202 -0.2372
 2074TIP3    H2 6229   5.000   4.789   3.873 -1.4227 -0.3144 -0.0995
 2075TIP3   OH2 6230   4.268   5.877   2.044  0.3021 -0.8121  0.0437
 2075TIP3    H1 6231   4.249   5.969   2.026  2.4103 -0.4485 -0.6241
 2075TIP3    H2 6232   4.183   5.833   2.036 -0.4720  0.8140 -1.3648
 2076TIP3   OH2 6233   1.462   4.594   1.038 -0.1801  0.3523  0.2490
 2076TIP3    H1 6234   1.523   4.524   1.063 -1.2083 -0.5786  0.2602
 2076TIP3    H2 6235   1.499   4.673   1.076  1.5324 -0.0033 -0.5788
 2077TIP3   OH2 6236   0.748   5.251   2.737 -0.0142  0.4546  0.6116
 2077TIP3    H1 6237   0.703   5.335   2.724  0.7941  0.7212 -0.6165
 2077TIP3    H2 6238   0.677   5.187   2.736 -0.5194  0.9984  0.1707
 2078TIP3   OH2 6239   1.863   2.152   0.567  0.0935 -0.1820 -0.3746
 2078TIP3    H1 6240   1.899   2.230   0.609 -2.8674  0.6672  0.8249
 2078TIP3    H2 6241   1.835   2.096   0.640 -1.9723 -0.2463 -1.1426
 2079TIP3   OH2 6242   1.100   1.017   1.582  0.3045 -0.1526 -0.2416
 2079TIP3    H1 6243   1.040   0.999   1.510  0.2312 -0.0793 -0.2003
 2079TIP3    H2 6244   1.122   1.110   1.572  0.1036 -0.0820 -0.0277
 2080TIP3   OH2 6245   1.775   3.130   4.713  0.1138  1.0403 -0.0542
 2080TIP3    H1 6246   1.690   3.160   4.745  0.9141  2.3541  0.9569
 2080TIP3    H2 6247   1.780   3.165   4.624 -0.4977  0.7367 -0.2142
 2081TIP3   OH2 6248   1.193   5.419   1.164 -0.2729  0.0557  0.1261
 2081TIP3    H1 6249   1.239   5.375   1.093 -1.3227 -0.5507 -0.1978
 2081TIP3    H2 6250   1.152   5.348   1.214 -0.7737  0.5690  0.4537
 2082TIP3   OH2 6251   6.080   4.669   5.159  0.2684  0.0932  0.0172
 2082TIP3    H1 6252   6.135   4.736   5.118 -1.5605  1.4912 -0.2632
 2082TIP3    H2 6253   6.098   4.678   5.253 -0.9157  1.9299  0.1080
 2083TIP3   OH2 6254   0.485   4.720   4.194  0.4345  0.1110 -0.2536
 2083TIP3    H1 6255   0.455   4.659   4.261  0.0138 -0.8325 -1.2605
 2083TIP3    H2 6256   0.529   4.664   4.129  1.0342  1.0190 -0.6520
 2084TIP3   OH2 6257   4.897   2.679   0.524 -0.2055 -0.0156  0.0469
 2084TIP3    H1 6258   4.848   2.601   0.549  2.2544 -2.3853 -1.8711
 2084TIP3    H2 6259   4.989   2.651   0.526  0.8123  2.8844 -0.6947
 2085TIP3   OH2 6260   5.957   4.480   3.081  0.4401  0.0820 -0.0000
 2085TIP3    H1 6261   5.882   4.440   3.125 -0.1150  0.3415 -0.7038
 2085TIP3    H2 6262   5.924   4.507   2.995  1.2916  0.3556 -0.2558
 2086TIP3   OH2 6263   0.440   2.948   0.635 -0.3673  0.8539  0.0046
 2086TIP3    H1 6264   0.441   2.912   0.546 -3.4353  1.8709 -0.5684
 2086TIP3    H2 6265   0.474   3.037   0.625 -1.4185  1.2322 -0.3412
 2087TIP3   OH2 6266   0.474   3.451   3.409 -0.1782 -0.4091 -0.0525
 2087TIP3    H1 6267   0.391   3.417   3.443 -0.2043 -0.6006 -0.3020
 2087TIP3    H2 6268   0.452   3.484   3.322  0.1995 -1.3603 -0.5220
 2088TIP3   OH2 6269   5.357   1.559   1.790 -0.2691  0.1231  0.3336
 2088TIP3    H1 6270   5.334   1.606   1.710  0.8735  0.3744  0.1381
 2088TIP3    H2 6271   5.410   1.485   1.760 -0.7184 -0.3912  0.7765
 2089TIP3   OH2 6272   4.787   5.197   1.361 -0.2317  0.1486  0.3206
 2089TIP3    H1 6273   4.703   5.163   1.392  0.2961 -1.8053 -0.2164
 2089TIP3    H2 6274   4.765   5.258   1.291 -1.1955 -1.2713 -0.6551
 2090TIP3   OH2 6275   2.497   5.726   1.961  0.2904 -0.0133  0.0165
 2090TIP3    H1 6276   2.409   5.687   1.970  0.5401 -0.9323 -1.2398
 2090TIP3    H2 6277   2.481   5.820   1.963 -0.5967 -0.1576  0.8874
 2091TIP3   OH2 6278   1.818   2.809   5.031  0.2012 -0.2055  0.0209
 2091TIP3    H1 6279   1.857   2.895   5.016 -0.3375  0.2530  1.0920
 2091TIP3    H2 6280   1.729   2.817   4.998  0.1308 -0.3231  0.1803
 2092TIP3   OH2 6281   6.322   4.081   0.366  0.3060  0.0904  0.3150
 2092TIP3    H1 6282   6.332   4.117   0.278 -1.3030 -0.2802 -0.0504
 2092TIP3    H2 6283   6.335   3.987   0.356  2.1450  0.2469  0.8603
 2093TIP3   OH2 6284   5.244   5.526   3.129  0.3198  0.5185 -0.3454
 2093TIP3    H1 6285   5.327   5.478   3.125  0.8734  1.2922  0.9669
 2093TIP3    H2 6286   5.217   5.520   3.221 -0.8696  0.6457 -0.6626
 2094TIP3   OH2 6287   0.411   0.387   1.646  0.1559 -0.1314  0.3937
 2094TIP3    H1 6288   0.467   0.449   1.694  1.0000 -0.8111  0.3175
 2094TIP3    H2 6289   0.417   0.306   1.696 -0.6831 -0.2490  0.3123
 2095TIP3   OH2 6290   3.599   4.682   2.184 -0.7363 -0.2212  0.6784
 2095TIP3    H1 6291   3.589   4.657   2.276 -0.4292  0.7905  1.0047
 2095TIP3    H2 6292   3.690   4.659   2.162 -0.3858  0.7350  1.0422
 2096TIP3   OH2 6293   1.777   0.842   2.321  0.1412  0.1664 -0.5644
 2096TIP3    H1 6294   1.694   0.840   2.273 -1.6741 -0.1103  2.3292
 2096TIP3    H2 6295   1.843   0.816   2.257 -2.2122 -1.2262 -2.5926
 2097TIP3   OH2 6296   3.220   5.424   5.162  0.4288 -0.3221  0.5468
 2097TIP3    H1 6297   3.224   5.480   5.084  0.0802  0.4774  1.0787
 2097TIP3    H2 6298   3.296   5.367   5.156 -0.5766 -1.5525 -1.2998
 2098TIP3   OH2 6299   5.385   5.562   4.398  0.0503  0.3430 -0.1566
 2098TIP3    H1 6300   5.437   5.642   4.394  1.0237 -0.1207  1.7602
 2098TIP3    H2 6301   5.339   5.568   4.482 -1.6555 -0.0892 -1.0143
 2099TIP3   OH2 6302   5.848   3.582   3.803  0.1219 -0.0368 -0.4321
 2099TIP3    H1 6303   5.790   3.641   3.851  1.2794  0.6983  0.1107
 2099TIP3    H2 6304   5.845   3.500   3.852 -0.4456 -0.0040 -0.4088
 2100TIP3   OH2 6305   2.199   1.591   2.890 -0.0683 -0.1720 -0.0534
 2100TIP3    H1 6306   2.115   1.624   2.924 -1.3998 -0.5621 -2.7194
 2100TIP3    H2 6307   2.208   1.504   2.930 -0.3086  0.3353  1.1594
 2101TIP3   OH2 6308   5.826   2.308   2.772 -0.6916 -0.0452 -0.1487
 2101TIP3    H1 6309   5.850   2.217   2.757 -1.1824 -0.2519  0.3359
 2101TIP3    H2 6310   5.759   2.306   2.840  0.1588  0.7580  0.7586
 2102TIP3   OH2 6311   4.435   2.270   0.107  0.2352  0.2131  0.0564
 2102TIP3    H1 6312   4.462   2.260   0.015  0.2126 -0.9845  0.1674
 2102TIP3    H2 6313   4.369   2.203   0.120 -0.9825  1.4634  0.5113
 2103TIP3   OH2 6314   4.170   1.732   1.262  0.4594 -0.6382  0.7904
 2103TIP3    H1 6315   4.097   1.731   1.324 -1.1032 -2.6540 -0.9556
 2103TIP3    H2 6316   4.159   1.813   1.212 -0.8811 -1.1294  0.2580
 2104TIP3   OH2 6317   3.607   1.470   2.558  0.6465  0.3854 -0.8380
 2104TIP3    H1 6318   3.554   1.419   2.497 -0.8694  0.8415  0.0445
 2104TIP3    H2 6319   3.666   1.521   2.503  0.7410 -0.7421 -1.8110
 2105TIP3   OH2 6320   1.175   2.648   1.603  0.0498 -0.3819  0.5695
 2105TIP3    H1 6321   1.238   2.674   1.536 -0.6258  0.3061  0.1872
 2105TIP3    H2 6322   1.222   2.662   1.686  0.2617  0.5718  0.3081
 2106TIP3   OH2 6323   0.971   2.436   1.984  0.1437 -0.3150  0.2367
 2106TIP3    H1 6324   0.983   2.528   2.010 -1.5131  0.1018 -0.3242
 2106TIP3    H2 6325   0.920   2.441   1.903  2.1250 -1.6771 -1.2031
 2107TIP3   OH2 6326   4.860   4.209   0.183  0.9191 -0.5321 -0.7055
 2107TIP3    H1 6327   4.949   4.188   0.155  1.0908 -0.6139 -0.0970
 2107TIP3    H2 6328   4.868   4.233   0.275  0.3713 -0.1370 -0.7550
 2108TIP3   OH2 6329   1.411   0.146   0.794 -0.0858  0.0215 -0.1324
 2108TIP3    H1 6330   1.495   0.133   0.837  0.2821 -1.1268 -1.1309
 2108TIP3    H2 6331   1.348   0.156   0.866  0.7670 -0.0421  0.6379
 2109TIP3   OH2 6332   5.512   4.783   1.352 -0.1240  0.0621 -0.3788
 2109TIP3    H1 6333   5.447   4.801   1.420  0.8180 -1.4941  1.0035
 2109TIP3    H2 6334   5.564   4.863   1.346 -0.6589  0.4630  0.2233
 2110TIP3   OH2 6335   5.443   0.122   3.953 -0.4382  0.3363 -0.0357
 2110TIP3    H1 6336   5.449   0.135   4.047  0.5135 -0.2542  0.0020
 2110TIP3    H2 6337   5.470   0.031   3.939 -0.1070  0.5550 -0.9220
 2111TIP3   OH2 6338   5.389   4.499   1.606 -0.3004  0.4405  0.1418
 2111TIP3    H1 6339   5.381   4.411   1.643  1.8274  0.4952  0.8652
 2111TIP3    H2 6340   5.328   4.500   1.532 -2.0169 -0.8680  1.4880
 2112TIP3   OH2 6341   5.319   3.661   0.571  0.1982  0.6772 -0.5294
 2112TIP3    H1 6342   5.368   3.585   0.602  0.4558 -0.0428 -2.5646
 2112TIP3    H2 6343   5.232   3.651   0.610  0.3174 -0.5120 -0.5538
 2113TIP3   OH2 6344   6.096   4.110   1.864 -0.3592  0.2883  0.3235
 2113TIP3    H1 6345   6.006   4.077   1.866 -0.4007  0.4192  0.9436
 2113TIP3    H2 6346   6.137   4.065   1.790 -1.5239  1.8321 -1.3367
 2114TIP3   OH2 6347   2.795   2.075   1.316 -0.8357 -0.1718 -0.0458
 2114TIP3    H1 6348   2.861   2.069   1.247  0.3600  1.6069  0.8739
 2114TIP3    H2 6349   2.712   2.070   1.270 -0.0683  0.4231 -1.5729
 2115TIP3   OH2 6350   1.268   2.755   2.582 -0.0835 -0.6589 -0.4974
 2115TIP3    H1 6351   1.192   2.710   2.618 -0.6384 -1.2524 -2.3014
 2115TIP3    H2 6352   1.324   2.685   2.550  1.9319 -0.3084  1.9831
 2116TIP3   OH2 6353   1.954   4.386   0.101 -0.1116 -0.3897 -0.1242
 2116TIP3    H1 6354   1.892   4.317   0.076  0.9796 -1.3248 -0.3184
 2116TIP3    H2 6355   1.902   4.445   0.156 -0.9405 -1.6818  0.5417
 2117TIP3   OH2 6356   2.815   1.954   5.103  0.2107  0.3356 -0.5396
 2117TIP3    H1 6357   2.758   1.883   5.072 -1.5870  1.4705  0.0067
 2117TIP3    H2 6358   2.811   1.948   5.199 -0.2736  1.3559 -0.4748
 2118TIP3   OH2 6359   1.814   3.946   2.795 -0.3407  0.3838  0.3710
 2118TIP3    H1 6360   1.724   3.913   2.786 -0.4522  0.8545 -0.2211
 2118TIP3    H2 6361   1.845   3.958   2.706  0.9391 -1.4312  0.5238
 2119TIP3   OH2 6362   0.073   1.058   3.294  0.0658 -0.1478 -0.2497
 2119TIP3    H1 6363   0.135   0.988   3.277  1.0745  0.3034  1.3063
 2119TIP3    H2 6364  -0.013   1.018   3.281  0.5479 -2.0946  1.8213
 2120TIP3   OH2 6365   1.524   3.523   4.324  0.3785 -0.2023  0.0166
 2120TIP3    H1 6366   1.530   3.429   4.338 -0.0516 -0.2616 -0.1611
 2120TIP3    H2 6367   1.602   3.559   4.365  1.4733 -0.8086 -1.4295
 2121TIP3   OH2 6368   3.803   4.615   4.852  0.4407  0.3592 -0.0778
 2121TIP3    H1 6369   3.740   4.677   4.889  1.0353  1.5824 -1.0342
 2121TIP3    H2 6370   3.795   4.537   4.907 -0.3413  1.2715  1.1661
 2122TIP3   OH2 6371   1.192   3.781   3.460  0.3346  0.9496  0.0402
 2122TIP3    H1 6372   1.233   3.696   3.477 -0.8976 -0.1380 -2.0658
 2122TIP3    H2 6373   1.118   3.784   3.522 -0.0842  0.1089 -0.4022
 2123TIP3   OH2 6374   3.249   3.955   2.466  0.4292 -0.1059 -0.0953
 2123TIP3    H1 6375   3.237   3.865   2.498 -1.9822 -1.0932 -3.3010
 2123TIP3    H2 6376   3.194   4.008   2.523 -1.0590 -1.2726 -0.3749
 2124TIP3   OH2 6377   6.155   0.501   3.460 -0.1363 -0.0498 -0.0001
 2124TIP3    H1 6378   6.176   0.409   3.444 -0.7283 -0.6664  2.3153
 2124TIP3    H2 6379   6.110   0.501   3.544  0.6090  2.4530  0.4990
 2125TIP3   OH2 6380   1.861   4.185   1.686  0.1643  0.3631 -0.2523
 2125TIP3    H1 6381   1.874   4.243   1.611 -1.4424  0.3722 -0.5493
 2125TIP3    H2 6382   1.841   4.100   1.648 -2.5220  0.7725  0.0914
 2126TIP3   OH2 6383   2.192   4.963   4.077 -0.2336 -0.1844 -0.2491
 2126TIP3    H1 6384   2.175   4.873   4.049 -1.8265  0.7875 -2.7334
 2126TIP3    H2 6385   2.179   5.015   3.998 -2.1073  2.5298  1.6859
 2127TIP3   OH2 6386   4.421   4.046   4.419 -0.1766 -0.4653 -0.3379
 2127TIP3    H1 6387   4.486   4.006   4.477 -1.6468 -0.9547  1.0558
 2127TIP3    H2 6388   4.468   4.118   4.376  1.4318 -1.1913  0.1408
 2128TIP3   OH2 6389   0.672   2.512   4.240 -0.0624  0.0948  0.1010
 2128TIP3    H1 6390   0.705   2.601   4.231 -0.9563  0.4891  0.5165
 2128TIP3    H2 6391   0.577   2.522   4.235 -0.1748 -0.8251  0.2707
 2129TIP3   OH2 6392   2.088   3.012   0.744  0.8423  0.1128 -0.0280
 2129TIP3    H1 6393   2.009   2.969   0.777  1.2258  0.3293  1.2303
 2129TIP3    H2 6394   2.058   3.098   0.714  0.6685  0.4198  0.9787
 2130TIP3   OH2 6395   5.850   0.929   1.755  0.4457  0.5559  0.5466
 2130TIP3    H1 6396   5.926   0.911   1.699 -1.3752 -0.2926 -1.8056
 2130TIP3    H2 6397   5.781   0.874   1.720 -1.3094  1.3150  2.6061
 2131TIP3   OH2 6398   6.139   4.774   2.196 -0.1736  0.4834 -0.2062
 2131TIP3    H1 6399   6.184   4.739   2.119 -0.8022  2.3871 -1.5099
 2131TIP3    H2 6400   6.067   4.712   2.212  0.8083 -0.7049 -0.2140
 2132TIP3   OH2 6401   1.592   5.459   1.551 -0.1298 -0.1978 -0.4010
 2132TIP3    H1 6402   1.614   5.378   1.505 -0.3481 -0.3626 -0.2129
 2132TIP3    H2 6403   1.617   5.443   1.642  2.3320  0.8703 -0.7899
 2133TIP3   OH2 6404   1.056   4.580   4.540 -0.5414  0.2047 -0.3397
 2133TIP3    H1 6405   1.007   4.606   4.618 -0.7966 -0.5982 -0.2315
 2133TIP3    H2 6406   1.109   4.506   4.568  0.1678  0.5842 -0.6601
 2134TIP3   OH2 6407   0.556   5.233   2.372  0.3172 -0.1630 -0.0951
 2134TIP3    H1 6408   0.479   5.180   2.353  0.7222 -0.0472 -2.3478
 2134TIP3    H2 6409   0.524   5.300   2.432 -0.9967 -0.9702  0.1466
 2135TIP3   OH2 6410   5.458   0.324   2.947 -0.1890  0.0991 -0.8141
 2135TIP3    H1 6411   5.434   0.266   2.875  1.2252  0.3025 -1.4836
 2135TIP3    H2 6412   5.380   0.327   3.003 -0.8231 -1.1667 -1.5954
 2136TIP3   OH2 6413   3.023   0.182   3.562  0.6095  0.3782  0.0488
 2136TIP3    H1 6414   3.000   0.211   3.474 -1.7503 -0.5230  0.3008
 2136TIP3    H2 6415   3.067   0.098   3.549 -0.5874 -0.2288 -0.2782
 2137TIP3   OH2 6416   5.629   3.716   3.937  0.3138 -0.1771  0.3613
 2137TIP3    H1 6417   5.552   3.662   3.956 -0.4110  0.7214  0.0552
 2137TIP3    H2 6418   5.660   3.743   4.023 -0.3554  0.3176  0.4569
 2138TIP3   OH2 6419   3.075   2.263   4.077  0.2566 -0.2201  0.2190
 2138TIP3    H1 6420   3.052   2.342   4.125  0.1243  0.7141 -1.3082
 2138TIP3    H2 6421   3.170   2.256   4.086  0.7153  1.7962 -1.9479
 2139TIP3   OH2 6422   4.586   0.129   4.991 -0.1782  0.6104  0.4102
 2139TIP3    H1 6423   4.596   0.045   4.946 -0.2890 -0.5518  2.4162
 2139TIP3    H2 6424   4.499   0.160   4.964 -0.0153  0.2403 -0.5858
 2140TIP3   OH2 6425   2.980   2.135   4.366  0.1474 -0.8165 -0.1484
 2140TIP3    H1 6426   2.890   2.158   4.389  0.0760 -1.3664  0.1504
 2140TIP3    H2 6427   3.029   2.216   4.377 -0.2473 -0.5983  0.0317
 2141TIP3   OH2 6428   5.714   4.935   0.359 -0.5280  0.2337 -0.2761
 2141TIP3    H1 6429   5.747   4.882   0.287  0.5878  0.2016  0.2461
 2141TIP3    H2 6430   5.708   5.023   0.323  1.6952  0.5656  0.0519
 2142TIP3   OH2 6431   0.839   2.199   2.020  0.3032  0.5242  0.0872
 2142TIP3    H1 6432   0.887   2.127   1.978 -1.3337 -0.2335 -0.6038
 2142TIP3    H2 6433   0.893   2.276   2.004  1.9300 -0.4797  0.5271
 2143TIP3   OH2 6434   1.793   0.079   1.212 -0.3153 -0.4260 -0.1116
 2143TIP3    H1 6435   1.882   0.063   1.243  0.3522 -1.0514 -2.1787
 2143TIP3    H2 6436   1.752  -0.008   1.208 -1.0185 -0.1556  0.7247
 2144TIP3   OH2 6437   0.791   0.582   0.985 -0.2171  0.3395  0.6875
 2144TIP3    H1 6438   0.761   0.669   0.956  1.1545  0.8005  0.5630
 2144TIP3    H2 6439   0.791   0.587   1.080  0.7570  0.8236  0.6752
 2145TIP3   OH2 6440   4.785   0.959   5.030  0.0924 -0.3953 -0.1820
 2145TIP3    H1 6441   4.807   0.991   5.118  1.4922 -1.8314  0.0238
 2145TIP3    H2 6442   4.731   0.882   5.045 -0.5579 -0.0364 -0.6213
 2146TIP3   OH2 6443   3.703   0.868   2.754  0.7242  0.0928  0.4243
 2146TIP3    H1 6444   3.763   0.940   2.771 -0.0747  1.0971 -0.8444
 2146TIP3    H2 6445   3.676   0.879   2.663 -1.4905 -0.2112  0.9855
 2147TIP3   OH2 6446   3.112   1.475   4.491 -0.1144 -0.7649  0.1892
 2147TIP3    H1 6447   3.134   1.534   4.564 -0.4537 -0.6830  0.2281
 2147TIP3    H2 6448   3.119   1.387   4.529  1.5283 -0.8242 -0.1716
 2148TIP3   OH2 6449   6.101   5.929   0.328 -0.0871  0.1948 -0.1957
 2148TIP3    H1 6450   6.137   6.018   0.331 -1.7205  0.8804  1.9197
 2148TIP3    H2 6451   6.034   5.932   0.259  0.3439  0.3999 -0.6071
 2149TIP3   OH2 6452   1.880   3.153   4.146 -0.3033 -0.3103 -0.8718
 2149TIP3    H1 6453   1.925   3.149   4.231  0.4041  2.8129 -0.9668
 2149TIP3    H2 6454   1.789   3.130   4.166 -0.4129  1.4879  1.0479
 2150TIP3   OH2 6455   3.310   0.528   2.825  0.6830  0.0551 -0.7898
 2150TIP3    H1 6456   3.372   0.454   2.831  1.4081  0.6754 -0.4740
 2150TIP3    H2 6457   3.331   0.582   2.901 -0.2492  0.2875 -0.6922
 2151TIP3   OH2 6458   0.340   5.835   0.276 -0.2529  0.1939  0.5917
 2151TIP3    H1 6459   0.264   5.878   0.315 -0.3751 -0.5706  1.2261
 2151TIP3    H2 6460   0.408   5.842   0.343  0.2237  0.8083  0.0544
 2152TIP3   OH2 6461   1.042   0.052   0.507  0.1046  0.3284 -0.2447
 2152TIP3    H1 6462   1.089   0.110   0.448  2.4555 -1.3880 -0.2030
 2152TIP3    H2 6463   1.066   0.080   0.595  2.4113 -1.4358 -0.2196
 2153TIP3   OH2 6464   2.186   2.100   1.628  0.2286  0.1058  0.3332
 2153TIP3    H1 6465   2.155   2.054   1.706 -0.8214 -0.1732 -0.2290
 2153TIP3    H2 6466   2.275   2.067   1.615 -0.4193 -1.6321  0.0731
 2154TIP3   OH2 6467   0.992   1.111   2.537  0.1551  0.0047  0.3743
 2154TIP3    H1 6468   0.969   1.018   2.545  1.4372 -0.5522 -1.5835
 2154TIP3    H2 6469   1.087   1.113   2.552 -0.1366  1.3091  2.2425
 2155TIP3   OH2 6470   4.072   4.447   4.475 -0.3551 -0.5198 -0.0618
 2155TIP3    H1 6471   4.001   4.468   4.536  0.9244  1.5654  0.8279
 2155TIP3    H2 6472   4.119   4.376   4.518 -0.7958 -0.6155  0.2811
 2156TIP3   OH2 6473   2.685   2.827   0.258  0.2844 -0.2946 -0.4810
 2156TIP3    H1 6474   2.593   2.807   0.278 -0.1593  0.1898 -1.8921
 2156TIP3    H2 6475   2.731   2.744   0.269  0.0249 -0.1819  1.9500
 2157TIP3   OH2 6476   3.886   4.390   0.256  0.3233  0.0849  0.4194
 2157TIP3    H1 6477   3.925   4.302   0.256  1.6144  0.6150 -0.5520
 2157TIP3    H2 6478   3.828   4.391   0.179 -0.0058 -0.0488  0.6666
 2158TIP3   OH2 6479   3.671   4.163   3.354  0.6088  0.3576 -0.8201
 2158TIP3    H1 6480   3.663   4.107   3.431  0.3541  1.1977 -0.2204
 2158TIP3    H2 6481   3.585   4.159   3.313  0.3565  0.8783 -0.3624
 2159TIP3   OH2 6482   4.271   2.508   4.828  0.3668  0.2515  0.6673
 2159TIP3    H1 6483   4.242   2.550   4.747  0.8772 -0.4316  0.1254
 2159TIP3    H2 6484   4.194   2.511   4.884  0.1477  1.1660  0.3448
 2160TIP3   OH2 6485   0.226   4.322   1.091 -0.3523  0.3290 -0.1695
 2160TIP3    H1 6486   0.177   4.300   1.171  1.1523  0.8684  0.9573
 2160TIP3    H2 6487   0.294   4.254   1.085 -0.8834 -0.1100 -1.4089
 2161TIP3   OH2 6488   4.372   2.680   1.755  0.6498 -0.5907 -0.1482
 2161TIP3    H1 6489   4.369   2.646   1.665 -2.0379  0.8834 -0.7045
 2161TIP3    H2 6490   4.361   2.774   1.746  0.9146 -0.3360  1.7276
 2162TIP3   OH2 6491   1.855   5.371   1.125  0.2354  0.0705  0.0757
 2162TIP3    H1 6492   1.900   5.303   1.075 -0.1626  0.0723 -0.2821
 2162TIP3    H2 6493   1.879   5.352   1.216  1.1990  0.2458 -0.1227
 2163TIP3   OH2 6494   1.296   1.608   4.664 -0.6676 -0.1722  0.0663
 2163TIP3    H1 6495   1.241   1.664   4.609  0.2136  0.6072 -0.0412
 2163TIP3    H2 6496   1.363   1.574   4.605  0.0098  0.2958  0.5561
 2164TIP3   OH2 6497   6.114   3.087   3.508 -0.3565 -0.1882  0.4253
 2164TIP3    H1 6498   6.169   3.143   3.561  0.7190  0.4170 -1.2369
 2164TIP3    H2 6499   6.095   3.138   3.429 -1.0522 -1.3914 -0.2354
 2165TIP3   OH2 6500   4.828   5.521   1.582 -0.1377 -0.9173  0.1351
 2165TIP3    H1 6501   4.807   5.428   1.573 -0.7518 -0.9750  1.7426
 2165TIP3    H2 6502   4.795   5.561   1.502  0.7164 -2.1673 -0.8733
 2166TIP3   OH2 6503   3.169   4.787   2.259 -0.0918 -0.0621 -0.0080
 2166TIP3    H1 6504   3.162   4.692   2.266 -2.7094  0.1179  0.8192
 2166TIP3    H2 6505   3.089   4.814   2.215  0.2245  1.8206  0.4770
 2167TIP3   OH2 6506   0.493   3.951   2.328 -0.0715 -0.1903  0.1635
 2167TIP3    H1 6507   0.544   3.892   2.382  0.7926  3.3298  3.6274
 2167TIP3    H2 6508   0.410   3.962   2.375 -1.0587 -0.1620 -1.4875
 2168TIP3   OH2 6509   3.658   4.583   2.739 -0.1397  0.1120 -0.5808
 2168TIP3    H1 6510   3.590   4.516   2.726  1.2142 -1.4571 -0.0287
 2168TIP3    H2 6511   3.721   4.567   2.669  0.6949  0.1350  0.1491
 2169TIP3   OH2 6512   0.447   3.861   0.774 -0.6827 -0.5192  0.3642
 2169TIP3    H1 6513   0.402   3.862   0.689 -0.6270 -0.2032  0.3380
 2169TIP3    H2 6514   0.382   3.896   0.836 -1.5464 -2.8515  0.8717
 2170TIP3   OH2 6515   3.125   4.618   0.620  0.0775 -0.4703 -0.1693
 2170TIP3    H1 6516   3.045   4.668   0.640  0.2536 -0.2163 -0.0882
 2170TIP3    H2 6517   3.186   4.644   0.689  0.5009 -0.0306 -0.7039
 2171TIP3   OH2 6518   3.962   5.583   4.778 -0.0056 -0.1441  0.2314
 2171TIP3    H1 6519   4.052   5.605   4.801 -0.1675  1.2139 -0.3171
 2171TIP3    H2 6520   3.952   5.615   4.688 -1.8169  2.2577  1.1745
 2172TIP3   OH2 6521   0.428   1.718   0.663  0.3751 -0.2479  0.4574
 2172TIP3    H1 6522   0.473   1.802   0.654  0.2493 -0.1948  0.3292
 2172TIP3    H2 6523   0.389   1.702   0.577 -0.7474  0.2118  0.8646
 2173TIP3   OH2 6524   3.961   1.420   1.540  0.1743  0.1896  0.0898
 2173TIP3    H1 6525   4.054   1.397   1.530  0.2543  0.6417 -0.2495
 2173TIP3    H2 6526   3.919   1.338   1.566  0.6522 -0.0462  0.1391
 2174TIP3   OH2 6527   1.898   5.739   2.395  0.2928  0.5025  0.0562
 2174TIP3    H1 6528   1.925   5.766   2.483 -1.1118  1.4093  0.2424
 2174TIP3    H2 6529   1.955   5.789   2.336  1.5630 -0.4681  0.4341
 2175TIP3   OH2 6530   6.006   3.993   4.129  0.3163 -0.0526 -0.1301
 2175TIP3    H1 6531   6.000   4.045   4.209  1.6998  1.8095 -1.1557
 2175TIP3    H2 6532   6.095   3.959   4.128  0.0005 -0.8921 -0.4035
 2176TIP3   OH2 6533   1.301   1.014   4.424 -0.1229  0.1907  0.3349
 2176TIP3    H1 6534   1.346   1.002   4.341  1.8640  2.5215  0.9501
 2176TIP3    H2 6535   1.210   1.031   4.399  0.3966  0.7214 -1.3885
 2177TIP3   OH2 6536   1.656   4.879   2.182 -0.2601 -0.3481  0.0877
 2177TIP3    H1 6537   1.598   4.802   2.181  0.6323 -1.0397 -0.8967
 2177TIP3    H2 6538   1.728   4.855   2.124  0.3436  1.0157  0.2409
 2178TIP3   OH2 6539   2.580   5.374   3.243 -0.0764 -0.0280 -0.5919
 2178TIP3    H1 6540   2.640   5.359   3.169  0.8250 -0.8530  0.2924
 2178TIP3    H2 6541   2.571   5.289   3.285  0.5613  0.6947  1.0960
 2179TIP3   OH2 6542   2.460   2.683   1.940 -0.6253  0.0358 -0.1074
 2179TIP3    H1 6543   2.462   2.719   2.029 -0.0174 -2.1345  0.8166
 2179TIP3    H2 6544   2.398   2.739   1.893 -0.1664  1.8840  1.3619
 2180TIP3   OH2 6545   4.456   2.987   0.031 -0.0143 -0.0935 -0.2904
 2180TIP3    H1 6546   4.382   2.977  -0.029  0.5872  0.5386 -1.1582
 2180TIP3    H2 6547   4.451   3.078   0.061  0.0941 -0.2059  0.0745
 2181TIP3   OH2 6548   0.114   2.423   0.672 -0.7407  0.1020 -0.3677
 2181TIP3    H1 6549   0.057   2.358   0.629 -1.1201  0.8462 -1.0077
 2181TIP3    H2 6550   0.111   2.400   0.765  0.3689 -1.7550 -0.7361
 2182TIP3   OH2 6551   2.301   1.382   4.312  0.3334 -0.1551 -0.5854
 2182TIP3    H1 6552   2.231   1.400   4.376 -0.0992 -2.5942 -0.2701
 2182TIP3    H2 6553   2.382   1.401   4.360 -0.0415 -0.2928  0.1256
 2183TIP3   OH2 6554   4.173   1.381   3.668  0.0413 -0.0518 -0.5237
 2183TIP3    H1 6555   4.248   1.321   3.670  3.3600  3.7553  0.6385
 2183TIP3    H2 6556   4.140   1.374   3.579  1.9243 -1.7001 -1.1726
 2184TIP3   OH2 6557   5.450   1.399   0.181 -0.1189 -0.3145  0.6522
 2184TIP3    H1 6558   5.360   1.381   0.152  0.2624 -0.1865 -0.6603
 2184TIP3    H2 6559   5.490   1.446   0.108  0.9546 -0.1606  1.3170
 2185TIP3   OH2 6560   2.305   4.272   0.817 -0.1239  0.0498 -0.3643
 2185TIP3    H1 6561   2.290   4.289   0.910  1.4419 -0.4092  0.0086
 2185TIP3    H2 6562   2.378   4.209   0.816  0.5535  0.8108 -1.9126
 2186TIP3   OH2 6563   5.696   4.762   3.267  0.6938  0.2296  0.0871
 2186TIP3    H1 6564   5.671   4.854   3.259 -0.0165  0.2233  1.8396
 2186TIP3    H2 6565   5.714   4.735   3.177  2.5574  2.5035 -0.3296
 2187TIP3   OH2 6566   0.293   0.043   1.121 -0.2818 -0.0810  0.1420
 2187TIP3    H1 6567   0.251   0.058   1.206 -1.0681 -0.1004 -0.2324
 2187TIP3    H2 6568   0.271   0.121   1.070 -1.0239 -0.6892 -0.5004
 2188TIP3   OH2 6569   1.263   3.047   1.725  0.4523 -0.6825 -0.5845
 2188TIP3    H1 6570   1.210   3.016   1.798 -0.0051  1.5598  0.1236
 2188TIP3    H2 6571   1.349   3.066   1.764  0.2628  0.3450 -0.6325
 2189TIP3   OH2 6572   1.139   5.693   1.426 -0.3046 -0.1879  0.0546
 2189TIP3    H1 6573   1.208   5.760   1.434 -0.4984 -0.0421  0.5265
 2189TIP3    H2 6574   1.096   5.713   1.343 -1.3112  1.1913  0.8680
 2190TIP3   OH2 6575   3.289   2.990   0.129  0.3569  0.2864 -0.0835
 2190TIP3    H1 6576   3.341   3.050   0.182 -1.0609 -1.0746  3.0845
 2190TIP3    H2 6577   3.332   2.905   0.139 -1.0931 -0.3942  0.6704
 2191TIP3   OH2 6578   5.846   4.644   0.725 -0.0729  0.1737  0.0156
 2191TIP3    H1 6579   5.756   4.660   0.755  0.8342  2.3871  1.8681
 2191TIP3    H2 6580   5.881   4.732   0.708  1.6760 -0.6579 -0.9052
 2192TIP3   OH2 6581   5.215   3.882   1.614 -0.2910  0.3010 -0.0743
 2192TIP3    H1 6582   5.267   3.930   1.550 -0.0718 -0.7773 -0.7262
 2192TIP3    H2 6583   5.263   3.892   1.696  0.1054  0.6183 -0.3394
 2193TIP3   OH2 6584   4.243   0.962   1.041  0.1666  0.1355  0.2122
 2193TIP3    H1 6585   4.157   0.981   1.002  0.3897  1.2420  0.2295
 2193TIP3    H2 6586   4.235   0.871   1.072 -0.4894 -0.3041 -1.1359
 2194TIP3   OH2 6587   1.724   5.055   1.840  0.0029  0.3385  0.4148
 2194TIP3    H1 6588   1.785   5.066   1.767  1.0159 -1.7972  0.8555
 2194TIP3    H2 6589   1.638   5.054   1.798  0.5097 -0.0363 -0.6703
 2195TIP3   OH2 6590   3.576   2.885   0.757  0.0360  0.4355 -0.3098
 2195TIP3    H1 6591   3.666   2.902   0.785  0.1736 -1.5723  0.6556
 2195TIP3    H2 6592   3.522   2.921   0.828  0.0996  1.0638 -0.5770
 2196TIP3   OH2 6593   0.693   4.815   4.015  1.0488  0.4567  0.6403
 2196TIP3    H1 6594   0.646   4.811   4.099  0.2802  1.0626  0.2496
 2196TIP3    H2 6595   0.718   4.907   4.006 -0.9692  0.9260 -0.9004
 2197TIP3   OH2 6596   5.046   5.229   2.089  0.5843  0.1080 -0.0733
 2197TIP3    H1 6597   5.109   5.171   2.046  0.3069  0.5070 -1.0324
 2197TIP3    H2 6598   4.964   5.214   2.043 -0.2318 -0.9154  1.6145
 2198TIP3   OH2 6599   4.169   3.002   0.012  0.3307 -0.0634  0.5623
 2198TIP3    H1 6600   4.171   2.920  -0.037 -0.0253  0.6307 -0.6432
 2198TIP3    H2 6601   4.094   2.992   0.071  0.7615 -0.9009  0.9922
 2199TIP3   OH2 6602   5.025   0.952   0.451 -0.1798 -0.6370 -0.1927
 2199TIP3    H1 6603   5.104   0.901   0.434  0.6968  0.5039  0.3686
 2199TIP3    H2 6604   4.997   0.982   0.364  0.1336 -0.8447 -0.3684
 2200TIP3   OH2 6605   6.246   5.525   3.043 -0.4349  0.0389 -0.0793
 2200TIP3    H1 6606   6.207   5.448   3.085  0.9114 -1.0649 -0.7802
 2200TIP3    H2 6607   6.291   5.491   2.966  1.4494  1.3003  0.3852
 2201TIP3   OH2 6608   5.307   0.441   4.899 -0.1750 -0.0140  0.2187
 2201TIP3    H1 6609   5.292   0.508   4.966  2.4060  1.1426 -0.2482
 2201TIP3    H2 6610   5.283   0.484   4.816  0.0371 -0.2024  0.0572
 2202TIP3   OH2 6611   3.730   3.166   4.923 -0.3003 -0.0034 -0.6796
 2202TIP3    H1 6612   3.686   3.088   4.958  0.1963  0.2025  0.4567
 2202TIP3    H2 6613   3.766   3.137   4.839 -0.0638 -1.0194 -0.2491
 2203TIP3   OH2 6614   2.348   1.017   0.237 -0.2766 -0.3421 -0.4121
 2203TIP3    H1 6615   2.307   1.100   0.264 -0.7510 -0.0392 -1.9974
 2203TIP3    H2 6616   2.274   0.957   0.226 -0.0738 -0.5094 -0.8499
 2204TIP3   OH2 6617   5.662   3.586   2.942  0.2334  0.5891 -0.3645
 2204TIP3    H1 6618   5.692   3.514   2.998 -3.0779 -0.4480  0.2783
 2204TIP3    H2 6619   5.705   3.570   2.858  0.0454 -1.8445 -0.0803
 2205TIP3   OH2 6620   1.493   4.612   3.316 -0.1889  0.2743 -0.3446
 2205TIP3    H1 6621   1.438   4.612   3.394 -0.4571 -1.2188 -0.5079
 2205TIP3    H2 6622   1.574   4.570   3.343 -0.2677 -0.2123 -0.8590
 2206TIP3   OH2 6623   1.468   1.198   0.934 -0.3799  0.3174  0.4468
 2206TIP3    H1 6624   1.391   1.254   0.940 -0.5596  0.1307 -0.0586
 2206TIP3    H2 6625   1.467   1.146   1.014 -1.5872 -0.7147 -0.2111
 2207TIP3   OH2 6626   2.175   5.411   3.769 -0.0635 -0.8519  0.0979
 2207TIP3    H1 6627   2.177   5.414   3.864 -1.4030 -0.2586  0.1301
 2207TIP3    H2 6628   2.267   5.396   3.743  0.3348 -0.8666  1.4573
 2208TIP3   OH2 6629   4.724   0.927   1.160 -0.1861 -0.2318  0.2016
 2208TIP3    H1 6630   4.783   0.988   1.204  0.6976 -0.8679 -0.0823
 2208TIP3    H2 6631   4.638   0.968   1.167 -0.0090 -0.0951  2.1159
 2209TIP3   OH2 6632   5.088   0.258   1.765  0.0777 -0.2663  0.2787
 2209TIP3    H1 6633   5.011   0.315   1.770 -0.2076 -0.5714 -0.4473
 2209TIP3    H2 6634   5.152   0.309   1.717  0.2578 -0.0992  0.6880
 2210TIP3   OH2 6635   3.627   3.449   3.376  0.2420  0.0307 -0.2985
 2210TIP3    H1 6636   3.618   3.544   3.388 -0.1164 -0.0590  0.1453
 2210TIP3    H2 6637   3.613   3.436   3.282 -1.8008  0.1944 -0.0687
 2211TIP3   OH2 6638   0.742   3.715   4.369  0.3694 -0.0861 -0.2350
 2211TIP3    H1 6639   0.742   3.747   4.279 -0.4520  0.6998  0.0381
 2211TIP3    H2 6640   0.658   3.743   4.406  0.4939 -0.7921  0.6428
 2212TIP3   OH2 6641   2.205   0.180   5.014 -0.3379  0.4653 -0.2485
 2212TIP3    H1 6642   2.143   0.161   5.084 -1.0205  2.8606 -0.1400
 2212TIP3    H2 6643   2.247   0.262   5.039  1.1330  0.1732 -1.5238
 2213TIP3   OH2 6644   1.751   5.471   2.492  0.3072  0.0140  0.0504
 2213TIP3    H1 6645   1.687   5.476   2.421  0.6798 -1.6911 -0.4749
 2213TIP3    H2 6646   1.752   5.378   2.516  1.6943  0.2153  0.8733
 2214TIP3   OH2 6647   3.358   3.016   4.744  0.5445  0.1244 -0.5107
 2214TIP3    H1 6648   3.391   2.938   4.700 -0.4108 -0.6078  0.0195
 2214TIP3    H2 6649   3.427   3.081   4.733  2.5622 -1.5634  1.2385
 2215TIP3   OH2 6650   4.917   1.719   3.652 -0.1744  0.6242  0.6498
 2215TIP3    H1 6651   4.850   1.775   3.613  0.5241  0.6135 -0.6532
 2215TIP3    H2 6652   4.919   1.641   3.596 -1.4760 -1.0098  2.7179
 2216TIP3   OH2 6653   0.056   4.353   4.814 -0.0015  0.0894 -0.4970
 2216TIP3    H1 6654   0.135   4.326   4.768  0.1293  0.7492 -0.6771
 2216TIP3    H2 6655   0.048   4.447   4.795  1.0496  0.8318  2.2481
 2217TIP3   OH2 6656   3.926   5.346   0.693 -0.7389  0.0751 -0.3272
 2217TIP3    H1 6657   3.966   5.419   0.742  0.2252 -0.7340  0.1286
 2217TIP3    H2 6658   3.837   5.341   0.727 -0.6210  0.6398  0.0908
 2218TIP3   OH2 6659   1.983   0.566   4.885  0.2769  0.5771  0.0098
 2218TIP3    H1 6660   2.069   0.535   4.911  0.0068 -0.1449  0.0737
 2218TIP3    H2 6661   2.000   0.626   4.812  0.7738 -0.3289 -0.6416
 2219TIP3   OH2 6662   0.457   5.498   4.776  0.2329  0.1315  0.0181
 2219TIP3    H1 6663   0.394   5.561   4.741 -0.4738 -0.8478 -0.5365
 2219TIP3    H2 6664   0.428   5.413   4.742  1.7009 -0.3897 -0.0418
 2220TIP3   OH2 6665   0.371   1.703   4.426 -0.1551  0.1161 -0.3370
 2220TIP3    H1 6666   0.329   1.655   4.355  0.1794  0.0375 -0.4820
 2220TIP3    H2 6667   0.341   1.793   4.415 -0.5622 -0.0059 -0.2310
 2221TIP3   OH2 6668   1.348   5.848   5.061 -0.3301 -0.0358 -0.3531
 2221TIP3    H1 6669   1.405   5.858   5.137 -2.0718 -1.8235  1.2805
 2221TIP3    H2 6670   1.409   5.840   4.987  1.5644 -1.6994  1.2624
 2222TIP3   OH2 6671   5.922   1.066   2.130  0.2059 -0.1111 -0.7060
 2222TIP3    H1 6672   5.868   1.034   2.203  0.2441 -0.7765 -0.9661
 2222TIP3    H2 6673   5.860   1.087   2.061  0.1411  0.8433 -0.3746
 2223TIP3   OH2 6674   3.493   2.699   2.599 -0.0682  0.0533  0.1390
 2223TIP3    H1 6675   3.554   2.739   2.662  0.7205 -0.2460 -0.4168
 2223TIP3    H2 6676   3.447   2.773   2.560  1.3433  0.4596 -0.8474
 2224TIP3   OH2 6677   1.678   1.929   0.121  0.1847 -0.5924 -0.4550
 2224TIP3    H1 6678   1.747   1.919   0.055  1.0646  1.2049  0.1144
 2224TIP3    H2 6679   1.718   1.900   0.202  1.3810  2.9855  0.4274
 2225TIP3   OH2 6680   5.996   5.377   3.407  0.2183 -0.1124  0.5825
 2225TIP3    H1 6681   5.960   5.389   3.495 -1.4825  0.6120 -0.1683
 2225TIP3    H2 6682   5.942   5.432   3.351  2.0752  0.4774 -0.7595
 2226TIP3   OH2 6683   4.089   2.488   4.300 -0.0755 -0.2422  0.2085
 2226TIP3    H1 6684   4.016   2.527   4.251  0.0158 -0.2372  0.0784
 2226TIP3    H2 6685   4.079   2.394   4.287  0.6753 -0.1877 -0.8473
 2227TIP3   OH2 6686   2.705   1.671   4.537  0.0287 -0.3676  0.3619
 2227TIP3    H1 6687   2.764   1.646   4.608  1.6615 -1.2099 -1.2202
 2227TIP3    H2 6688   2.762   1.705   4.468 -1.2159 -1.6107 -1.4079
 2228TIP3   OH2 6689   5.395   2.468   0.764  0.0266  0.2092  0.0357
 2228TIP3    H1 6690   5.395   2.403   0.694  0.0591 -0.7503  0.9123
 2228TIP3    H2 6691   5.487   2.493   0.774  0.4968 -1.9584  1.7993
 2229TIP3   OH2 6692   2.864   5.357   3.600  0.3593 -0.4849  0.0134
 2229TIP3    H1 6693   2.853   5.451   3.613 -2.4911 -0.8918  1.2206
 2229TIP3    H2 6694   2.909   5.349   3.515 -1.0627  1.9363 -1.0547
 2230TIP3   OH2 6695   3.062   2.759   2.302 -0.1594  0.3466  0.2321
 2230TIP3    H1 6696   3.077   2.665   2.313 -3.0229 -0.4366 -1.4728
 2230TIP3    H2 6697   2.980   2.776   2.349  0.0618  1.8858  0.1077
 2231TIP3   OH2 6698   2.312   5.176   0.300  0.4172 -0.9157 -0.3272
 2231TIP3    H1 6699   2.270   5.258   0.272 -2.1400 -1.2969  1.9742
 2231TIP3    H2 6700   2.255   5.107   0.265  0.8124 -1.5835  0.3166
 2232TIP3   OH2 6701   4.753   5.725   1.759 -0.1327  0.9736 -0.0088
 2232TIP3    H1 6702   4.695   5.691   1.827  1.7912  0.1161  1.3031
 2232TIP3    H2 6703   4.762   5.652   1.698  0.5351  0.6585  0.4592
 2233TIP3   OH2 6704   2.240   1.830   5.044  0.1045 -0.1308  0.0914
 2233TIP3    H1 6705   2.297   1.815   5.120  0.6690  1.3841  0.0067
 2233TIP3    H2 6706   2.152   1.825   5.080  0.2401 -2.4658  0.2383
 2234TIP3   OH2 6707   4.596   2.899   0.728  0.3010 -0.3846 -0.1434
 2234TIP3    H1 6708   4.559   2.849   0.655  0.0040  0.6785 -0.7517
 2234TIP3    H2 6709   4.611   2.986   0.691  0.2896  0.1340  1.0356
 2235TIP3   OH2 6710   2.649   0.839   2.717  0.1616 -0.5160 -0.1003
 2235TIP3    H1 6711   2.629   0.889   2.796  0.1901 -0.3542 -0.1967
 2235TIP3    H2 6712   2.604   0.756   2.730 -1.6689  0.3169 -0.9040
 2236TIP3   OH2 6713   5.103   3.201   1.538  0.0987  0.2963  0.3399
 2236TIP3    H1 6714   5.079   3.268   1.601 -1.4091 -0.5794  0.7214
 2236TIP3    H2 6715   5.130   3.251   1.460 -0.7488  1.3484  0.6936
 2237TIP3   OH2 6716   5.371   1.249   4.364 -0.6082  0.0190 -0.8515
 2237TIP3    H1 6717   5.302   1.223   4.304 -0.9472  0.9310 -0.8751
 2237TIP3    H2 6718   5.325   1.284   4.440 -0.1753 -0.1028 -0.5278
 2238TIP3   OH2 6719   3.446   2.122   0.384  0.0163  0.1536  0.1379
 2238TIP3    H1 6720   3.394   2.165   0.453 -0.1813  0.7436 -0.3700
 2238TIP3    H2 6721   3.384   2.104   0.315  0.3205  0.0579 -0.1118
 2239TIP3   OH2 6722   2.197   5.619   4.365 -0.2470  0.2402  0.2731
 2239TIP3    H1 6723   2.292   5.631   4.366 -0.2552  0.2477  1.1943
 2239TIP3    H2 6724   2.176   5.586   4.452 -0.8617 -1.6251 -0.5520
 2240TIP3   OH2 6725   1.335   2.246   2.519  0.0652 -0.0986 -0.1855
 2240TIP3    H1 6726   1.240   2.249   2.525 -0.0340 -1.6739 -0.6368
 2240TIP3    H2 6727   1.355   2.157   2.490  1.6779  0.2061 -0.1112
 2241TIP3   OH2 6728   3.920   3.794   2.982 -0.3554 -0.0177  0.2464
 2241TIP3    H1 6729   3.957   3.814   2.896 -1.0916  1.7298  0.3056
 2241TIP3    H2 6730   3.989   3.817   3.044 -0.1104 -0.5458  0.1781
 2242TIP3   OH2 6731   3.987   5.218   5.147 -0.1201  0.3813  0.0903
 2242TIP3    H1 6732   3.950   5.201   5.233 -0.8749  0.0469 -0.2966
 2242TIP3    H2 6733   3.926   5.278   5.105  0.3848  0.7632 -0.1167
 2243TIP3   OH2 6734   6.024   1.284   3.629 -0.0866 -0.2717  0.3390
 2243TIP3    H1 6735   5.973   1.315   3.554 -0.8361 -1.0152  0.5308
 2243TIP3    H2 6736   5.963   1.231   3.680  0.8395 -1.0885  0.6395
 2244TIP3   OH2 6737   1.615   2.281   4.501 -0.0663  0.4558  0.5324
 2244TIP3    H1 6738   1.617   2.359   4.558 -0.6711  2.0037 -1.4671
 2244TIP3    H2 6739   1.701   2.282   4.458 -0.0563 -0.0221  0.5460
 2245TIP3   OH2 6740   5.629   1.278   3.933  0.1169  0.3898  0.1504
 2245TIP3    H1 6741   5.639   1.264   4.027  0.2916 -1.5275 -0.1260
 2245TIP3    H2 6742   5.715   1.310   3.905  0.1817  0.5887  0.5660
 2246TIP3   OH2 6743   0.074   5.821   4.579 -0.3084  0.0129  0.6027
 2246TIP3    H1 6744   0.132   5.871   4.637 -1.2760 -0.5890  2.1559
 2246TIP3    H2 6745  -0.012   5.860   4.593 -0.9921 -1.7416  1.4737
 2247TIP3   OH2 6746   5.943   4.566   2.146 -0.1601 -0.2340  0.0073
 2247TIP3    H1 6747   5.902   4.638   2.099 -2.0826 -0.6932  0.8709
 2247TIP3    H2 6748   5.940   4.492   2.086 -1.6183 -0.5391  0.4341
 2248TIP3   OH2 6749   5.179   3.743   4.436  0.1454  0.1938 -0.8788
 2248TIP3    H1 6750   5.156   3.816   4.379  0.3786 -0.5756 -1.9874
 2248TIP3    H2 6751   5.131   3.760   4.517 -0.0826  1.3831 -1.2440
 2249TIP3   OH2 6752   4.392   4.712   2.757  0.2684  0.1430  0.1126
 2249TIP3    H1 6753   4.447   4.649   2.803  0.1949 -0.2211 -0.2918
 2249TIP3    H2 6754   4.405   4.795   2.804 -0.9469 -0.5342  1.7261
 2250TIP3   OH2 6755   4.016   2.984   0.749  0.1082  0.2982 -0.3312
 2250TIP3    H1 6756   4.025   2.905   0.696  1.7958  0.8140 -0.8595
 2250TIP3    H2 6757   4.105   3.006   0.776 -0.5823  0.5360  2.0544
 2251TIP3   OH2 6758   1.639   1.969   5.115 -0.7187  0.8273 -0.6624
 2251TIP3    H1 6759   1.566   1.908   5.126 -1.0454  1.6318  2.6270
 2251TIP3    H2 6760   1.712   1.914   5.087 -1.6163 -0.6423 -0.2133
 2252TIP3   OH2 6761   3.134   4.212   1.711  0.3656 -0.1304  0.2978
 2252TIP3    H1 6762   3.105   4.300   1.686  2.8366  0.1513 -2.0986
 2252TIP3    H2 6763   3.200   4.227   1.779  0.2148 -0.1967  0.4589
 2253TIP3   OH2 6764   0.337   4.595   1.194 -0.1255  0.1631 -0.8267
 2253TIP3    H1 6765   0.362   4.503   1.198 -1.3752 -0.1681 -0.4177
 2253TIP3    H2 6766   0.378   4.634   1.271  0.3766 -0.0369 -0.9826
 2254TIP3   OH2 6767   1.857   4.246   0.996 -0.1450 -0.1672 -0.3650
 2254TIP3    H1 6768   1.811   4.174   1.040  0.7969  0.9312  2.7348
 2254TIP3    H2 6769   1.946   4.214   0.985 -0.1598 -0.1105 -0.6415
 2255TIP3   OH2 6770   6.205   1.968   3.991 -0.0819  0.3305  0.0985
 2255TIP3    H1 6771   6.184   2.008   3.907  1.1562  0.8455  0.0100
 2255TIP3    H2 6772   6.273   1.903   3.970 -0.5830 -0.3498  0.5414
 2256TIP3   OH2 6773   5.296   3.461   2.761  0.2081  0.0415  0.1662
 2256TIP3    H1 6774   5.213   3.502   2.785  0.5583  0.4257  0.7662
 2256TIP3    H2 6775   5.308   3.391   2.825 -0.6138 -1.3464 -1.1377
 2257TIP3   OH2 6776   3.365   4.569   2.090  0.2751 -0.0994 -0.3068
 2257TIP3    H1 6777   3.379   4.483   2.132  0.2774  0.0800  0.0648
 2257TIP3    H2 6778   3.430   4.626   2.130  0.4040  0.0317 -0.6991
 2258TIP3   OH2 6779   3.307   1.645   0.510 -0.4202  0.1239  0.9368
 2258TIP3    H1 6780   3.284   1.737   0.500 -1.1518 -0.1738 -0.2098
 2258TIP3    H2 6781   3.402   1.646   0.526 -0.0656  0.9827 -0.9763
 2259TIP3   OH2 6782   2.026   3.099   4.377  0.8438 -0.2226  0.0420
 2259TIP3    H1 6783   2.120   3.084   4.382  0.8570 -0.0193  0.4357
 2259TIP3    H2 6784   1.986   3.015   4.404  0.9044 -0.4552 -0.5658
 2260TIP3   OH2 6785   5.546   0.699   4.614  0.0023  0.3443 -0.0883
 2260TIP3    H1 6786   5.621   0.655   4.573  0.1228  0.0906  0.3986
 2260TIP3    H2 6787   5.578   0.786   4.635 -0.5674  1.0956 -2.0816
 2261TIP3   OH2 6788   3.681   3.398   4.199  0.5576  0.1983 -0.7600
 2261TIP3    H1 6789   3.688   3.365   4.110  0.4389 -0.2076 -0.6205
 2261TIP3    H2 6790   3.748   3.350   4.248 -0.5787 -0.8907 -0.2483
 2262TIP3   OH2 6791   4.910   1.303   3.026 -0.6190  0.3893 -0.5234
 2262TIP3    H1 6792   4.992   1.264   2.996 -1.5791  0.2143 -3.2587
 2262TIP3    H2 6793   4.930   1.396   3.033 -0.4458  0.5513 -2.4932
 2263TIP3   OH2 6794   4.159   1.232   2.987  0.0289 -0.3637  0.3193
 2263TIP3    H1 6795   4.252   1.257   2.988 -0.2975  0.9714 -0.3478
 2263TIP3    H2 6796   4.142   1.208   2.896 -0.3622 -0.2500  0.3619
 2264TIP3   OH2 6797   2.162   0.474   0.111 -0.3553  0.0016  0.4173
 2264TIP3    H1 6798   2.199   0.386   0.110 -1.1526 -0.3406  0.7131
 2264TIP3    H2 6799   2.175   0.504   0.201  0.9474  0.6478  0.0490
 2265TIP3   OH2 6800   2.576   5.372   4.821  0.5751 -0.1598  0.2767
 2265TIP3    H1 6801   2.630   5.410   4.890  1.1519  1.0165 -0.7806
 2265TIP3    H2 6802   2.638   5.346   4.753 -0.1453  2.9535 -1.8278
 2266TIP3   OH2 6803   1.115   1.651   1.567 -0.4419  0.0403  0.1187
 2266TIP3    H1 6804   1.175   1.577   1.562  0.8177  1.0004  0.6553
 2266TIP3    H2 6805   1.041   1.626   1.511  1.5822 -0.1341 -2.6916
 2267TIP3   OH2 6806   1.971   3.642   2.979  0.0575  0.2075  0.1250
 2267TIP3    H1 6807   2.052   3.641   3.030 -0.6673  0.0802  1.3041
 2267TIP3    H2 6808   1.926   3.722   3.006 -0.8177 -0.3887  0.4847
 2268TIP3   OH2 6809   4.615   3.722   2.390 -0.1481 -0.1356  0.0058
 2268TIP3    H1 6810   4.611   3.816   2.372 -1.0208 -0.0762  0.4529
 2268TIP3    H2 6811   4.660   3.717   2.474 -0.5793 -0.0821  0.2403
 2269TIP3   OH2 6812   0.992   1.885   2.494 -0.1607  0.4911 -0.3180
 2269TIP3    H1 6813   0.922   1.821   2.489  0.1149  0.1662 -0.1247
 2269TIP3    H2 6814   1.027   1.891   2.405 -1.1839  1.5223 -0.6668
 2270TIP3   OH2 6815   0.909   2.271   0.706 -0.5046 -0.5123  0.2514
 2270TIP3    H1 6816   0.882   2.289   0.616 -0.3999 -2.5078 -0.2371
 2270TIP3    H2 6817   0.831   2.287   0.758 -1.0070 -0.7861 -0.4040
 2271TIP3   OH2 6818   2.442   4.126   3.761 -0.1182 -0.3521  0.4052
 2271TIP3    H1 6819   2.373   4.160   3.818 -0.0245  0.7960 -0.1373
 2271TIP3    H2 6820   2.523   4.157   3.799 -0.0478  0.3092 -0.2695
 2272TIP3   OH2 6821   2.851   1.443   2.876  0.0771  0.1204 -0.5593
 2272TIP3    H1 6822   2.821   1.437   2.966  0.7534 -2.2537 -0.4085
 2272TIP3    H2 6823   2.918   1.511   2.876 -1.1774  1.4126  0.2962
 2273TIP3   OH2 6824   3.072   1.198   2.982 -0.4006 -0.0118 -0.2878
 2273TIP3    H1 6825   3.139   1.234   3.041  0.4097 -2.2545  0.2699
 2273TIP3    H2 6826   3.023   1.275   2.952  0.9555  1.4849  1.0906
 2274TIP3   OH2 6827   0.510   1.100   2.884  0.8032 -0.1420 -0.0008
 2274TIP3    H1 6828   0.431   1.100   2.939 -0.1565 -2.5305 -1.2560
 2274TIP3    H2 6829   0.481   1.139   2.802  1.0293 -0.6972 -0.3441
 2275TIP3   OH2 6830   2.318   1.362   2.205  0.4524 -0.0857 -0.1182
 2275TIP3    H1 6831   2.408   1.381   2.181  0.5730 -1.3537 -0.7478
 2275TIP3    H2 6832   2.320   1.273   2.239 -0.7686 -0.6561 -1.4312
 2276TIP3   OH2 6833   2.953   3.993   1.458 -0.4472  0.6627 -0.3861
 2276TIP3    H1 6834   2.857   3.989   1.459 -0.4184 -0.0696  0.6543
 2276TIP3    H2 6835   2.979   3.986   1.550  0.5971  1.4610 -0.5907
 2277TIP3   OH2 6836   1.155   0.393   4.354 -0.3669 -0.2074 -0.2509
 2277TIP3    H1 6837   1.204   0.451   4.295  0.9008 -0.7706  0.1989
 2277TIP3    H2 6838   1.097   0.452   4.403  1.5267  0.8552  0.8388
 2278TIP3   OH2 6839   2.285   2.954   4.354  0.4730 -0.3026  0.1556
 2278TIP3    H1 6840   2.373   2.992   4.347 -0.3847  1.5727 -1.1954
 2278TIP3    H2 6841   2.268   2.917   4.268 -0.3166 -0.0315  0.1875
 2279TIP3   OH2 6842   3.369   0.942   4.371 -0.5065  0.1329 -0.3569
 2279TIP3    H1 6843   3.427   1.000   4.420 -0.2459  0.7046 -1.3094
 2279TIP3    H2 6844   3.420   0.915   4.295 -0.3245 -2.0712  0.5065
 2280TIP3   OH2 6845   1.421   1.176   1.432  0.1979 -0.0024 -0.0625
 2280TIP3    H1 6846   1.339   1.186   1.384  0.4410 -3.7953 -1.5517
 2280TIP3    H2 6847   1.470   1.256   1.412 -1.3383  0.3621 -2.8717
 2281TIP3   OH2 6848   0.539   0.757   2.109 -0.4671  0.1186 -0.2451
 2281TIP3    H1 6849   0.634   0.757   2.103 -0.4524  0.2310 -0.0222
 2281TIP3    H2 6850   0.519   0.706   2.187 -0.5460  0.9275  0.2784
 2282TIP3   OH2 6851   6.194   0.834   2.331  0.3277  0.4016  0.1230
 2282TIP3    H1 6852   6.185   0.828   2.426 -3.0552  0.2169 -0.0871
 2282TIP3    H2 6853   6.191   0.927   2.311 -1.8845  0.3778  0.1007
 2283TIP3   OH2 6854   1.120   3.305   3.828 -0.2088  0.3704 -0.6033
 2283TIP3    H1 6855   1.188   3.238   3.830 -0.6112 -0.0243  0.8816
 2283TIP3    H2 6856   1.085   3.307   3.917 -1.0362  1.7045 -0.9284
 2284TIP3   OH2 6857   3.650   4.466   0.088 -0.0976 -0.7152 -0.4390
 2284TIP3    H1 6858   3.578   4.473   0.025  1.7082  1.1442 -2.4285
 2284TIP3    H2 6859   3.623   4.394   0.146 -2.4514 -1.6733 -2.5187
 2285TIP3   OH2 6860   1.781   2.181   3.766 -0.0402  0.8047  0.3816
 2285TIP3    H1 6861   1.818   2.269   3.775 -0.8009  1.1559  0.1328
 2285TIP3    H2 6862   1.690   2.195   3.741  0.3210 -0.0739 -1.6097
 2286TIP3   OH2 6863   3.858   4.793   2.348  0.0146 -0.2997 -0.3826
 2286TIP3    H1 6864   3.948   4.820   2.327  0.0633 -0.6743 -0.6801
 2286TIP3    H2 6865   3.803   4.841   2.286 -0.2009  1.5989  1.1998
 2287TIP3   OH2 6866   2.027   2.402   0.636  0.3138  0.0844  0.4010
 2287TIP3    H1 6867   1.958   2.469   0.635  0.5069  0.3205  1.4081
 2287TIP3    H2 6868   2.074   2.418   0.718  2.6318  0.9786 -0.9967
 2288TIP3   OH2 6869   2.817   1.408   1.634  0.0086  0.0578 -0.0430
 2288TIP3    H1 6870   2.785   1.462   1.707 -1.1001 -0.2316 -0.3030
 2288TIP3    H2 6871   2.905   1.382   1.661  1.1851  3.1187 -0.4891
 2289TIP3   OH2 6872   0.378   1.490   2.419 -0.3632  0.4237  0.0517
 2289TIP3    H1 6873   0.337   1.540   2.348 -0.6689 -0.7157 -0.5917
 2289TIP3    H2 6874   0.308   1.478   2.483 -0.4759  0.2430 -0.1046
 2290TIP3   OH2 6875   5.499   3.395   2.044  0.0119 -0.0151  0.0721
 2290TIP3    H1 6876   5.495   3.370   2.137  1.2612  1.2404  0.5046
 2290TIP3    H2 6877   5.441   3.333   2.000 -2.8011  1.0390  2.0115
 2291TIP3   OH2 6878   0.484   1.361   0.924 -0.2344 -0.2218  0.3374
 2291TIP3    H1 6879   0.394   1.390   0.910  0.1341  0.4071 -0.8611
 2291TIP3    H2 6880   0.529   1.438   0.960  0.3853  0.2996 -1.4259
 2292TIP3   OH2 6881   2.372   2.927   4.066  0.2090 -0.0916  0.2796
 2292TIP3    H1 6882   2.300   2.865   4.065  0.2713 -0.2045 -1.4623
 2292TIP3    H2 6883   2.439   2.888   4.009 -0.0497  1.8411 -1.4779
 2293TIP3   OH2 6884   2.675   4.535   3.233 -0.1942 -0.3142 -0.1630
 2293TIP3    H1 6885   2.653   4.489   3.152  1.9086 -0.6015 -0.6229
 2293TIP3    H2 6886   2.738   4.602   3.207  0.1422 -0.0726  1.1633
 2294TIP3   OH2 6887   0.795   0.885   3.104  0.0734  0.1394  0.4622
 2294TIP3    H1 6888   0.789   0.808   3.048  0.5753  0.5814 -0.2230
 2294TIP3    H2 6889   0.732   0.869   3.174  1.2128 -1.5585  1.1624
 2295TIP3   OH2 6890   5.869   5.312   2.467 -0.1739  0.7845  0.1427
 2295TIP3    H1 6891   5.927   5.246   2.503 -0.0269  3.0275  4.8010
 2295TIP3    H2 6892   5.925   5.365   2.410  1.8374  1.2868  2.4039
 2296TIP3   OH2 6893   0.391   4.869   2.633  0.2129  0.2366 -0.0855
 2296TIP3    H1 6894   0.341   4.840   2.709  0.6465  0.1828  0.1756
 2296TIP3    H2 6895   0.324   4.903   2.573 -0.1920 -0.3025  0.0491
 2297TIP3   OH2 6896   1.438   0.227   1.828 -0.1998 -0.1795  0.1632
 2297TIP3    H1 6897   1.451   0.317   1.799  0.2452 -0.7730 -1.6211
 2297TIP3    H2 6898   1.345   0.221   1.848 -0.0596  0.9106  1.2089
 2298TIP3   OH2 6899   0.108   2.768   4.544  0.1389  0.3691  0.2524
 2298TIP3    H1 6900   0.027   2.786   4.495  1.0055  1.1427 -0.9548
 2298TIP3    H2 6901   0.175   2.818   4.498  1.1283  0.6253  1.8793
 2299TIP3   OH2 6902   2.742   0.096   2.211  0.0001  0.0461 -0.4374
 2299TIP3    H1 6903   2.718   0.005   2.192  1.1928 -0.8524  1.9672
 2299TIP3    H2 6904   2.824   0.090   2.260 -0.4381  2.3611  0.7300
 2300TIP3   OH2 6905   3.546   0.795   2.489 -0.2582 -0.4043  0.4094
 2300TIP3    H1 6906   3.508   0.781   2.403 -1.0157  0.1696  0.6398
 2300TIP3    H2 6907   3.476   0.773   2.550  0.5550 -1.7044  0.9168
 2301TIP3   OH2 6908   5.891   3.732   1.553  0.3660  0.2144  0.4729
 2301TIP3    H1 6909   5.880   3.785   1.475 -0.4422  0.1006  0.5011
 2301TIP3    H2 6910   5.873   3.642   1.524  0.0512  0.1724  0.7874
 2302TIP3   OH2 6911   4.072   2.098   0.417 -0.3890 -0.5927  0.0130
 2302TIP3    H1 6912   4.088   2.104   0.511 -3.4544 -0.8688  0.6387
 2302TIP3    H2 6913   4.036   2.184   0.393  0.9443 -0.2996 -1.0902
 2303TIP3   OH2 6914   0.191   2.248   1.965 -0.2000 -0.6988 -0.2912
 2303TIP3    H1 6915   0.178   2.154   1.973  1.8472 -1.0264 -0.3242
 2303TIP3    H2 6916   0.176   2.267   1.872  0.1953 -1.1434 -0.4462
 2304TIP3   OH2 6917   0.801   4.803   0.383 -0.1141 -0.0296  0.0780
 2304TIP3    H1 6918   0.800   4.770   0.473 -0.6595  1.9972  0.8662
 2304TIP3    H2 6919   0.761   4.890   0.389  0.7179  0.5447 -1.9732
 2305TIP3   OH2 6920   0.806   5.404   1.593  0.3389 -0.6115  0.2363
 2305TIP3    H1 6921   0.836   5.495   1.593 -0.8994 -0.1843  0.6713
 2305TIP3    H2 6922   0.739   5.401   1.661  0.5305 -1.9175  0.3917
 2306TIP3   OH2 6923   0.461   1.233   2.620 -0.2848  0.6785  0.2509
 2306TIP3    H1 6924   0.533   1.226   2.558  0.1863  2.0523  0.5954
 2306TIP3    H2 6925   0.400   1.164   2.595  0.5705  0.2865 -0.8189
 2307TIP3   OH2 6926   0.500   5.330   3.826 -0.3813 -0.1993  0.4173
 2307TIP3    H1 6927   0.554   5.329   3.905 -0.1316 -1.6095  0.2501
 2307TIP3    H2 6928   0.413   5.303   3.856 -1.2287  2.5956  0.7866
 2308TIP3   OH2 6929   4.773   0.905   3.347  0.0403 -0.2853  0.1153
 2308TIP3    H1 6930   4.787   0.988   3.302 -2.7433 -0.2848 -0.9484
 2308TIP3    H2 6931   4.814   0.916   3.433  0.2386  1.9359 -0.2222
 2309TIP3   OH2 6932   1.645   4.779   1.623 -0.2400 -0.3967  0.2149
 2309TIP3    H1 6933   1.661   4.731   1.704 -0.7469 -0.3964  0.3183
 2309TIP3    H2 6934   1.551   4.770   1.608 -0.2708  0.2038  0.0084
 2310TIP3   OH2 6935   3.131   1.391   3.514  1.3198  0.2763  0.2985
 2310TIP3    H1 6936   3.210   1.364   3.560  2.1271  0.2195 -1.0767
 2310TIP3    H2 6937   3.063   1.389   3.581  1.9735 -2.0316  1.0112
 2311TIP3   OH2 6938   0.432   0.525   4.125 -0.3496 -0.3345  0.3417
 2311TIP3    H1 6939   0.435   0.499   4.217  1.6015  0.9426  0.6832
 2311TIP3    H2 6940   0.450   0.445   4.077  1.1343 -0.5531  1.1978
 2312TIP3   OH2 6941   1.735   4.343   0.484  0.0389 -0.3311 -0.3932
 2312TIP3    H1 6942   1.681   4.292   0.544  0.6501  0.0057  0.4688
 2312TIP3    H2 6943   1.701   4.322   0.397 -0.6251 -1.1155  0.0409
 2313TIP3   OH2 6944   4.218   3.156   2.890  0.1569 -0.1641 -0.7157
 2313TIP3    H1 6945   4.230   3.133   2.798 -0.9012 -0.3856 -0.8128
 2313TIP3    H2 6946   4.124   3.172   2.898  0.4189  1.0880  0.0493
 2314TIP3   OH2 6947   3.888   4.094   1.310 -0.2441  0.0837 -0.0976
 2314TIP3    H1 6948   3.835   4.091   1.390  1.0221 -0.6053  0.7569
 2314TIP3    H2 6949   3.864   4.176   1.268 -0.7333  0.6036  1.1538
 2315TIP3   OH2 6950   0.641   1.626   4.399  0.4418  0.5621  0.1249
 2315TIP3    H1 6951   0.692   1.707   4.395  0.9736  0.3404  1.6462
 2315TIP3    H2 6952   0.550   1.654   4.390  0.7423  1.0576 -1.7463
 2316TIP3   OH2 6953   3.996   0.889   4.164  0.1563 -0.2732  0.1075
 2316TIP3    H1 6954   3.961   0.853   4.082 -1.8855 -0.4975  1.0038
 2316TIP3    H2 6955   4.084   0.854   4.170  0.2588 -0.4480 -1.8720
 2317TIP3   OH2 6956   5.277   3.136   2.779 -0.2630  0.3982  0.3850
 2317TIP3    H1 6957   5.200   3.156   2.726 -0.4125  0.2673  0.5487
 2317TIP3    H2 6958   5.251   3.059   2.830  0.7344 -1.0043 -1.1459
 2318TIP3   OH2 6959   2.669   3.639   2.568 -0.0881 -0.3905 -0.0789
 2318TIP3    H1 6960   2.638   3.560   2.611  1.9816 -1.2009  0.0433
 2318TIP3    H2 6961   2.609   3.708   2.597 -0.3892 -1.4331  1.9084
 2319TIP3   OH2 6962   1.615   5.686   0.889  0.2806 -0.3047  0.8190
 2319TIP3    H1 6963   1.652   5.772   0.905 -0.8613  0.9308 -2.3162
 2319TIP3    H2 6964   1.677   5.644   0.829 -0.9733 -0.0833 -0.6999
 2320TIP3   OH2 6965   3.652   4.646   4.143 -0.5021  0.6510  0.1671
 2320TIP3    H1 6966   3.728   4.691   4.107 -0.2724  0.3590  0.2847
 2320TIP3    H2 6967   3.586   4.651   4.074  0.7333 -2.1351 -1.3759
 2321TIP3   OH2 6968   2.368   3.519   4.085 -0.2433 -0.1573  0.1257
 2321TIP3    H1 6969   2.371   3.430   4.119  3.2649 -0.3161 -0.2169
 2321TIP3    H2 6970   2.420   3.570   4.147  0.4936  0.9376 -1.3370
 2322TIP3   OH2 6971   0.880   2.780   1.220 -0.0597  0.3078  0.2822
 2322TIP3    H1 6972   0.914   2.820   1.300  0.0340 -0.8035  0.8211
 2322TIP3    H2 6973   0.935   2.815   1.150 -0.1730  1.3298  0.6844
 2323TIP3   OH2 6974   0.501   5.554   1.351 -0.7550  0.3842 -0.3913
 2323TIP3    H1 6975   0.539   5.474   1.313 -2.5927 -0.6572 -0.1493
 2323TIP3    H2 6976   0.487   5.612   1.276  0.9616  0.6794 -0.5229
 2324TIP3   OH2 6977   5.010   0.475   3.924  0.7927  0.2854  0.3420
 2324TIP3    H1 6978   5.063   0.426   3.987  1.1913 -0.9001 -0.8579
 2324TIP3    H2 6979   4.922   0.439   3.934  0.6300  0.8495  0.9553
 2325TIP3   OH2 6980   3.413   4.867   0.645  0.4131 -0.1229 -0.3554
 2325TIP3    H1 6981   3.428   4.801   0.713  1.7392  0.8132  0.3145
 2325TIP3    H2 6982   3.489   4.859   0.587  0.8853  1.1589  0.0524
 2326TIP3   OH2 6983   3.893   4.702   4.061  0.1270  0.3154  0.3386
 2326TIP3    H1 6984   3.914   4.610   4.077 -1.9042 -0.4390 -1.0461
 2326TIP3    H2 6985   3.976   4.740   4.031  1.5562 -0.4710  2.9534
 2327TIP3   OH2 6986   3.116   1.073   3.752  0.4066  0.1165  0.3496
 2327TIP3    H1 6987   3.188   1.015   3.775  1.4224  1.2427  0.0808
 2327TIP3    H2 6988   3.155   1.160   3.748 -0.7374  0.6085 -0.8948
 2328TIP3   OH2 6989   1.749   3.721   4.287  0.2347  0.2155  0.1181
 2328TIP3    H1 6990   1.709   3.723   4.200  2.8625  0.1768 -1.2051
 2328TIP3    H2 6991   1.831   3.768   4.276  0.3039  0.8649  2.8226
 2329TIP3   OH2 6992   2.435   2.750   0.293  0.3210 -0.2637  0.2899
 2329TIP3    H1 6993   2.355   2.708   0.262  0.3317 -1.6905  2.0078
 2329TIP3    H2 6994   2.439   2.729   0.387  3.0970 -0.9685  0.1246
 2330TIP3   OH2 6995   3.991   5.021   0.288  0.0607  0.3174  0.7235
 2330TIP3    H1 6996   4.009   5.056   0.375  2.0040  2.3005 -0.3807
 2330TIP3    H2 6997   3.926   5.080   0.250  1.6407  1.4967 -0.2976
 2331TIP3   OH2 6998   5.739   5.184   1.606  0.6678 -0.0366 -0.3667
 2331TIP3    H1 6999   5.826   5.156   1.634  0.8236  1.0250  0.2749
 2331TIP3    H2 7000   5.733   5.276   1.633 -0.6124 -0.0569 -0.4945
 2332TIP3   OH2 7001   0.928   5.287   3.297  0.2453  0.1540 -0.1792
 2332TIP3    H1 7002   0.887   5.253   3.377 -0.6348 -0.9814 -1.0955
 2332TIP3    H2 7003   0.883   5.370   3.280  0.8959  0.7461  0.8456
 2333TIP3   OH2 7004   2.151   3.897   3.327 -0.5735 -0.7234  0.0614
 2333TIP3    H1 7005   2.203   3.956   3.381  0.1997 -0.0151 -1.4177
 2333TIP3    H2 7006   2.065   3.896   3.369  0.4941 -1.7274  2.4065
 2334TIP3   OH2 7007   1.450   2.037   3.470 -0.2931 -0.1249 -0.5228
 2334TIP3    H1 7008   1.497   2.062   3.390 -0.4134 -0.4182 -0.6887
 2334TIP3    H2 7009   1.449   2.116   3.523 -0.3898  0.1319 -0.9019
 2335TIP3   OH2 7010   1.276   5.041   0.728  0.4177 -0.5591  0.1524
 2335TIP3    H1 7011   1.371   5.050   0.715  0.2191  1.3808 -0.2658
 2335TIP3    H2 7012   1.237   5.092   0.657 -0.9099  0.0247  1.2609
 2336TIP3   OH2 7013   1.285   1.620   4.316 -0.1013 -0.0153 -0.9801
 2336TIP3    H1 7014   1.228   1.659   4.383 -0.0614 -1.4668 -0.0567
 2336TIP3    H2 7015   1.228   1.558   4.271  0.6046 -1.1128 -0.3842
 2337TIP3   OH2 7016   0.383   5.269   4.656  0.1325  0.2081  0.0548
 2337TIP3    H1 7017   0.387   5.186   4.705  0.4265  0.0167 -0.2921
 2337TIP3    H2 7018   0.338   5.246   4.575  0.7028  0.2728 -0.2787
 2338TIP3   OH2 7019   2.423   3.264   1.522 -0.9854  0.1976  0.4527
 2338TIP3    H1 7020   2.450   3.325   1.590 -1.3130  0.3476  0.4523
 2338TIP3    H2 7021   2.436   3.313   1.440  0.4163 -0.3542  0.3233
 2339TIP3   OH2 7022   0.648   3.499   2.908  0.4295  0.2312  0.0114
 2339TIP3    H1 7023   0.622   3.564   2.842  0.2967 -1.9081 -2.2032
 2339TIP3    H2 7024   0.630   3.415   2.866 -1.8748 -1.3578  3.6876
 2340TIP3   OH2 7025   0.069   2.738   3.388 -0.1115  0.6982 -0.3154
 2340TIP3    H1 7026   0.081   2.765   3.297  1.1101  0.9794 -0.0852
 2340TIP3    H2 7027   0.017   2.808   3.427 -1.1524  0.2855 -0.9340
 2341TIP3   OH2 7028   3.721   3.879   4.848  0.2959 -0.2994 -0.6086
 2341TIP3    H1 7029   3.685   3.968   4.858  0.9725 -0.1016  0.2022
 2341TIP3    H2 7030   3.644   3.824   4.833 -0.0976  0.4831 -1.6056
 2342TIP3   OH2 7031   5.455   2.148   4.272  0.3217 -0.0326  0.6066
 2342TIP3    H1 7032   5.438   2.173   4.181  0.0620  1.1654  0.9685
 2342TIP3    H2 7033   5.371   2.163   4.317 -0.2431 -2.6978  0.6590
 2343TIP3   OH2 7034   5.914   4.845   4.949  0.6291  1.0135  0.7385
 2343TIP3    H1 7035   5.892   4.754   4.968 -1.5667  1.2779 -0.2845
 2343TIP3    H2 7036   6.008   4.851   4.968  1.3200 -1.9661 -1.1098
 2344TIP3   OH2 7037   5.963   4.887   4.009 -0.2943  0.0534  0.1925
 2344TIP3    H1 7038   6.026   4.872   4.080  0.2619  1.9638  0.1369
 2344TIP3    H2 7039   5.941   4.798   3.979  0.0026 -0.7765  2.2480
 2345TIP3   OH2 7040   2.221   2.388   1.091  0.5234 -0.5577  0.4150
 2345TIP3    H1 7041   2.153   2.377   1.157 -0.6440 -0.3029 -0.6952
 2345TIP3    H2 7042   2.304   2.374   1.138 -0.1405  1.4621  2.3335
 2346TIP3   OH2 7043   3.873   3.054   2.468  0.2776 -0.3535  0.6308
 2346TIP3    H1 7044   3.864   3.140   2.509  1.4022 -0.3811  0.9595
 2346TIP3    H2 7045   3.790   3.042   2.421  0.3314  1.1788  0.0651
 2347TIP3   OH2 7046   4.795   2.881   4.283 -0.4539 -0.1626 -0.6126
 2347TIP3    H1 7047   4.862   2.818   4.307 -1.2472 -1.1037 -0.7721
 2347TIP3    H2 7048   4.716   2.851   4.330 -0.5259  1.5176  0.4089
 2348TIP3   OH2 7049   3.335   0.901   2.938 -0.0776  0.3861 -0.3697
 2348TIP3    H1 7050   3.363   0.863   2.855  1.8959 -0.5490  0.6633
 2348TIP3    H2 7051   3.357   0.994   2.931  0.2118  0.2829 -0.8450
 2349TIP3   OH2 7052   3.188   1.339   1.050 -0.1468 -0.2552  0.1157
 2349TIP3    H1 7053   3.283   1.337   1.065  0.0974  1.0669 -1.1019
 2349TIP3    H2 7054   3.157   1.255   1.085  1.6297 -1.2312 -0.5156
 2350TIP3   OH2 7055   0.910   3.527   0.931 -0.1376  0.4439  0.1944
 2350TIP3    H1 7056   0.870   3.591   0.872  2.1164  0.9915 -0.8596
 2350TIP3    H2 7057   0.885   3.556   1.019 -0.4217  1.8622 -0.3338
 2351TIP3   OH2 7058   0.685   4.566   1.986 -0.0364  0.1430 -0.1246
 2351TIP3    H1 7059   0.693   4.622   1.909  0.1642  1.0084  0.5125
 2351TIP3    H2 7060   0.771   4.571   2.028 -0.1161 -0.3919  0.1106
 2352TIP3   OH2 7061   3.324   3.880   3.824 -0.0929  0.1670  0.1770
 2352TIP3    H1 7062   3.408   3.920   3.803  0.0072  0.4313  1.0389
 2352TIP3    H2 7063   3.280   3.944   3.880  0.1389 -0.9464  1.7283
 2353TIP3   OH2 7064   3.937   1.950   0.136  0.4987 -0.0846 -0.2501
 2353TIP3    H1 7065   3.866   2.002   0.175  0.3359  0.8485 -1.7211
 2353TIP3    H2 7066   3.924   1.862   0.169 -0.4734  0.3825  0.6580
 2354TIP3   OH2 7067   5.879  -0.013   0.806 -0.5829  0.0909 -0.5701
 2354TIP3    H1 7068   5.861  -0.011   0.900 -0.5679 -1.2455 -0.5171
 2354TIP3    H2 7069   5.943   0.056   0.792 -1.7519  1.3827  0.1260
 2355TIP3   OH2 7070   0.152   0.994   4.906 -0.0740 -0.3679 -0.3360
 2355TIP3    H1 7071   0.244   1.021   4.907 -0.3053  1.1016  4.0020
 2355TIP3    H2 7072   0.105   1.067   4.867  0.4354 -0.3309 -0.8850
 2356TIP3   OH2 7073   5.362   5.840   0.875  0.3096 -0.2266 -0.1278
 2356TIP3    H1 7074   5.301   5.882   0.935  0.7026 -0.4859  0.4670
 2356TIP3    H2 7075   5.449   5.859   0.911  0.5561 -0.3773 -0.6195
 2357TIP3   OH2 7076   3.079   5.561   0.337  0.4831  0.1751 -0.4144
 2357TIP3    H1 7077   2.995   5.519   0.357  0.9062 -0.8263 -0.6485
 2357TIP3    H2 7078   3.120   5.574   0.423 -0.1458  1.2012 -0.2579
 2358TIP3   OH2 7079   5.626   4.072   5.152  0.4267  0.3907 -0.2338
 2358TIP3    H1 7080   5.656   4.153   5.109 -0.5343  0.6289 -0.4706
 2358TIP3    H2 7081   5.659   4.002   5.095  1.0024  0.6188 -0.1916
 2359TIP3   OH2 7082   5.191   5.584   0.553  0.0673  0.2159  0.0739
 2359TIP3    H1 7083   5.198   5.495   0.518  1.0110  0.2370  0.1782
 2359TIP3    H2 7084   5.279   5.620   0.544  0.1989  0.4282  1.9286
 2360TIP3   OH2 7085   3.471   0.960   1.172  0.0925  0.3689  0.0036
 2360TIP3    H1 7086   3.458   1.045   1.131 -0.8887 -0.0752 -0.6630
 2360TIP3    H2 7087   3.385   0.917   1.165  0.8203 -1.0585 -0.5913
 2361TIP3   OH2 7088   2.601   5.228   0.288 -0.4706 -0.1671  0.1522
 2361TIP3    H1 7089   2.608   5.196   0.378 -0.9553  0.2544  0.3527
 2361TIP3    H2 7090   2.511   5.207   0.262 -0.2990 -0.3909 -0.2806
 2362TIP3   OH2 7091   4.408   1.713   3.556 -0.6233 -0.4266  0.1297
 2362TIP3    H1 7092   4.472   1.659   3.601  0.6537  0.1617 -0.9066
 2362TIP3    H2 7093   4.356   1.651   3.505  2.1013 -0.6609 -2.6341
 2363TIP3   OH2 7094   5.231   4.839   0.377 -0.4396  0.0599  0.3201
 2363TIP3    H1 7095   5.154   4.893   0.397 -1.1066 -0.7416 -0.0432
 2363TIP3    H2 7096   5.249   4.791   0.458 -0.8921 -0.4404  0.1283
 2364TIP3   OH2 7097   5.964   1.886   2.000  0.2582 -0.3864 -0.1568
 2364TIP3    H1 7098   5.960   1.967   1.949 -3.1390 -0.1429  0.2480
 2364TIP3    H2 7099   5.975   1.817   1.934  2.1224  0.2895 -0.5974
 2365TIP3   OH2 7100   1.201   2.242   0.819  0.2153  0.6485  0.7565
 2365TIP3    H1 7101   1.126   2.231   0.761  0.3264  1.9924  0.3459
 2365TIP3    H2 7102   1.270   2.188   0.779 -0.1424  0.4132  0.4487
 2366TIP3   OH2 7103   4.607   5.023   1.490 -0.4442 -0.9433  0.1410
 2366TIP3    H1 7104   4.593   5.068   1.573 -1.1256  0.2765 -0.5885
 2366TIP3    H2 7105   4.590   4.931   1.508 -3.0053 -0.4021  0.8457
 2367TIP3   OH2 7106   3.465   4.601   2.449 -0.2832  0.5158  0.1372
 2367TIP3    H1 7107   3.408   4.677   2.462 -1.2239 -0.0847 -0.3509
 2367TIP3    H2 7108   3.466   4.558   2.534  2.3367  2.4076  1.1915
 2368TIP3   OH2 7109   0.055   3.887   4.387  0.1886  0.0029 -0.0930
 2368TIP3    H1 7110   0.004   3.899   4.467 -0.4057 -0.0564 -0.4593
 2368TIP3    H2 7111  -0.010   3.873   4.318  0.6580  0.7507 -0.7119
 2369TIP3   OH2 7112   3.397   1.414   0.033 -0.3970  0.5535  0.2899
 2369TIP3    H1 7113   3.342   1.479   0.076 -0.2790  2.0728 -1.7322
 2369TIP3    H2 7114   3.485   1.431   0.066 -0.7118 -0.2743  1.6548
 2370TIP3   OH2 7115   2.446   3.777   1.077 -0.2666 -0.0460  0.3752
 2370TIP3    H1 7116   2.366   3.798   1.125 -0.8365 -2.8372  0.8273
 2370TIP3    H2 7117   2.473   3.691   1.111  1.2486 -0.5550 -1.8682
 2371TIP3   OH2 7118   1.055   2.211   4.963  0.4289 -0.3990  0.4049
 2371TIP3    H1 7119   1.126   2.170   4.914  2.3355  1.7992  1.1895
 2371TIP3    H2 7120   1.011   2.268   4.899  0.7195 -0.1475  0.4302
 2372TIP3   OH2 7121   1.987   3.265   0.682  0.4624  0.1783  0.6126
 2372TIP3    H1 7122   1.919   3.241   0.618  0.2485  1.4507  0.3238
 2372TIP3    H2 7123   1.956   3.348   0.718  0.0263 -1.0370  3.2144
 2373TIP3   OH2 7124   4.982   3.111   0.036  0.5354  0.7760  0.7127
 2373TIP3    H1 7125   4.968   3.020   0.012  1.9896  0.1340  2.1483
 2373TIP3    H2 7126   4.927   3.124   0.114 -0.4489  1.4533 -0.0622
 2374TIP3   OH2 7127   3.240   5.194   3.410 -0.4612 -0.1842  0.7335
 2374TIP3    H1 7128   3.199   5.172   3.494 -1.6351  1.4846  0.6312
 2374TIP3    H2 7129   3.329   5.219   3.433 -0.5522 -0.4211  1.3874
 2375TIP3   OH2 7130   1.151   1.056   3.671 -0.1315 -0.0469  0.2442
 2375TIP3    H1 7131   1.094   1.077   3.597  0.7654  1.2441 -0.1175
 2375TIP3    H2 7132   1.156   0.960   3.672  0.0860 -0.0735 -1.5523
 2376TIP3   OH2 7133   4.076   3.865   4.719 -0.0891  0.4831  0.7719
 2376TIP3    H1 7134   4.042   3.955   4.718 -0.8107  0.2812 -1.9007
 2376TIP3    H2 7135   4.139   3.863   4.647 -1.0673 -1.4430 -0.1004
 2377TIP3   OH2 7136   5.945   0.437   3.628  0.1309  1.0077  0.2620
 2377TIP3    H1 7137   5.852   0.441   3.648 -0.5507  0.3176 -2.4158
 2377TIP3    H2 7138   5.955   0.358   3.574  2.4069  0.6766  1.0411
 2378TIP3   OH2 7139   0.615   0.106   2.949  0.2774  0.4336  0.7186
 2378TIP3    H1 7140   0.554   0.179   2.961 -0.5733  0.4009 -2.5651
 2378TIP3    H2 7141   0.584   0.061   2.871  1.8807 -2.3891  1.5865
 2379TIP3   OH2 7142   1.932   0.089   2.902  0.1932  0.1826  0.0424
 2379TIP3    H1 7143   1.947   0.028   2.974 -0.0249  0.2067  0.1073
 2379TIP3    H2 7144   2.000   0.067   2.838 -1.0897 -1.4517 -0.8211
 2380TIP3   OH2 7145   6.008   4.575   4.019  0.1709  0.2676  0.1719
 2380TIP3    H1 7146   6.102   4.584   4.007  0.6769 -3.5585 -0.1604
 2380TIP3    H2 7147   5.992   4.599   4.110  1.5428  0.5482  0.3568
 2381TIP3   OH2 7148   3.316   5.333   0.806 -0.9067  0.0975 -0.3810
 2381TIP3    H1 7149   3.374   5.281   0.750  0.0353  1.3661 -0.6268
 2381TIP3    H2 7150   3.370   5.407   0.834 -2.4019  1.3050 -0.5986
 2382TIP3   OH2 7151   1.792   5.651   1.816 -0.6805  0.4417  0.5808
 2382TIP3    H1 7152   1.702   5.620   1.805 -0.0954 -0.6028 -2.1809
 2382TIP3    H2 7153   1.827   5.600   1.889 -1.0372 -2.6052 -1.1942
 2383TIP3   OH2 7154   3.199   2.268   3.713 -0.1451 -0.5810 -0.0074
 2383TIP3    H1 7155   3.232   2.178   3.710  0.9982 -0.1609 -0.7739
 2383TIP3    H2 7156   3.108   2.259   3.742 -0.1356 -1.9994 -0.3355
 2384TIP3   OH2 7157   4.956   3.169   3.928  0.1540  0.3219 -0.2442
 2384TIP3    H1 7158   4.995   3.111   3.864 -0.0773  0.3731 -0.4317
 2384TIP3    H2 7159   4.891   3.115   3.973  0.4093  0.2476  0.0402
 2385TIP3   OH2 7160   3.217   3.887   5.058 -0.1107  0.0397  0.1007
 2385TIP3    H1 7161   3.186   3.832   4.986  0.8681 -2.7660  1.6844
 2385TIP3    H2 7162   3.149   3.879   5.125  1.1314 -1.2620  1.2618
 2386TIP3   OH2 7163   2.302   2.866   1.829  0.5484 -0.0292 -0.0903
 2386TIP3    H1 7164   2.375   2.911   1.785 -0.1020  0.5896 -0.5558
 2386TIP3    H2 7165   2.241   2.845   1.759 -0.3335  0.6441  0.4535
 2387TIP3   OH2 7166   6.155   0.246   2.574  0.3726  0.2175 -0.3490
 2387TIP3    H1 7167   6.195   0.160   2.586  0.6786  0.0595 -2.1615
 2387TIP3    H2 7168   6.073   0.228   2.528 -0.2624  0.8017  0.5195
 2388TIP3   OH2 7169   4.381   1.889   0.114  0.0955 -0.1721  0.0918
 2388TIP3    H1 7170   4.361   1.796   0.119  0.5063 -0.2618  0.0338
 2388TIP3    H2 7171   4.299   1.932   0.139  0.0042 -0.5476  0.4427
 2389TIP3   OH2 7172   4.915   3.294   0.670  0.0987  0.1821  0.0361
 2389TIP3    H1 7173   4.919   3.378   0.717 -1.6390  0.2524  0.1135
 2389TIP3    H2 7174   4.988   3.243   0.706 -0.0246  0.9383  1.4238
 2390TIP3   OH2 7175   3.988   5.932   2.388  0.2657 -0.1132  0.6776
 2390TIP3    H1 7176   3.917   5.992   2.365  0.9637  1.0292  1.3990
 2390TIP3    H2 7177   4.006   5.950   2.480  1.9631  0.1262  0.3254
 2391TIP3   OH2 7178   0.844   4.714   2.958  0.1245 -0.0803 -0.3525
 2391TIP3    H1 7179   0.923   4.744   3.002  0.2439  0.4483 -0.9157
 2391TIP3    H2 7180   0.790   4.676   3.028  0.5701  0.1916  0.1431
 2392TIP3   OH2 7181   3.703   2.741   4.229 -0.0876  0.3317  0.2784
 2392TIP3    H1 7182   3.623   2.711   4.270 -0.1176 -0.7367 -0.5115
 2392TIP3    H2 7183   3.675   2.778   4.145  0.1410  0.8961  0.4478
 2393TIP3   OH2 7184   5.987  -0.005   4.977 -0.0407  0.0174  0.2594
 2393TIP3    H1 7185   5.953   0.084   4.973  0.0860  0.0114 -1.4213
 2393TIP3    H2 7186   5.921  -0.054   5.027 -1.0748  0.6226 -0.4921
 2394TIP3   OH2 7187   3.180   0.714   1.313  0.4746 -0.5159 -0.0744
 2394TIP3    H1 7188   3.126   0.635   1.316  0.8057 -0.7685 -0.5948
 2394TIP3    H2 7189   3.261   0.686   1.272  0.2375  0.2883 -1.1510
 2395TIP3   OH2 7190   0.021   4.120   5.072  0.0809 -0.4816  0.3262
 2395TIP3    H1 7191   0.040   4.180   5.144  0.6400  0.1825 -0.3677
 2395TIP3    H2 7192   0.081   4.145   5.003 -0.1842 -1.3693 -0.2458
 2396TIP3   OH2 7193   0.289   0.030   2.558 -0.0317 -0.1566 -0.7127
 2396TIP3    H1 7194   0.360   0.036   2.494 -0.7616  0.5229 -1.4762
 2396TIP3    H2 7195   0.230   0.102   2.536  0.1671  0.6888  1.3236
 2397TIP3   OH2 7196   5.928   2.463   0.299  0.0839 -0.0973 -0.3222
 2397TIP3    H1 7197   5.933   2.474   0.394  0.7623  1.5129 -0.5176
 2397TIP3    H2 7198   5.853   2.516   0.272 -1.2023 -1.9347 -0.5297
 2398TIP3   OH2 7199   5.403   2.678   2.747  0.3653  0.3851 -0.1312
 2398TIP3    H1 7200   5.399   2.762   2.702 -0.8473  1.2726  1.4844
 2398TIP3    H2 7201   5.442   2.699   2.832  1.9743 -1.0913 -0.4650
 2399TIP3   OH2 7202   5.762   5.623   1.614  0.0098 -0.5773 -0.1721
 2399TIP3    H1 7203   5.829   5.689   1.634  0.3230 -0.9735  0.0831
 2399TIP3    H2 7204   5.784   5.593   1.525 -1.3210  1.1050 -1.1341
 2400TIP3   OH2 7205   1.981   1.409   5.000 -0.0001  0.4163  0.3032
 2400TIP3    H1 7206   2.033   1.389   5.078  1.1651  1.1807 -0.2583
 2400TIP3    H2 7207   1.903   1.452   5.033  0.3112  0.3977  1.0710
 2401TIP3   OH2 7208   4.160   3.745   0.703 -0.0124 -0.8005 -0.1577
 2401TIP3    H1 7209   4.151   3.741   0.608  2.0253  1.8094 -0.5972
 2401TIP3    H2 7210   4.239   3.694   0.722  1.0602  0.7256 -0.2799
 2402TIP3   OH2 7211   1.350   2.378   2.790  0.0999 -0.5749 -0.1274
 2402TIP3    H1 7212   1.337   2.333   2.707 -0.0450 -1.7353  0.4948
 2402TIP3    H2 7213   1.445   2.389   2.797  0.0157  1.6318 -1.4761
 2403TIP3   OH2 7214   2.015   0.346   0.980  0.2042 -0.9232 -0.0046
 2403TIP3    H1 7215   1.964   0.373   1.056 -0.1871 -2.0322  0.1494
 2403TIP3    H2 7216   2.084   0.411   0.973 -0.8364  0.2403  0.1801
 2404TIP3   OH2 7217   5.410   1.213   3.137  0.3522  0.4405  0.0360
 2404TIP3    H1 7218   5.481   1.181   3.082  0.8524  0.6866  0.5351
 2404TIP3    H2 7219   5.331   1.202   3.083  0.7147 -0.1669 -0.3799
 2405TIP3   OH2 7220   3.752   5.894   3.493  0.9857 -0.5447  0.2876
 2405TIP3    H1 7221   3.732   5.910   3.586  0.1882 -0.5307  0.1255
 2405TIP3    H2 7222   3.688   5.828   3.467  0.1366  0.6218 -0.6678
 2406TIP3   OH2 7223   2.346   3.974   4.168  0.1529  0.3678 -0.5337
 2406TIP3    H1 7224   2.304   3.888   4.169 -1.9755  1.3536 -0.8943
 2406TIP3    H2 7225   2.430   3.959   4.125  0.6444 -1.8462  0.9976
 2407TIP3   OH2 7226   4.099   1.511   0.615 -0.4932  0.5054 -0.1139
 2407TIP3    H1 7227   4.081   1.477   0.528 -1.6259 -1.3490  0.7803
 2407TIP3    H2 7228   4.013   1.531   0.652 -0.0181  1.5542  0.5074
 2408TIP3   OH2 7229   1.194   0.230   3.756  0.1347  0.4200 -0.4167
 2408TIP3    H1 7230   1.183   0.186   3.840 -0.6706  0.8476 -0.2844
 2408TIP3    H2 7231   1.133   0.184   3.698  0.5275  0.2694 -0.7157
 2409TIP3   OH2 7232   4.390   3.625   0.787  0.3421 -0.0955 -0.7922
 2409TIP3    H1 7233   4.403   3.541   0.743 -1.2703 -0.4727 -0.6324
 2409TIP3    H2 7234   4.445   3.620   0.865  2.0456 -0.0347 -1.9495
 2410TIP3   OH2 7235   3.255   3.299   3.193 -0.3291  0.2196  0.0967
 2410TIP3    H1 7236   3.276   3.354   3.268  0.4421  0.5899 -0.3736
 2410TIP3    H2 7237   3.171   3.258   3.215 -0.9910  1.6861  0.3910
 2411TIP3   OH2 7238   5.454   5.005   2.706 -0.0803  0.1215  0.0825
 2411TIP3    H1 7239   5.520   5.026   2.772 -1.9264  0.8238  1.8281
 2411TIP3    H2 7240   5.438   5.087   2.660  3.3012 -0.9477 -3.4746
 2412TIP3   OH2 7241   4.406   3.215   3.799  0.0678 -0.3150  0.4017
 2412TIP3    H1 7242   4.422   3.268   3.876 -1.1691  0.0657  0.4072
 2412TIP3    H2 7243   4.421   3.274   3.725  0.9672 -0.6033  0.3301
 2413TIP3   OH2 7244   3.054   5.763   3.156  0.5634  0.1951 -0.2068
 2413TIP3    H1 7245   2.983   5.730   3.210  1.7278 -2.4936 -0.1644
 2413TIP3    H2 7246   3.011   5.807   3.083 -1.1909 -1.7276 -0.4025
 2414TIP3   OH2 7247   2.135   5.911   1.532 -0.1439  0.1391 -0.0509
 2414TIP3    H1 7248   2.067   5.957   1.580  0.3135 -0.0890  0.8348
 2414TIP3    H2 7249   2.171   5.848   1.595  0.5552 -0.0725 -0.6463
 2415TIP3   OH2 7250   4.788   0.527   1.135  0.4145 -0.0746 -0.3166
 2415TIP3    H1 7251   4.719   0.470   1.170  2.2286 -1.2070  1.5859
 2415TIP3    H2 7252   4.787   0.603   1.193  1.3818 -0.5399  0.3274
 2416TIP3   OH2 7253   0.546   1.762   4.017 -0.4675  0.1131  0.6326
 2416TIP3    H1 7254   0.513   1.846   4.047 -0.2714  0.3642  0.1704
 2416TIP3    H2 7255   0.640   1.766   4.034 -0.8834 -1.6118  4.3665
 2417TIP3   OH2 7256   2.988   0.538   4.394 -0.0556  0.0286  0.2468
 2417TIP3    H1 7257   3.056   0.602   4.376 -0.9839  0.9722 -0.0325
 2417TIP3    H2 7258   2.955   0.513   4.307 -1.2542  0.9243  0.4219
 2418TIP3   OH2 7259   0.172   2.156   2.863  0.7195 -0.3728 -0.2177
 2418TIP3    H1 7260   0.156   2.177   2.771  1.5342 -1.0405 -0.5187
 2418TIP3    H2 7261   0.263   2.182   2.878  0.5800 -0.2333  0.4119
 2419TIP3   OH2 7262   2.838   2.509   5.046  0.1811 -0.0712  0.2655
 2419TIP3    H1 7263   2.841   2.542   5.136 -0.4111 -2.1333  1.0945
 2419TIP3    H2 7264   2.746   2.514   5.022  0.5083  1.7534 -0.7839
 2420TIP3   OH2 7265   4.153   2.506   1.133  0.5403 -0.2844  0.4507
 2420TIP3    H1 7266   4.081   2.492   1.195 -0.1003 -0.4764 -0.3231
 2420TIP3    H2 7267   4.137   2.594   1.098  1.7539  0.4411  1.6488
 2421TIP3   OH2 7268   3.625   4.279   1.030 -0.1154 -0.0915 -0.1169
 2421TIP3    H1 7269   3.588   4.354   1.077  0.5907  0.2905 -0.1587
 2421TIP3    H2 7270   3.643   4.313   0.942  0.4922 -0.2110 -0.0458
 2422TIP3   OH2 7271   4.752   5.745   2.332 -0.2035 -0.5381  0.6020
 2422TIP3    H1 7272   4.803   5.671   2.299 -0.6404 -0.4582 -0.2937
 2422TIP3    H2 7273   4.663   5.727   2.301 -0.7361 -0.6959  2.1587
 2423TIP3   OH2 7274   5.726   2.108   4.009 -0.1635  0.3087 -0.1909
 2423TIP3    H1 7275   5.709   2.199   3.982 -0.8204  0.4201  0.5809
 2423TIP3    H2 7276   5.775   2.071   3.935  2.2608  1.9577  0.4566
 2424TIP3   OH2 7277   2.924   0.940   0.307 -0.1108  0.2836  0.1688
 2424TIP3    H1 7278   2.899   0.852   0.279  0.2377  0.5568 -1.0145
 2424TIP3    H2 7279   3.004   0.927   0.358 -0.0177 -0.0798 -0.0643
 2425TIP3   OH2 7280   0.118   2.148   0.371 -0.0848 -1.0737 -0.5334
 2425TIP3    H1 7281   0.194   2.095   0.394 -0.0487 -1.1597 -0.8347
 2425TIP3    H2 7282   0.070   2.158   0.452 -0.5231 -2.2635 -0.6226
 2426TIP3   OH2 7283   0.510   4.917   0.865 -0.4797 -0.4539  0.2428
 2426TIP3    H1 7284   0.438   4.857   0.882 -0.3471 -0.3995  0.9935
 2426TIP3    H2 7285   0.576   4.896   0.931  0.1938 -0.4894 -0.4211
 2427TIP3   OH2 7286   6.204   4.542   4.417 -0.0831  0.0221  0.4384
 2427TIP3    H1 7287   6.245   4.589   4.490 -0.3779 -0.0323  0.6389
 2427TIP3    H2 7288   6.266   4.552   4.344 -1.3873  3.2748 -0.4220
 2428TIP3   OH2 7289   5.213   3.299   4.160  0.9956 -0.2612 -0.2559
 2428TIP3    H1 7290   5.200   3.336   4.247 -1.7684 -0.0116 -0.6626
 2428TIP3    H2 7291   5.252   3.213   4.176  0.5974 -0.1968  1.2385
 2429TIP3   OH2 7292   1.095   4.665   1.052  0.5935  0.2352 -0.7860
 2429TIP3    H1 7293   1.102   4.596   1.117  0.3089 -0.5617 -1.5783
 2429TIP3    H2 7294   1.101   4.620   0.968  0.7108  1.2076 -1.3217
 2430TIP3   OH2 7295   0.619   1.468   3.773  0.2950  0.2420 -0.1083
 2430TIP3    H1 7296   0.577   1.523   3.706 -0.5057  0.8851  0.8837
 2430TIP3    H2 7297   0.556   1.397   3.788  0.0595  0.5802  0.5655
 2431TIP3   OH2 7298   6.050   0.653   3.764  0.0502  0.6384 -0.1859
 2431TIP3    H1 7299   6.036   0.568   3.724  1.1899  0.6568 -0.6634
 2431TIP3    H2 7300   5.967   0.699   3.753  0.4694  0.8531 -3.0633
 2432TIP3   OH2 7301   5.666   0.957   4.514  0.3423 -1.0242 -0.5069
 2432TIP3    H1 7302   5.575   0.935   4.498 -0.1349 -1.6290  2.4888
 2432TIP3    H2 7303   5.665   1.051   4.531 -0.1126 -1.3671  1.5475
 2433TIP3   OH2 7304   5.921   5.012   3.155 -0.3490  0.0845 -0.1648
 2433TIP3    H1 7305   5.958   4.972   3.077  0.8107  0.8370 -0.0238
 2433TIP3    H2 7306   5.953   4.959   3.228  1.6494  1.5083  0.0681
 2434TIP3   OH2 7307   6.253   2.188   0.068 -0.8108 -0.9441  0.3612
 2434TIP3    H1 7308   6.230   2.280   0.085 -1.7569 -0.8835 -1.1343
 2434TIP3    H2 7309   6.170   2.141   0.071 -0.5657 -1.4652 -0.6280
 2435TIP3   OH2 7310   5.903   0.830   0.171 -0.0199  0.3664 -0.0421
 2435TIP3    H1 7311   5.860   0.745   0.158  0.3082  0.0790  0.6960
 2435TIP3    H2 7312   5.986   0.808   0.214  0.5593  0.9718 -0.8238
 2436TIP3   OH2 7313   0.626   3.231   1.308  0.4537 -0.2899  0.4738
 2436TIP3    H1 7314   0.634   3.288   1.232 -0.1270  0.1269  0.7189
 2436TIP3    H2 7315   0.697   3.168   1.298  0.3516 -0.2721 -0.4320
 2437TIP3   OH2 7316   1.888   1.691   3.378 -0.7724 -0.3579 -0.7285
 2437TIP3    H1 7317   1.835   1.685   3.457 -1.7003 -0.0825 -1.3141
 2437TIP3    H2 7318   1.840   1.752   3.321  0.9221  1.0958 -0.6944
 2438TIP3   OH2 7319   0.691   5.387   3.137 -0.0233 -0.2195 -0.0567
 2438TIP3    H1 7320   0.757   5.333   3.094  0.1286 -0.2645  0.2358
 2438TIP3    H2 7321   0.609   5.339   3.126  0.2125 -0.8168  0.7509
 2439TIP3   OH2 7322   4.115   0.602   1.627 -0.4079  0.1975  0.4680
 2439TIP3    H1 7323   4.098   0.640   1.713 -1.5042 -3.2828  1.9948
 2439TIP3    H2 7324   4.029   0.599   1.585 -1.0859 -3.1840  1.7332
 2440TIP3   OH2 7325   2.630   2.055   3.647 -0.0984  0.4214  1.1035
 2440TIP3    H1 7326   2.543   2.017   3.636  0.2729 -0.3966  0.8545
 2440TIP3    H2 7327   2.680   1.988   3.693  0.9156  0.0627 -0.4145
 2441TIP3   OH2 7328   4.348   0.530   3.882  0.4693  0.7874 -0.1257
 2441TIP3    H1 7329   4.399   0.499   3.956  0.5592  1.8578  0.2828
 2441TIP3    H2 7330   4.320   0.451   3.837  0.0026  0.0898  1.3282
 2442TIP3   OH2 7331   6.043   1.634   4.145  0.2051 -0.5788  0.3144
 2442TIP3    H1 7332   6.091   1.608   4.223  0.3031 -0.1760  0.3869
 2442TIP3    H2 7333   6.109   1.634   4.075  0.5560  1.0567  0.6242
 2443TIP3   OH2 7334   5.754   4.781   4.551  0.6599 -0.2732  0.0406
 2443TIP3    H1 7335   5.803   4.700   4.538  1.7028  0.2709  0.4109
 2443TIP3    H2 7336   5.819   4.850   4.538 -0.6347  0.6056 -2.2394
 2444TIP3   OH2 7337   4.771   3.061   1.812  0.6138 -0.0734 -0.2650
 2444TIP3    H1 7338   4.731   3.087   1.729 -0.6250 -0.8192  0.0696
 2444TIP3    H2 7339   4.754   2.967   1.818 -2.8095  0.4984  2.5719
 2445TIP3   OH2 7340   3.939   0.974   1.645  0.4812  0.4299 -0.4461
 2445TIP3    H1 7341   3.886   0.903   1.608 -0.3873  1.7658 -1.9345
 2445TIP3    H2 7342   3.876   1.045   1.659  1.1017  0.5669  2.1276
 2446TIP3   OH2 7343   0.959   4.568   4.095 -0.1613 -0.5905  0.3776
 2446TIP3    H1 7344   0.905   4.611   4.161  0.2231 -0.3425  0.5349
 2446TIP3    H2 7345   0.955   4.625   4.019 -0.8048 -1.0015  0.0990
 2447TIP3   OH2 7346   1.709   0.804   4.174  0.3413  0.0702  0.4234
 2447TIP3    H1 7347   1.637   0.866   4.187 -0.5897 -0.7230 -0.6844
 2447TIP3    H2 7348   1.741   0.785   4.262 -0.1546  1.1852  0.8640
 2448TIP3   OH2 7349   1.500   2.415   0.318  0.2358 -0.0605  0.1718
 2448TIP3    H1 7350   1.557   2.379   0.386  0.5511  1.6182  0.8612
 2448TIP3    H2 7351   1.535   2.382   0.236 -0.9776 -3.2758  0.8267
 2449TIP3   OH2 7352   5.009   2.101   1.561 -0.0330 -0.4419 -0.2176
 2449TIP3    H1 7353   5.063   2.159   1.507  0.3908  0.5412  1.1730
 2449TIP3    H2 7354   4.925   2.096   1.516  0.8297 -1.0352 -1.8169
 2450TIP3   OH2 7355   6.329   5.347   3.966  0.2738  0.8587 -0.3996
 2450TIP3    H1 7356   6.234   5.351   3.974  0.2585 -1.1731  1.6734
 2450TIP3    H2 7357   6.361   5.393   4.043  0.8883 -0.1187 -0.0520
 2451TIP3   OH2 7358   2.014   1.782   1.587  0.3844  0.2101 -0.1053
 2451TIP3    H1 7359   2.024   1.757   1.679 -0.5754  1.3621  0.3440
 2451TIP3    H2 7360   2.048   1.872   1.582  1.1249 -0.1061 -1.0440
 2452TIP3   OH2 7361   1.307   0.736   2.568 -0.0688 -0.4989 -0.2774
 2452TIP3    H1 7362   1.252   0.758   2.644  1.4480  1.2616  0.3851
 2452TIP3    H2 7363   1.371   0.673   2.602  0.1088 -0.3254 -0.2853
 2453TIP3   OH2 7364   3.055   4.105   2.604  0.5197  0.1926 -0.4265
 2453TIP3    H1 7365   3.006   4.163   2.545 -1.7177 -0.0890  1.0324
 2453TIP3    H2 7366   3.003   4.103   2.684 -0.3165 -4.7456 -0.7544
 2454TIP3   OH2 7367   4.337   0.512   2.925  0.0871 -0.0805  0.0155
 2454TIP3    H1 7368   4.356   0.422   2.952  0.7657  0.6014  1.9309
 2454TIP3    H2 7369   4.418   0.541   2.883  0.3451  0.0612  0.6013
 2455TIP3   OH2 7370   1.915   5.830   1.683 -0.8335 -0.7058  0.1900
 2455TIP3    H1 7371   1.896   5.785   1.602  1.0446 -1.7100  0.2500
 2455TIP3    H2 7372   1.891   5.768   1.752  2.2901 -2.0230  0.2667
 2456TIP3   OH2 7373   1.505   0.957   0.183 -0.7876 -0.7723  0.1418
 2456TIP3    H1 7374   1.433   0.999   0.136 -0.3997 -2.0111 -1.6378
 2456TIP3    H2 7375   1.468   0.875   0.217 -0.2290 -1.4423 -0.8323
 2457TIP3   OH2 7376   1.605   2.310   0.067  0.1801 -0.3829 -1.0126
 2457TIP3    H1 7377   1.672   2.280   0.128 -0.3155 -1.5822 -1.0288
 2457TIP3    H2 7378   1.567   2.229   0.031 -2.6588  0.1483  0.4941
 2458TIP3   OH2 7379   5.127   5.953   3.886  0.2920 -0.0848  0.0820
 2458TIP3    H1 7380   5.149   5.977   3.796  1.0876  2.7508  0.9254
 2458TIP3    H2 7381   5.211   5.952   3.932 -0.1796 -0.7634  0.9758
 2459TIP3   OH2 7382   1.738   1.089   0.285 -0.9572  0.3126  0.6753
 2459TIP3    H1 7383   1.688   1.034   0.225  0.6069 -0.9580  0.4880
 2459TIP3    H2 7384   1.677   1.159   0.309 -1.8332  0.5682 -1.9383
 2460TIP3   OH2 7385   3.155   5.623   4.595  0.2273 -0.5711  0.3313
 2460TIP3    H1 7386   3.107   5.547   4.628 -2.2930 -0.2655 -2.2467
 2460TIP3    H2 7387   3.093   5.695   4.601  1.9278  0.9001  0.9368
 2461TIP3   OH2 7388   0.653   5.033   2.960  0.7984 -0.9060 -0.2594
 2461TIP3    H1 7389   0.587   5.099   2.940 -0.0477 -0.7267  2.6780
 2461TIP3    H2 7390   0.666   4.985   2.878 -2.2044 -0.2652 -1.1995
 2462TIP3   OH2 7391   6.273   1.533   3.592 -0.9145 -0.3987 -0.0677
 2462TIP3    H1 7392   6.311   1.580   3.518 -0.7555  0.2864  0.4368
 2462TIP3    H2 7393   6.183   1.565   3.597 -1.0673 -0.7930 -0.2481
 2463TIP3   OH2 7394   5.895   3.212   1.106  0.0199  0.0010 -0.3257
 2463TIP3    H1 7395   5.807   3.246   1.123  0.2389  0.1181  0.6592
 2463TIP3    H2 7396   5.911   3.230   1.014 -0.4283  1.2821 -0.1684
 2464TIP3   OH2 7397   0.299   4.559   2.851 -0.1919  0.1446 -0.0014
 2464TIP3    H1 7398   0.247   4.525   2.924  0.4161 -1.0853 -0.1169
 2464TIP3    H2 7399   0.388   4.562   2.885 -0.0697  0.6264 -0.3508
 2465TIP3   OH2 7400   0.094   1.054   2.310 -0.4650  0.0840  0.7456
 2465TIP3    H1 7401  -0.001   1.062   2.300 -0.1974  1.1687 -1.3231
 2465TIP3    H2 7402   0.115   1.116   2.380 -1.0344  1.6088 -0.3830
 2466TIP3   OH2 7403   1.763   2.018   3.991  0.0415  0.2091 -0.1621
 2466TIP3    H1 7404   1.761   2.062   3.906 -0.5298  0.5443  0.0156
 2466TIP3    H2 7405   1.842   1.964   3.989  0.6537  1.0997 -0.4614
 2467TIP3   OH2 7406   6.360   5.205   2.200  0.3494  0.1454  0.0280
 2467TIP3    H1 7407   6.284   5.226   2.146 -0.6056  4.1821  2.4346
 2467TIP3    H2 7408   6.347   5.115   2.227 -2.3821 -0.0107 -1.4783
 2468TIP3   OH2 7409   3.083   0.382   4.946  0.4557 -0.0442 -0.3305
 2468TIP3    H1 7410   3.170   0.343   4.950 -0.5998 -2.5646  3.5141
 2468TIP3    H2 7411   3.041   0.340   4.871  0.6540 -3.7345  1.4095
 2469TIP3   OH2 7412   6.164   1.336   0.808  0.0922  0.6867  0.2107
 2469TIP3    H1 7413   6.229   1.355   0.740 -2.1197  0.1173 -2.2136
 2469TIP3    H2 7414   6.164   1.241   0.815  0.5005  0.7503  1.2794
 2470TIP3   OH2 7415   2.715   3.299   2.275 -0.1141 -0.1047 -0.1294
 2470TIP3    H1 7416   2.781   3.230   2.266 -1.5594 -1.5316 -0.1840
 2470TIP3    H2 7417   2.752   3.373   2.228  0.6317 -1.4925 -1.8500
 2471TIP3   OH2 7418   5.953   2.604   0.555  0.7662 -0.3024  0.4601
 2471TIP3    H1 7419   6.039   2.647   0.560  0.1319  1.0889  0.0518
 2471TIP3    H2 7420   5.891   2.673   0.578 -0.2674 -1.1939  0.4034
 2472TIP3   OH2 7421   1.186   3.196   3.238  0.1626  0.7508 -0.5514
 2472TIP3    H1 7422   1.127   3.171   3.167  0.7528 -0.7066 -0.5637
 2472TIP3    H2 7423   1.268   3.152   3.217  0.0549 -0.5677  1.5640
 2473TIP3   OH2 7424   5.621   3.529   4.988  0.2716 -0.0787  0.2262
 2473TIP3    H1 7425   5.583   3.601   5.038 -0.3827  0.1280 -0.5393
 2473TIP3    H2 7426   5.668   3.572   4.917 -1.1247 -0.4021 -0.9343
 2474TIP3   OH2 7427   4.959   0.367   1.495  0.0490  0.5936  0.3709
 2474TIP3    H1 7428   4.985   0.412   1.575  0.2219  0.4855  0.3763
 2474TIP3    H2 7429   4.911   0.433   1.444 -0.3115  0.5796  0.6904
 2475TIP3   OH2 7430   1.631   1.743   3.833 -0.1699  0.6724 -0.0437
 2475TIP3    H1 7431   1.618   1.715   3.923  0.3249  0.6148  0.0122
 2475TIP3    H2 7432   1.574   1.819   3.823 -0.4055  0.5335  0.2455
 2476TIP3   OH2 7433   2.455   2.427   3.328 -0.0225 -0.1064  0.3597
 2476TIP3    H1 7434   2.472   2.343   3.370 -1.4735 -0.3144  0.5740
 2476TIP3    H2 7435   2.531   2.442   3.272  0.1613 -1.6498  0.1701
 2477TIP3   OH2 7436   4.234   1.217   1.824 -0.5525  0.2308 -0.5645
 2477TIP3    H1 7437   4.313   1.163   1.830 -1.1655 -0.5535  1.6755
 2477TIP3    H2 7438   4.264   1.305   1.847 -0.4007 -0.2016  1.0496
 2478TIP3   OH2 7439   3.886   2.974   0.464 -0.0949  0.0424 -0.1232
 2478TIP3    H1 7440   3.932   2.964   0.547  0.4230 -0.8017 -0.4990
 2478TIP3    H2 7441   3.817   3.038   0.482 -0.0362 -0.1878  0.9733
 2479TIP3   OH2 7442   1.477  -0.017   1.720  0.2084  0.2630 -0.0242
 2479TIP3    H1 7443   1.426   0.016   1.647  2.2316  0.3714 -1.4960
 2479TIP3    H2 7444   1.480   0.055   1.783 -0.7291  0.5268 -0.2752
 2480TIP3   OH2 7445   0.484   5.506   4.266 -0.0182  0.4954 -0.2515
 2480TIP3    H1 7446   0.519   5.441   4.205  0.3798  0.5925 -0.1282
 2480TIP3    H2 7447   0.524   5.484   4.350 -0.6621  0.2842  0.0037
 2481TIP3   OH2 7448   0.251   3.106   4.479 -0.0850  0.1285  0.1252
 2481TIP3    H1 7449   0.186   3.143   4.540  0.1874 -0.1226  0.5651
 2481TIP3    H2 7450   0.319   3.070   4.535 -0.2423 -0.8670 -0.3059
 2482TIP3   OH2 7451   2.673   4.217   2.347  0.4190  0.1693  0.2619
 2482TIP3    H1 7452   2.587   4.185   2.377  0.8107  0.6775  2.0625
 2482TIP3    H2 7453   2.662   4.312   2.344  0.4755  0.1453 -1.0412
 2483TIP3   OH2 7454   0.771   1.509   2.753 -0.0035  0.1647  0.8075
 2483TIP3    H1 7455   0.752   1.430   2.803 -1.9440 -0.1059 -0.2401
 2483TIP3    H2 7456   0.701   1.570   2.777 -1.2235 -0.0942 -1.7326
 2484TIP3   OH2 7457   4.649   5.766   1.144 -0.1677  0.4929 -0.5510
 2484TIP3    H1 7458   4.719   5.736   1.085  2.1098  1.6367  1.3638
 2484TIP3    H2 7459   4.608   5.839   1.099  1.0055  0.8613 -1.0511
 2485TIP3   OH2 7460   6.302   1.426   2.327 -0.1093  0.3921 -0.3032
 2485TIP3    H1 7461   6.365   1.365   2.365 -1.5044  0.4264  2.2327
 2485TIP3    H2 7462   6.216   1.386   2.344 -1.0214  2.6752  0.8167
 2486TIP3   OH2 7463   5.980   3.979   3.316  0.3556 -0.0178  0.2134
 2486TIP3    H1 7464   6.066   3.963   3.356  2.3491  1.1092 -3.2623
 2486TIP3    H2 7465   5.975   3.917   3.243 -1.1062  0.9832 -0.5876
 2487TIP3   OH2 7466   4.017   2.964   1.451  0.4383  0.5125 -0.2437
 2487TIP3    H1 7467   4.082   2.903   1.484  0.3414 -0.0205 -0.9994
 2487TIP3    H2 7468   4.013   3.033   1.516  1.3251  0.2494  0.1026
 2488TIP3   OH2 7469   1.399   3.503   4.601 -0.1818  0.0668  0.0997
 2488TIP3    H1 7470   1.437   3.549   4.526  0.8305 -1.1274 -0.1632
 2488TIP3    H2 7471   1.389   3.571   4.668  0.2049  0.8831 -0.6479
 2489TIP3   OH2 7472   1.943   5.226   3.897 -0.0280  0.2729  0.0624
 2489TIP3    H1 7473   2.010   5.160   3.880  0.5545  0.9482 -0.3181
 2489TIP3    H2 7474   1.915   5.255   3.810  0.4596  1.2611  0.2265
 2490TIP3   OH2 7475   1.949   0.330   2.560 -0.4551  0.5893 -0.3140
 2490TIP3    H1 7476   1.917   0.325   2.470  0.1387  1.3939 -0.5884
 2490TIP3    H2 7477   1.870   0.338   2.613 -0.8048  0.2650 -0.7746
 2491TIP3   OH2 7478   1.477   1.978   3.818 -0.1033  0.1846 -0.2029
 2491TIP3    H1 7479   1.393   1.975   3.862 -1.1000  1.5421 -1.8606
 2491TIP3    H2 7480   1.475   2.060   3.768  2.0733  0.0989 -0.5439
 2492TIP3   OH2 7481   4.211   2.165   4.119 -0.2289 -0.5289 -0.0253
 2492TIP3    H1 7482   4.273   2.143   4.188  1.0315  0.2630 -0.8817
 2492TIP3    H2 7483   4.231   2.103   4.049 -0.4206 -0.2747 -0.3033
 2493TIP3   OH2 7484   2.833   5.691   2.274 -0.4781 -0.0557  0.2347
 2493TIP3    H1 7485   2.750   5.648   2.295 -0.9802  0.0464 -1.4038
 2493TIP3    H2 7486   2.897   5.620   2.269 -0.4561 -0.1394  1.4763
 2494TIP3   OH2 7487   0.534   2.858   3.040 -0.6085  0.5141  0.3296
 2494TIP3    H1 7488   0.516   2.774   2.997 -0.1050  1.5926 -2.1356
 2494TIP3    H2 7489   0.514   2.924   2.974 -0.2508  2.3255  1.9452
 2495TIP3   OH2 7490   3.979   4.375   1.771 -0.0941 -0.0980  0.2598
 2495TIP3    H1 7491   3.915   4.317   1.812 -0.8620 -0.3357 -1.2312
 2495TIP3    H2 7492   3.931   4.416   1.699  1.1194  0.5928 -0.1728
 2496TIP3   OH2 7493   1.930   5.687   4.342  0.3610  0.1237  0.1029
 2496TIP3    H1 7494   2.008   5.691   4.398 -0.6474 -1.8216  1.7650
 2496TIP3    H2 7495   1.909   5.594   4.336 -3.2226  0.6494  1.8325
 2497TIP3   OH2 7496   0.729   0.434   3.346  0.3081  0.3393  0.1695
 2497TIP3    H1 7497   0.721   0.338   3.354  0.5304 -0.1748 -3.8238
 2497TIP3    H2 7498   0.672   0.468   3.415 -0.4113 -2.6823  1.2491
 2498TIP3   OH2 7499   3.555   0.384   2.810 -0.4394  0.5345 -0.2006
 2498TIP3    H1 7500   3.588   0.442   2.741 -0.6158  2.4421  1.2462
 2498TIP3    H2 7501   3.571   0.296   2.777  1.9960  1.3813 -1.4833
 2499TIP3   OH2 7502   4.987   4.557   1.506  0.0259 -0.0394  0.3644
 2499TIP3    H1 7503   4.995   4.568   1.601  0.3207  1.1200  0.2170
 2499TIP3    H2 7504   4.922   4.487   1.496  1.9384 -2.1101  1.4490
 2500TIP3   OH2 7505   3.025   2.141   1.484 -0.0069  0.2300  0.1339
 2500TIP3    H1 7506   2.951   2.119   1.428  0.4499  0.2907 -0.5062
 2500TIP3    H2 7507   3.081   2.196   1.430  0.9029 -0.4699  0.3219
 2501TIP3   OH2 7508   1.803   0.993   3.335  0.1646 -0.1379 -0.7073
 2501TIP3    H1 7509   1.868   0.932   3.300  0.9569 -1.1149  2.1315
 2501TIP3    H2 7510   1.720   0.947   3.326  0.3238 -0.3047 -1.3815
 2502TIP3   OH2 7511   0.654   2.657   0.663  0.0527 -0.1697  0.4190
 2502TIP3    H1 7512   0.606   2.689   0.740  1.1511 -1.0281  1.4946
 2502TIP3    H2 7513   0.738   2.626   0.698  0.1317 -1.6397 -0.9657
 2503TIP3   OH2 7514   0.684   4.569   2.323 -0.2072 -0.0918  0.2194
 2503TIP3    H1 7515   0.668   4.532   2.236  0.7472  0.2396 -0.1045
 2503TIP3    H2 7516   0.600   4.559   2.369 -1.0943  0.8383 -1.1352
 2504TIP3   OH2 7517   5.194   3.218   0.215 -0.0675 -0.7233 -0.3903
 2504TIP3    H1 7518   5.160   3.193   0.301 -1.6949  0.8442 -0.5397
 2504TIP3    H2 7519   5.127   3.189   0.154  0.7351 -1.1391 -1.0961
 2505TIP3   OH2 7520   0.677   2.425   3.781 -0.7490  0.2548  0.1805
 2505TIP3    H1 7521   0.622   2.472   3.718 -0.8749 -0.3849 -0.1959
 2505TIP3    H2 7522   0.716   2.494   3.835  0.2959  0.9186 -1.3457
 2506TIP3   OH2 7523   3.951   1.797   1.892 -0.7898  0.1647 -0.0029
 2506TIP3    H1 7524   3.998   1.880   1.890 -1.3792  0.5071 -0.1132
 2506TIP3    H2 7525   4.013   1.734   1.856 -0.4252  0.6074 -0.1744
 2507TIP3   OH2 7526   4.571   0.229   0.290  0.6422  0.1198 -0.4655
 2507TIP3    H1 7527   4.580   0.296   0.358  0.7019  0.4163 -0.7674
 2507TIP3    H2 7528   4.496   0.176   0.318  1.1153 -0.2104  0.2194
 2508TIP3   OH2 7529   5.722   1.929   1.045  0.1070 -0.2698  0.3118
 2508TIP3    H1 7530   5.679   2.004   1.086  0.6546  0.7499 -0.9295
 2508TIP3    H2 7531   5.683   1.853   1.088 -0.8839  0.6984  1.1862
 2509TIP3   OH2 7532   1.375   2.503   4.788 -0.0262 -0.3092 -0.0477
 2509TIP3    H1 7533   1.421   2.460   4.860  0.9007  0.4422 -0.1802
 2509TIP3    H2 7534   1.441   2.514   4.720 -0.5398  0.2721 -0.4686
 2510TIP3   OH2 7535   1.676   5.429   4.782 -0.5385 -0.2838  0.2217
 2510TIP3    H1 7536   1.664   5.524   4.781 -0.5901 -0.2937 -0.0673
 2510TIP3    H2 7537   1.600   5.396   4.829 -0.2378 -0.1428  0.8249
 2511TIP3   OH2 7538   2.850   0.647   0.180  0.0630  0.2349  0.6248
 2511TIP3    H1 7539   2.813   0.666   0.267  0.3212 -1.8622  1.2484
 2511TIP3    H2 7540   2.777   0.610   0.131  0.2870  0.0318  0.4449
 2512TIP3   OH2 7541   1.060   1.293   2.946 -0.2684 -0.1837 -0.1785
 2512TIP3    H1 7542   1.076   1.301   3.041 -1.6729 -1.1681  0.1749
 2512TIP3    H2 7543   0.966   1.306   2.937  0.1301  2.2563 -1.7797
 2513TIP3   OH2 7544   3.608   2.877   3.219 -0.6649  0.2457 -0.5195
 2513TIP3    H1 7545   3.551   2.948   3.190 -0.2767  1.0601  0.6192
 2513TIP3    H2 7546   3.553   2.799   3.214 -1.6600  0.8974 -0.1494
 2514TIP3   OH2 7547   3.024   0.924   4.789  0.0157 -0.4320  0.2577
 2514TIP3    H1 7548   3.065   0.841   4.761  1.0727 -0.2891  1.2820
 2514TIP3    H2 7549   3.027   0.979   4.711  1.0591 -0.7150  0.0748
 2515TIP3   OH2 7550   1.865   3.782   3.953 -0.1399 -0.2054  0.0202
 2515TIP3    H1 7551   1.939   3.781   4.014 -0.3715 -1.0506  0.2970
 2515TIP3    H2 7552   1.825   3.696   3.963 -2.5843  1.0119  1.5817
 2516TIP3   OH2 7553   2.199   2.708   2.213 -0.1585  0.0681 -0.0336
 2516TIP3    H1 7554   2.166   2.789   2.172  0.0338  1.0911  1.7427
 2516TIP3    H2 7555   2.197   2.726   2.307 -0.1513 -2.0436  0.4100
 2517TIP3   OH2 7556   0.735   3.544   5.082  0.1315 -0.2828 -0.3718
 2517TIP3    H1 7557   0.708   3.614   5.024  1.1109  0.2587 -0.1974
 2517TIP3    H2 7558   0.802   3.496   5.033  1.4424  0.5706  0.5188
 2518TIP3   OH2 7559   5.532   5.227   4.877  0.3454 -0.0781  0.2919
 2518TIP3    H1 7560   5.534   5.272   4.793 -1.5287  0.8095  0.6608
 2518TIP3    H2 7561   5.515   5.135   4.855  0.5293  0.0316 -0.3177
 2519TIP3   OH2 7562   5.080   1.764   1.672  0.1006  0.2993 -0.0759
 2519TIP3    H1 7563   5.034   1.782   1.591  0.2551  0.5180 -0.1154
 2519TIP3    H2 7564   5.016   1.717   1.726  0.3182 -0.7666 -0.7051
 2520TIP3   OH2 7565   5.706   1.971   1.379 -0.0802 -0.1970 -0.0245
 2520TIP3    H1 7566   5.654   2.012   1.311 -0.8402 -1.3994 -0.1877
 2520TIP3    H2 7567   5.700   2.032   1.453  1.4163  1.5276 -1.2218
 2521TIP3   OH2 7568   4.099   2.544   0.728  0.3984  0.4051  0.1762
 2521TIP3    H1 7569   4.160   2.588   0.787 -0.1522  3.0194 -1.0714
 2521TIP3    H2 7570   4.138   2.553   0.641  0.0293 -1.2240 -0.1934
 2522TIP3   OH2 7571   1.458   0.001   3.324  0.2232 -0.4084 -0.2590
 2522TIP3    H1 7572   1.505   0.029   3.403  1.3252 -2.3316 -0.1713
 2522TIP3    H2 7573   1.510   0.035   3.252 -0.4349  0.8053 -0.1844
 2523TIP3   OH2 7574   2.016   5.832   2.891  0.1109 -0.1508 -0.0759
 2523TIP3    H1 7575   1.943   5.778   2.861  1.5238 -1.8116 -0.6751
 2523TIP3    H2 7576   2.048   5.787   2.970  2.0818 -0.9697 -1.2721
 2524TIP3   OH2 7577   5.509   4.265   1.378 -0.1944 -0.6045 -0.9095
 2524TIP3    H1 7578   5.488   4.337   1.438  1.9682 -0.7744  0.1415
 2524TIP3    H2 7579   5.567   4.305   1.313  0.7299 -1.2905 -0.5257
 2525TIP3   OH2 7580   5.467   1.936   2.857  0.3001 -0.2270 -0.5350
 2525TIP3    H1 7581   5.489   2.006   2.796  0.0085 -0.1423 -0.5434
 2525TIP3    H2 7582   5.538   1.937   2.921  0.0095  0.4563 -0.2122
 2526TIP3   OH2 7583   5.266   3.982   4.913 -0.4966  0.1118  0.0322
 2526TIP3    H1 7584   5.284   3.893   4.884 -2.4989 -0.5725  0.6932
 2526TIP3    H2 7585   5.350   4.027   4.907 -0.0339 -0.9001 -3.3857
 2527TIP3   OH2 7586   1.010   0.526   2.000 -0.0251  0.0618  0.3717
 2527TIP3    H1 7587   1.093   0.510   1.954  0.4111 -0.3125  1.2579
 2527TIP3    H2 7588   0.989   0.443   2.041 -1.1235  0.0143 -0.2492
 2528TIP3   OH2 7589   2.580   3.156   1.967 -0.5599  0.1321  0.1071
 2528TIP3    H1 7590   2.602   3.247   1.985 -1.2737  0.1630  0.9033
 2528TIP3    H2 7591   2.623   3.106   2.037 -1.4772  0.0242  0.6111
 2529TIP3   OH2 7592   2.294   4.328   3.030 -0.3438 -0.3136 -0.2502
 2529TIP3    H1 7593   2.298   4.423   3.022 -0.8855 -0.1769  0.9843
 2529TIP3    H2 7594   2.305   4.296   2.940 -0.0900  0.9047 -0.6654
 2530TIP3   OH2 7595   0.025   3.804   0.331  0.6280 -0.2641  0.2844
 2530TIP3    H1 7596  -0.052   3.772   0.283  0.2121  0.9088  0.1505
 2530TIP3    H2 7597   0.097   3.798   0.268  0.6690 -1.3629  0.4077
 2531TIP3   OH2 7598   1.837   2.044   3.035 -0.0063  0.1291  0.6572
 2531TIP3    H1 7599   1.789   2.054   3.117 -1.2213 -0.5677  0.0609
 2531TIP3    H2 7600   1.927   2.066   3.057 -0.6006  1.6327  1.7885
 2532TIP3   OH2 7601   3.440   1.673   1.355  0.0607  0.3712 -0.5837
 2532TIP3    H1 7602   3.356   1.715   1.370  0.5393  1.6713 -1.3498
 2532TIP3    H2 7603   3.427   1.621   1.275 -0.0527  0.4855 -0.6397
 2533TIP3   OH2 7604   4.747   2.717   1.492  0.3038 -0.1994  0.6707
 2533TIP3    H1 7605   4.773   2.744   1.580  0.9520 -1.3213  0.8535
 2533TIP3    H2 7606   4.749   2.797   1.440  1.0411  0.2860  1.4248
 2534TIP3   OH2 7607   2.214   5.629   3.540  0.0977  0.7954  0.0538
 2534TIP3    H1 7608   2.157   5.555   3.559 -0.0991  1.1219  0.8013
 2534TIP3    H2 7609   2.285   5.593   3.487 -1.6091  0.6864 -2.2654
 2535TIP3   OH2 7610   5.350   5.144   1.263  0.3385  0.0548  0.9844
 2535TIP3    H1 7611   5.332   5.055   1.294 -1.0214 -0.3413 -0.7394
 2535TIP3    H2 7612   5.407   5.133   1.188  0.5083  0.6704  1.0156
 2536TIP3   OH2 7613   5.024   2.807   3.970  0.1121 -0.4973 -0.6411
 2536TIP3    H1 7614   4.970   2.842   3.899  0.6228 -0.1009 -0.8386
 2536TIP3    H2 7615   4.967   2.746   4.015 -1.4931  1.9545  0.9031
 2537TIP3   OH2 7616   2.927   1.374   2.196  0.3245  0.4547  0.0724
 2537TIP3    H1 7617   2.852   1.337   2.244  0.8040 -0.3772  0.1978
 2537TIP3    H2 7618   2.955   1.448   2.250 -1.2631  1.6645 -0.6866
 2538TIP3   OH2 7619   1.295   3.465   3.075  0.2794  0.4019  0.4547
 2538TIP3    H1 7620   1.296   3.373   3.045  1.0658 -0.7363  3.5817
 2538TIP3    H2 7621   1.371   3.504   3.032  0.5521 -0.7127 -0.1324
 2539TIP3   OH2 7622   2.211   0.175   0.116  0.0827  0.1924  0.4573
 2539TIP3    H1 7623   2.168   0.179   0.030 -0.2506 -0.3122  0.5957
 2539TIP3    H2 7624   2.301   0.150   0.096  0.4313  1.6275  0.1362
 2540TIP3   OH2 7625   0.277   3.991   3.654 -0.3596  0.0330  0.4006
 2540TIP3    H1 7626   0.347   3.938   3.692  0.1592  0.8817  0.6499
 2540TIP3    H2 7627   0.218   3.927   3.612 -0.1762 -0.7958  1.3810
 2541TIP3   OH2 7628   4.851   2.010   2.609 -0.2689  0.1209 -0.0178
 2541TIP3    H1 7629   4.805   1.940   2.562  0.0605 -1.5296  1.9949
 2541TIP3    H2 7630   4.943   1.986   2.603 -0.3063 -1.0166  2.6670
 2542TIP3   OH2 7631   0.831   5.198   0.632  0.0711  0.1042 -0.1798
 2542TIP3    H1 7632   0.872   5.276   0.668  0.7065  0.1859 -1.0516
 2542TIP3    H2 7633   0.903   5.149   0.592 -0.4437 -0.5261 -0.3571
 2543TIP3   OH2 7634   1.370   2.693   3.782  0.4446  0.0704  0.6803
 2543TIP3    H1 7635   1.277   2.692   3.762  0.6492  1.9682 -0.6440
 2543TIP3    H2 7636   1.379   2.755   3.854  0.9290  2.1952 -1.1077
 2544TIP3   OH2 7637   5.431   0.154   4.253  0.7313  0.0655 -0.2685
 2544TIP3    H1 7638   5.446   0.246   4.272  0.0576  1.0408 -3.7784
 2544TIP3    H2 7639   5.350   0.133   4.300  0.2355  1.6102 -0.3762
 2545TIP3   OH2 7640   3.576   5.483   4.038  0.3652 -0.0903 -0.0672
 2545TIP3    H1 7641   3.505   5.544   4.055  1.5495  0.7176  2.4638
 2545TIP3    H2 7642   3.560   5.411   4.099  1.2206 -0.3231 -0.1103
 2546TIP3   OH2 7643   0.608   4.790   1.489 -0.1027 -0.1937 -0.6338
 2546TIP3    H1 7644   0.590   4.867   1.543  1.6144  0.8370 -1.4459
 2546TIP3    H2 7645   0.522   4.761   1.459 -1.0358 -0.2725  1.8738
 2547TIP3   OH2 7646   4.834   4.344   0.809 -0.4998 -0.6871 -0.1190
 2547TIP3    H1 7647   4.833   4.359   0.904 -0.3063 -0.0482 -0.2127
 2547TIP3    H2 7648   4.872   4.257   0.799  4.3859  1.1140  0.1852
 2548TIP3   OH2 7649   3.414   2.009   0.655  0.7858  0.3963  0.2080
 2548TIP3    H1 7650   3.400   2.104   0.656  0.0543  0.3925 -2.2579
 2548TIP3    H2 7651   3.338   1.975   0.608  1.6727 -1.2837 -0.0685
 2549TIP3   OH2 7652   2.885   4.650   4.312 -0.1775  0.1661  0.1648
 2549TIP3    H1 7653   2.930   4.734   4.326 -1.5345  1.3922 -2.0862
 2549TIP3    H2 7654   2.793   4.675   4.301 -0.7680 -1.7695  0.4608
 2550TIP3   OH2 7655   0.721   1.024   0.401  0.5663 -0.0377  0.1401
 2550TIP3    H1 7656   0.717   1.118   0.416 -1.3542 -0.4061  2.7812
 2550TIP3    H2 7657   0.639   0.990   0.439  0.9691 -2.7394 -1.1187
 2551TIP3   OH2 7658   3.593   5.676   4.402  0.0571 -0.0385 -0.1131
 2551TIP3    H1 7659   3.549   5.735   4.342 -0.4624  2.7939  2.7751
 2551TIP3    H2 7660   3.563   5.703   4.489  3.8988 -1.0065  1.7600
 2552TIP3   OH2 7661   2.507   3.138  -0.006  0.1585 -0.4660 -0.3371
 2552TIP3    H1 7662   2.474   3.096   0.074  1.8278  1.0937  1.2276
 2552TIP3    H2 7663   2.437   3.199  -0.031  0.0410 -0.2316  0.5237
 2553TIP3   OH2 7664   5.748   3.814   2.013 -0.3397 -0.4051 -0.1904
 2553TIP3    H1 7665   5.661   3.852   2.019 -0.2326 -0.1948  0.0612
 2553TIP3    H2 7666   5.733   3.720   1.999 -0.6348 -0.0788 -2.5912
 2554TIP3   OH2 7667   1.024   3.248   2.360 -0.6079  0.5696 -0.5484
 2554TIP3    H1 7668   0.957   3.316   2.365 -0.0204  1.0851  2.0447
 2554TIP3    H2 7669   0.975   3.166   2.354 -1.4742  1.0085  0.2052
 2555TIP3   OH2 7670   1.491   4.447   2.554 -0.1276  0.1672  0.0097
 2555TIP3    H1 7671   1.507   4.530   2.511 -1.1364  0.2965 -0.1306
 2555TIP3    H2 7672   1.413   4.462   2.608  0.4328 -0.3162  0.9921
 2556TIP3   OH2 7673   0.087   0.808   2.183  0.4439  1.1329 -0.5396
 2556TIP3    H1 7674   0.010   0.803   2.240 -0.3664 -0.3446 -1.6814
 2556TIP3    H2 7675   0.145   0.871   2.226 -1.0764  1.7230  0.7423
 2557TIP3   OH2 7676   6.009   0.020   1.275 -0.2316  0.0367 -0.0508
 2557TIP3    H1 7677   5.937   0.074   1.307  0.5286 -0.4189  2.6755
 2557TIP3    H2 7678   6.088   0.067   1.301  0.5218  0.0989 -2.2301
 2558TIP3   OH2 7679   3.286   0.438   2.420 -0.1801  0.6162  0.3105
 2558TIP3    H1 7680   3.234   0.467   2.495  0.5012  0.6260  0.7882
 2558TIP3    H2 7681   3.233   0.460   2.344 -1.3258 -0.2900  0.8212
 2559TIP3   OH2 7682   2.539   5.704   2.535 -0.4555  0.1882  0.1005
 2559TIP3    H1 7683   2.492   5.702   2.451  0.9777 -0.9833 -0.7115
 2559TIP3    H2 7684   2.602   5.775   2.525  0.6106 -0.8002 -0.3420
 2560TIP3   OH2 7685   2.726   0.789   2.156  0.4939  0.6790 -0.1611
 2560TIP3    H1 7686   2.739   0.726   2.085  1.5873  0.6109  0.0836
 2560TIP3    H2 7687   2.631   0.793   2.167  0.3520 -3.0168  1.6031
 2561TIP3   OH2 7688   2.077   4.855   3.076 -0.2510  0.2495  0.1703
 2561TIP3    H1 7689   2.020   4.795   3.028 -0.3865  1.1271 -0.8081
 2561TIP3    H2 7690   2.016   4.905   3.131  0.0731 -2.0863  2.8779
 2562TIP3   OH2 7691   0.984   0.988   2.001 -0.1669 -0.1064 -0.5191
 2562TIP3    H1 7692   1.019   1.028   2.081  1.5462  0.9763 -1.7509
 2562TIP3    H2 7693   1.022   0.900   2.000 -1.2490 -0.6245  0.4719
 2563TIP3   OH2 7694   4.418   1.563   0.879  0.1822 -0.2876  0.1298
 2563TIP3    H1 7695   4.474   1.576   0.803 -1.1270  0.6391 -0.7167
 2563TIP3    H2 7696   4.339   1.612   0.859 -1.7282 -3.0321  0.4507
 2564TIP3   OH2 7697   2.481   0.009   4.385  0.2463 -0.3330 -0.1573
 2564TIP3    H1 7698   2.444   0.084   4.431  1.6119 -0.5564  1.3893
 2564TIP3    H2 7699   2.528   0.046   4.311 -1.6001  0.0687 -1.1945
 2565TIP3   OH2 7700   4.951   1.969   4.134 -0.0561  0.2936 -0.6081
 2565TIP3    H1 7701   4.902   1.987   4.053 -0.4835  0.5982 -0.2860
 2565TIP3    H2 7702   4.884   1.954   4.200  0.2428 -2.5661 -0.8335
 2566TIP3   OH2 7703   3.538   4.710   4.388  0.6168 -0.0014  0.3021
 2566TIP3    H1 7704   3.606   4.691   4.324 -1.0027 -0.9183 -1.2446
 2566TIP3    H2 7705   3.463   4.656   4.360 -1.2462  2.0739  1.0211
 2567TIP3   OH2 7706   6.221   4.835   4.696  0.3965 -0.5356 -0.0100
 2567TIP3    H1 7707   6.127   4.835   4.677  0.5275 -1.4977 -0.7588
 2567TIP3    H2 7708   6.238   4.922   4.731 -0.5196  0.1715 -1.2199
 2568TIP3   OH2 7709   3.380   2.040   3.743 -0.0549  0.1970  0.4131
 2568TIP3    H1 7710   3.447   2.108   3.733 -0.7019  0.8618  0.5438
 2568TIP3    H2 7711   3.398   1.978   3.672  1.6375 -0.4482  1.3444
 2569TIP3   OH2 7712   6.321   0.760   2.891 -0.0776  0.2450 -0.2239
 2569TIP3    H1 7713   6.356   0.726   2.974  0.5720 -0.5411 -0.7914
 2569TIP3    H2 7714   6.226   0.751   2.899  0.0420 -1.1173 -0.0842
 2570TIP3   OH2 7715   4.496   5.897   3.065  0.8466 -0.0613 -0.1747
 2570TIP3    H1 7716   4.500   5.992   3.054 -0.2500  0.6569  3.7942
 2570TIP3    H2 7717   4.436   5.867   2.997 -0.2970  2.4221 -0.3671
 2571TIP3   OH2 7718   2.431   4.899   2.272  0.5354 -0.4760 -0.3133
 2571TIP3    H1 7719   2.443   4.830   2.337  1.4478 -0.2846 -0.2723
 2571TIP3    H2 7720   2.488   4.970   2.301 -1.2318  0.7712  0.2698
 2572TIP3   OH2 7721   6.060   2.692   2.748 -0.1561  0.2229  0.0245
 2572TIP3    H1 7722   6.122   2.678   2.676 -1.1341  0.8911 -0.9738
 2572TIP3    H2 7723   6.082   2.778   2.782  0.0201  0.0927  0.2432
 2573TIP3   OH2 7724   1.340   1.407   3.439 -0.2687  0.5332  0.6452
 2573TIP3    H1 7725   1.402   1.473   3.468  0.5118 -0.7948  2.1450
 2573TIP3    H2 7726   1.366   1.389   3.348  0.1110  1.5666  0.5351
 2574TIP3   OH2 7727   5.653   0.136   1.859  0.2923 -0.1068 -0.2290
 2574TIP3    H1 7728   5.725   0.075   1.850  0.0114 -0.5349  0.3508
 2574TIP3    H2 7729   5.648   0.154   1.953  0.0234  0.3816 -0.3307
 2575TIP3   OH2 7730   0.181   3.606   1.385 -0.0002  0.2856  0.5107
 2575TIP3    H1 7731   0.158   3.608   1.478 -1.9104  0.4765  0.0649
 2575TIP3    H2 7732   0.179   3.698   1.358 -1.7571  0.0637 -0.2203
 2576TIP3   OH2 7733   1.617   1.398   2.597  0.1984 -0.4762 -0.5650
 2576TIP3    H1 7734   1.539   1.371   2.550 -1.1696 -0.3522  1.4863
 2576TIP3    H2 7735   1.596   1.486   2.630  1.5925 -0.0326 -0.7916
 2577TIP3   OH2 7736   0.411   4.120   4.936 -0.1359 -0.3313  0.6596
 2577TIP3    H1 7737   0.396   4.196   4.878 -2.4731 -0.2159  1.2972
 2577TIP3    H2 7738   0.496   4.137   4.975  0.5296  0.6962 -1.0867
 2578TIP3   OH2 7739   3.757   3.931   3.549  0.3088 -0.0082 -0.0785
 2578TIP3    H1 7740   3.792   3.872   3.616  1.4576  0.9708  0.2160
 2578TIP3    H2 7741   3.834   3.959   3.500 -0.0477  2.1686  0.5351
 2579TIP3   OH2 7742   2.845   0.374   5.071  0.8760 -1.4730  0.0881
 2579TIP3    H1 7743   2.928   0.375   5.023  1.6423 -1.8198  1.3539
 2579TIP3    H2 7744   2.864   0.324   5.151  0.4327  1.3164  2.0930
 2580TIP3   OH2 7745   5.788   1.613   1.470 -0.1911 -0.1705  0.1766
 2580TIP3    H1 7746   5.839   1.689   1.443  0.7640 -1.1502 -0.8834
 2580TIP3    H2 7747   5.841   1.571   1.538 -0.4906 -0.1681  0.4173
 2581TIP3   OH2 7748   5.999   0.304   0.565  0.4298 -0.8809 -0.1975
 2581TIP3    H1 7749   5.956   0.362   0.628  1.8191  1.1310 -1.0264
 2581TIP3    H2 7750   6.063   0.256   0.618  0.1635 -0.7510  0.2559
 2582TIP3   OH2 7751   4.294   2.959   0.743  0.0893 -0.4843  0.0724
 2582TIP3    H1 7752   4.333   3.010   0.814 -0.9028 -0.5748  0.7071
 2582TIP3    H2 7753   4.312   3.009   0.664 -0.1829  0.4479  0.5942
 2583TIP3   OH2 7754   5.430   0.961   4.380 -0.1993 -0.4064  0.4967
 2583TIP3    H1 7755   5.425   0.943   4.286 -1.6418 -0.0614  0.4836
 2583TIP3    H2 7756   5.437   1.056   4.386 -0.8121 -0.3734  0.7467
 2584TIP3   OH2 7757   4.653   4.668   1.012 -0.0612  0.6514  0.3152
 2584TIP3    H1 7758   4.618   4.614   0.941 -2.0217  1.6793  0.4317
 2584TIP3    H2 7759   4.710   4.731   0.969 -2.9889  2.7529 -0.7824
 2585TIP3   OH2 7760   1.741   4.817   2.710  0.4146  0.4747  0.2923
 2585TIP3    H1 7761   1.682   4.885   2.744 -0.1673  0.2937 -0.3488
 2585TIP3    H2 7762   1.752   4.838   2.617  0.7085  0.0299  0.2221
 2586TIP3   OH2 7763   4.581   3.536   1.079 -0.2822 -0.0927  0.7530
 2586TIP3    H1 7764   4.659   3.549   1.133 -0.0834 -0.9465  0.6862
 2586TIP3    H2 7765   4.525   3.479   1.131 -0.2376 -0.6420  0.2063
 2587TIP3   OH2 7766   0.352   1.252   0.563  0.2902 -0.8077 -0.5265
 2587TIP3    H1 7767   0.407   1.302   0.624  2.5514 -2.1320 -1.3416
 2587TIP3    H2 7768   0.315   1.182   0.617 -1.3381  0.5610  0.2052
 2588TIP3   OH2 7769   2.454   1.478   1.100 -0.5692  0.6534 -0.0037
 2588TIP3    H1 7770   2.545   1.456   1.081 -0.2601  0.4927  1.5367
 2588TIP3    H2 7771   2.406   1.396   1.090 -0.8201  1.0031 -2.1526
 2589TIP3   OH2 7772   2.590   5.756   0.410 -0.6645 -0.0965  0.1692
 2589TIP3    H1 7773   2.503   5.794   0.400 -0.3294  0.2009 -2.3829
 2589TIP3    H2 7774   2.631   5.769   0.324  1.8342 -0.3898  1.2469
 2590TIP3   OH2 7775   2.001   4.880   3.448 -0.1699 -0.1614 -0.1885
 2590TIP3    H1 7776   1.939   4.828   3.500  0.5628 -1.1790 -0.3002
 2590TIP3    H2 7777   2.069   4.817   3.422  1.1877  1.0261  0.3631
 2591TIP3   OH2 7778   5.001   1.624   2.871  0.2215  0.4164  0.1896
 2591TIP3    H1 7779   4.963   1.703   2.909  1.9269  1.1042  0.5354
 2591TIP3    H2 7780   4.990   1.635   2.776  0.6509  1.2032  0.2185
 2592TIP3   OH2 7781   5.619   5.724   3.219  0.0538  0.3387  0.2961
 2592TIP3    H1 7782   5.628   5.783   3.293 -1.2687  1.2143 -0.1975
 2592TIP3    H2 7783   5.654   5.640   3.249  1.8814  1.3332  1.0414
 2593TIP3   OH2 7784   5.818   4.114   3.966 -0.0449 -0.2512 -0.1915
 2593TIP3    H1 7785   5.781   4.050   3.905 -0.9816 -0.5806  0.6935
 2593TIP3    H2 7786   5.873   4.062   4.025 -0.3759 -0.1685  0.1938
 2594TIP3   OH2 7787   5.118   4.333   3.963  0.0860  0.7569  0.4835
 2594TIP3    H1 7788   5.080   4.264   4.017 -0.2701 -0.5003 -1.2906
 2594TIP3    H2 7789   5.052   4.351   3.896  0.7618  1.7981  0.0709
 2595TIP3   OH2 7790   0.404   1.126   4.909 -0.3112  0.4325  0.0306
 2595TIP3    H1 7791   0.472   1.063   4.927  1.1078  2.1945  1.1983
 2595TIP3    H2 7792   0.412   1.144   4.815 -1.7477 -2.1381 -0.6684
 2596TIP3   OH2 7793   4.895   3.937   1.109 -0.6093  0.5142  0.2612
 2596TIP3    H1 7794   4.854   4.008   1.060 -0.5212  0.4437  0.0864
 2596TIP3    H2 7795   4.916   3.976   1.194 -3.3764 -0.1122  1.3439
 2597TIP3   OH2 7796   4.379   5.847   2.840  0.1715  0.0939  0.2025
 2597TIP3    H1 7797   4.343   5.803   2.763  3.0503 -1.8771 -0.1731
 2597TIP3    H2 7798   4.385   5.939   2.814  0.4265 -0.4133 -1.7193
 2598TIP3   OH2 7799   4.021   5.089   1.908 -0.1894 -0.2620 -0.0032
 2598TIP3    H1 7800   4.017   5.141   1.988 -0.1524 -0.1071 -0.1025
 2598TIP3    H2 7801   4.114   5.069   1.897 -0.1155  0.2363 -0.3411
 2599TIP3   OH2 7802   0.455   0.107   0.279 -1.2013  0.0639  0.1411
 2599TIP3    H1 7803   0.511   0.050   0.225 -0.6857 -0.6796  1.4032
 2599TIP3    H2 7804   0.515   0.145   0.343 -2.2006 -1.3144  1.9954
 2600TIP3   OH2 7805   3.032   1.301   1.790 -0.0252 -0.4957 -0.1298
 2600TIP3    H1 7806   2.985   1.263   1.863  1.6483 -0.6985  0.8923
 2600TIP3    H2 7807   3.046   1.228   1.730 -0.1921 -0.6353  0.0010
 2601TIP3   OH2 7808   2.441   3.814   3.102  0.1994  0.3463  0.2787
 2601TIP3    H1 7809   2.484   3.881   3.048  0.4271  0.5318  0.6845
 2601TIP3    H2 7810   2.409   3.862   3.178 -2.1633  0.5230 -0.7363
 2602TIP3   OH2 7811   3.860   4.924   1.325 -0.4093 -0.1905 -0.1781
 2602TIP3    H1 7812   3.934   4.972   1.363 -0.9542  1.0811 -0.6465
 2602TIP3    H2 7813   3.881   4.917   1.232 -0.0125 -1.5182 -0.0084
 2603TIP3   OH2 7814   3.748   4.194   0.676 -0.6158 -0.0898 -0.2255
 2603TIP3    H1 7815   3.741   4.113   0.625  4.0592 -1.5154  0.8867
 2603TIP3    H2 7816   3.765   4.262   0.611 -0.9541 -0.6511 -0.9193
 2604TIP3   OH2 7817   5.526   5.615   3.593 -0.7462 -0.0012  0.0424
 2604TIP3    H1 7818   5.519   5.702   3.554  0.7338 -0.0088 -0.2936
 2604TIP3    H2 7819   5.613   5.613   3.633 -1.1687 -0.9611  0.9859
 2605TIP3   OH2 7820   2.319   5.796   0.284  0.2754 -0.4139 -0.6542
 2605TIP3    H1 7821   2.224   5.809   0.291  0.2078 -0.6901 -0.9921
 2605TIP3    H2 7822   2.337   5.806   0.190  0.7031  0.4208 -0.4875
 2606TIP3   OH2 7823   0.273   1.013   0.736  0.4697 -0.3129  0.7426
 2606TIP3    H1 7824   0.224   0.998   0.817  0.1140 -0.1810  0.5523
 2606TIP3    H2 7825   0.364   0.990   0.758  0.0660 -2.1697  0.6362
 2607TIP3   OH2 7826   0.331   4.991   3.039  0.4732 -0.1203 -0.0831
 2607TIP3    H1 7827   0.283   4.935   2.979 -1.6793  0.0911  1.3353
 2607TIP3    H2 7828   0.379   4.930   3.095 -0.1808 -0.4783  0.0982
 2608TIP3   OH2 7829   5.667   0.098   2.514 -0.1104 -0.4813 -0.4540
 2608TIP3    H1 7830   5.604   0.165   2.490  0.5945  0.2104 -0.4365
 2608TIP3    H2 7831   5.619   0.039   2.572 -0.3268  0.9087  0.8491
 2609TIP3   OH2 7832   3.789   1.269   2.369  0.6584 -0.3844 -0.2470
 2609TIP3    H1 7833   3.794   1.174   2.368 -0.1284 -0.4879  1.5219
 2609TIP3    H2 7834   3.733   1.290   2.444 -1.1373  1.4058 -1.9421
 2610TIP3   OH2 7835   1.997   3.465   4.166 -0.1378 -0.2121  0.0108
 2610TIP3    H1 7836   2.028   3.550   4.200 -0.0440 -0.3009  0.1495
 2610TIP3    H2 7837   2.006   3.406   4.240 -1.2150 -0.1053  0.2321
 2611TIP3   OH2 7838   2.467   5.111   1.979  0.0053 -0.4593  0.1896
 2611TIP3    H1 7839   2.376   5.132   2.003  0.6540  0.6903  1.8945
 2611TIP3    H2 7840   2.518   5.182   2.018  1.7066 -1.5012 -0.0659
 2612TIP3   OH2 7841   3.910   3.600   4.798  0.6181  0.6359 -0.1029
 2612TIP3    H1 7842   3.904   3.687   4.757 -0.9025 -0.0282 -1.3982
 2612TIP3    H2 7843   3.838   3.598   4.860  2.7754  1.5451  2.6293
 2613TIP3   OH2 7844   6.307   3.611   3.552 -0.3351  0.3102 -0.3296
 2613TIP3    H1 7845   6.248   3.685   3.561 -1.1382 -0.4595  1.1416
 2613TIP3    H2 7846   6.254   3.542   3.512  0.3654  0.4427 -1.5515
 2614TIP3   OH2 7847   3.049   4.152   4.240 -0.0851 -0.5379  0.5017
 2614TIP3    H1 7848   3.113   4.165   4.310  0.2284 -0.8945  0.2865
 2614TIP3    H2 7849   2.965   4.170   4.281  0.1294 -0.3411  0.8616
 2615TIP3   OH2 7850   5.566   1.700   1.143  0.1804 -0.0243  0.2587
 2615TIP3    H1 7851   5.569   1.653   1.226 -1.7705  1.5327  1.3034
 2615TIP3    H2 7852   5.545   1.633   1.078 -0.3534 -0.9585  1.3612
 2616TIP3   OH2 7853   5.372   0.195   2.743 -0.5802 -0.3040  1.1758
 2616TIP3    H1 7854   5.424   0.238   2.676 -1.5067  2.7428  2.2274
 2616TIP3    H2 7855   5.342   0.113   2.703  1.5048 -0.1346 -0.8973
 2617TIP3   OH2 7856   0.445   0.776   4.894 -0.7363  0.7080  0.1267
 2617TIP3    H1 7857   0.453   0.813   4.806  0.6921 -1.2790 -0.6514
 2617TIP3    H2 7858   0.395   0.695   4.882  1.6700 -0.9763  0.6136
 2618TIP3   OH2 7859   0.321   4.667   4.946 -0.0777  0.2931  0.2331
 2618TIP3    H1 7860   0.318   4.730   5.017 -0.9969  1.5112 -0.8443
 2618TIP3    H2 7861   0.293   4.584   4.985 -0.2733  0.8713  1.3377
 2619TIP3   OH2 7862   2.411   5.382   2.536  0.4837 -0.1666  0.1742
 2619TIP3    H1 7863   2.464   5.366   2.613  1.4734  1.6264 -0.0654
 2619TIP3    H2 7864   2.357   5.458   2.559  0.0750 -0.2259 -0.5443
 2620TIP3   OH2 7865   6.259   1.337   3.874 -0.2795 -0.1051 -0.3448
 2620TIP3    H1 7866   6.277   1.339   3.968  3.4699  2.5589 -0.8816
 2620TIP3    H2 7867   6.164   1.322   3.868 -0.3724 -2.5432  3.6769
 2621TIP3   OH2 7868   3.864   0.528   5.201  0.4877 -0.3276  0.4834
 2621TIP3    H1 7869   3.921   0.545   5.126  0.6522  0.8559  0.8512
 2621TIP3    H2 7870   3.794   0.593   5.193  0.3972 -0.3220  1.2436
 2622TIP3   OH2 7871   2.548   3.101   4.223 -0.2703 -0.1133  0.1840
 2622TIP3    H1 7872   2.640   3.085   4.245 -0.1199 -0.6137 -0.7178
 2622TIP3    H2 7873   2.529   3.037   4.154 -1.3180 -0.0598  0.4054
 2623TIP3   OH2 7874   1.210   1.366   4.177  0.0512  0.1273 -0.4696
 2623TIP3    H1 7875   1.147   1.306   4.218 -0.1233 -0.0631 -1.0145
 2623TIP3    H2 7876   1.275   1.308   4.137  0.1080  0.3120 -0.6404
 2624TIP3   OH2 7877   0.896   5.672   1.613 -0.7534 -0.4012 -0.1440
 2624TIP3    H1 7878   0.851   5.737   1.559 -1.8527 -0.2802  0.8728
 2624TIP3    H2 7879   0.968   5.641   1.559 -2.4635 -1.1241 -2.1549
 2625TIP3   OH2 7880   0.237   4.382   3.204 -0.4816 -0.1342  0.0457
 2625TIP3    H1 7881   0.238   4.409   3.296  1.7668  1.6074 -0.4034
 2625TIP3    H2 7882   0.182   4.447   3.161 -0.5415 -0.2249 -0.0137
 2626TIP3   OH2 7883   1.315   4.282   0.836  0.0221  0.1321  0.6865
 2626TIP3    H1 7884   1.291   4.270   0.928  0.9039 -1.4611  0.7530
 2626TIP3    H2 7885   1.387   4.345   0.838  0.9366 -0.8994  1.2517
 2627TIP3   OH2 7886   1.742   4.467   1.133 -0.0928 -0.0398  0.2482
 2627TIP3    H1 7887   1.779   4.396   1.081  0.9089 -0.3964  1.4097
 2627TIP3    H2 7888   1.712   4.424   1.213 -1.1047  0.5862  0.2200
 2628TIP3   OH2 7889   2.421   4.978   2.954 -0.2463  0.2684  0.6009
 2628TIP3    H1 7890   2.505   4.935   2.939 -0.6495 -0.2581 -0.2343
 2628TIP3    H2 7891   2.416   4.989   3.050 -0.6254 -2.6290  0.9918
 2629TIP3   OH2 7892   6.202   2.817   4.404  0.2695 -0.6360  0.5459
 2629TIP3    H1 7893   6.135   2.749   4.396  1.2573 -1.5856  0.0201
 2629TIP3    H2 7894   6.236   2.828   4.316  0.9736 -0.3395  0.8433
 2630TIP3   OH2 7895   2.008   2.683   0.604  0.1870 -0.5610  0.3699
 2630TIP3    H1 7896   2.090   2.635   0.618  0.9409  0.3139 -0.8123
 2630TIP3    H2 7897   1.965   2.683   0.690  1.9813 -0.0393  1.3186
 2631TIP3   OH2 7898   5.367   1.211   1.906 -0.5157 -0.5077  0.5660
 2631TIP3    H1 7899   5.406   1.131   1.871 -1.9005 -1.1586  0.4166
 2631TIP3    H2 7900   5.352   1.266   1.829  3.1350  1.2687  0.9037
 2632TIP3   OH2 7901   5.264   0.755   4.604 -0.0737  0.0445 -0.1140
 2632TIP3    H1 7902   5.359   0.753   4.588 -0.1732  1.0803 -0.9618
 2632TIP3    H2 7903   5.248   0.840   4.645 -0.7797  0.4097 -1.0983
 2633TIP3   OH2 7904   0.663   2.754   2.399 -0.1468  0.0582 -0.1290
 2633TIP3    H1 7905   0.656   2.708   2.316 -0.1182  1.1453 -0.7448
 2633TIP3    H2 7906   0.756   2.751   2.421 -0.0201  0.5346 -0.5881
 2634TIP3   OH2 7907   6.018   3.465   2.038  0.3042  0.1225 -0.1541
 2634TIP3    H1 7908   6.087   3.531   2.036 -0.2007  0.6983  0.8270
 2634TIP3    H2 7909   5.936   3.515   2.040 -0.1951 -0.5434 -1.8558
 2635TIP3   OH2 7910   3.498   0.620   4.502  0.3129 -0.5125 -0.3345
 2635TIP3    H1 7911   3.534   0.604   4.414  1.9046 -0.3324  0.2552
 2635TIP3    H2 7912   3.500   0.534   4.544 -3.0681 -1.2306 -1.3099
 2636TIP3   OH2 7913   0.114   2.799   1.842  0.3422  0.1302 -0.0099
 2636TIP3    H1 7914   0.056   2.748   1.785 -0.5824  0.6566  0.4319
 2636TIP3    H2 7915   0.057   2.828   1.914  0.9935  1.2563  0.0665
 2637TIP3   OH2 7916   1.556   2.410   4.969  0.0120 -0.1553 -0.5456
 2637TIP3    H1 7917   1.626   2.461   5.008  0.5593  0.8031 -2.6013
 2637TIP3    H2 7918   1.601   2.341   4.919 -0.6121 -0.9153 -0.0790
 2638TIP3   OH2 7919   0.601   0.808   3.307  0.2580 -0.8310 -0.4104
 2638TIP3    H1 7920   0.519   0.841   3.269  0.3657 -0.0785 -0.0295
 2638TIP3    H2 7921   0.589   0.714   3.314 -0.6605 -0.7050 -0.1795
 2639TIP3   OH2 7922   0.684   3.814   4.113 -0.1575 -0.0932  0.0070
 2639TIP3    H1 7923   0.695   3.903   4.079  0.9358 -0.3230 -0.2742
 2639TIP3    H2 7924   0.754   3.764   4.072  0.4680 -0.6598  1.6611
 2640TIP3   OH2 7925   2.459   1.612   2.529 -0.2790  0.4293  0.5694
 2640TIP3    H1 7926   2.453   1.542   2.464 -1.6897  0.9001  0.1562
 2640TIP3    H2 7927   2.525   1.581   2.591  0.5603 -0.3652 -0.6581
 2641TIP3   OH2 7928   3.427   3.697   0.619 -0.0172  0.1074  0.5233
 2641TIP3    H1 7929   3.431   3.746   0.536  1.7776 -0.0079  0.5092
 2641TIP3    H2 7930   3.335   3.673   0.627 -0.2056 -0.1735 -1.6334
 2642TIP3   OH2 7931   4.955   2.237   1.173  0.7546  0.1077 -0.0341
 2642TIP3    H1 7932   4.890   2.170   1.196  1.4473 -0.2616  0.9167
 2642TIP3    H2 7933   4.928   2.267   1.086  1.6783 -2.9940 -1.5509
 2643TIP3   OH2 7934   2.550   0.995   4.572 -0.0806  0.1351  0.7898
 2643TIP3    H1 7935   2.627   0.953   4.532 -0.1608  0.0977  0.6744
 2643TIP3    H2 7936   2.565   1.089   4.560  0.8048  0.2172  2.3296
 2644TIP3   OH2 7937   2.194   5.501   2.681  0.2101  0.4836 -0.3481
 2644TIP3    H1 7938   2.120   5.471   2.628  1.2113  0.2758 -1.6764
 2644TIP3    H2 7939   2.201   5.437   2.752  2.0326 -2.3716 -2.8565
 2645TIP3   OH2 7940   5.860   1.916   2.459 -0.3374 -0.0878 -0.1047
 2645TIP3    H1 7941   5.914   1.864   2.400  0.6204  2.2529 -1.4176
 2645TIP3    H2 7942   5.771   1.907   2.425  0.2484  1.5687 -2.3238
 2646TIP3   OH2 7943   1.966   4.565   3.156  0.0644  0.1223  0.7507
 2646TIP3    H1 7944   2.020   4.489   3.177  0.3053 -0.2251 -0.9641
 2646TIP3    H2 7945   1.937   4.598   3.241 -0.3134 -2.0673  1.5435
 2647TIP3   OH2 7946   4.901   3.283   2.760 -0.0982 -0.7527 -0.1641
 2647TIP3    H1 7947   4.977   3.226   2.774  0.8520  0.2614 -1.0238
 2647TIP3    H2 7948   4.937   3.362   2.721 -1.7585 -0.8692 -2.1149
 2648TIP3   OH2 7949   2.347   5.089   3.397 -0.6240 -0.2690  0.3204
 2648TIP3    H1 7950   2.368   5.056   3.484 -0.1904 -0.6994  0.0578
 2648TIP3    H2 7951   2.345   5.012   3.341  1.5282  0.1944 -0.5194
 2649TIP3   OH2 7952   4.207   2.766   5.100  0.4182 -0.2773 -0.6618
 2649TIP3    H1 7953   4.139   2.775   5.166 -0.3583 -0.8682 -1.3584
 2649TIP3    H2 7954   4.289   2.779   5.148 -0.0882 -1.4012  0.5618
 2650TIP3   OH2 7955   1.337   1.490   1.600 -0.4779  0.4911  0.2830
 2650TIP3    H1 7956   1.416   1.533   1.565 -1.1147  1.0665 -0.5056
 2650TIP3    H2 7957   1.337   1.513   1.693 -0.9157  2.4681 -0.1439
 2651TIP3   OH2 7958   5.226   3.741   3.984 -0.1165 -0.0547 -0.3697
 2651TIP3    H1 7959   5.181   3.717   4.065 -1.7841  0.6219 -1.0519
 2651TIP3    H2 7960   5.300   3.796   4.013  0.3270 -1.2084  0.7784
 2652TIP3   OH2 7961   3.202   3.352   3.875 -0.1696 -0.4031  0.3913
 2652TIP3    H1 7962   3.144   3.376   3.803  0.7844  1.7278  0.2624
 2652TIP3    H2 7963   3.288   3.343   3.835  0.3426  0.6587  1.2157
 2653TIP3   OH2 7964   1.510   3.366   0.290 -0.2589 -0.0752  0.1522
 2653TIP3    H1 7965   1.511   3.272   0.309  1.0014  0.2451  1.8853
 2653TIP3    H2 7966   1.504   3.408   0.375 -0.7378  1.4409 -0.5963
 2654TIP3   OH2 7967   4.953   3.871   1.632  0.3903 -0.2766  0.4245
 2654TIP3    H1 7968   5.046   3.871   1.611  0.3546  0.1614  0.2543
 2654TIP3    H2 7969   4.927   3.963   1.624  0.5071  0.0602  2.9214
 2655TIP3   OH2 7970   2.208   5.932   3.579  0.0239  0.0507  0.0101
 2655TIP3    H1 7971   2.128   5.880   3.588  0.6738 -1.1426 -0.8350
 2655TIP3    H2 7972   2.277   5.867   3.570  1.2195  1.0509  1.4989
 2656TIP3   OH2 7973   3.292   4.024   4.645 -0.0295  0.2196  0.3376
 2656TIP3    H1 7974   3.227   3.963   4.680  2.0619 -1.0988  2.1980
 2656TIP3    H2 7975   3.349   3.969   4.591  0.7584  0.9278  0.4378
 2657TIP3   OH2 7976   0.794   3.688   0.749  0.3460 -0.6650  0.1031
 2657TIP3    H1 7977   0.852   3.663   0.677  0.3887  2.5495 -1.1155
 2657TIP3    H2 7978   0.800   3.783   0.754 -1.6136 -0.5569  2.7384
 2658TIP3   OH2 7979   1.999   2.431   5.193  0.0584  0.2587  0.5484
 2658TIP3    H1 7980   2.051   2.417   5.114  0.4809 -2.7772  1.2586
 2658TIP3    H2 7981   2.019   2.521   5.219  2.8143  0.1192 -0.7410
 2659TIP3   OH2 7982   6.200   2.579   4.621  0.0946  0.6522 -0.2698
 2659TIP3    H1 7983   6.268   2.642   4.643  1.4472 -0.2403 -1.6764
 2659TIP3    H2 7984   6.226   2.498   4.666 -0.2472  0.4182 -0.4834
 2660TIP3   OH2 7985   2.447   4.210   1.713  0.2589 -0.0740 -0.3715
 2660TIP3    H1 7986   2.354   4.193   1.702  0.3414 -0.9665  0.2627
 2660TIP3    H2 7987   2.452   4.303   1.737 -0.4885 -0.1225 -0.0088
 2661TIP3   OH2 7988   4.351   1.100   4.700 -0.3517 -0.4124  0.3046
 2661TIP3    H1 7989   4.413   1.092   4.628 -0.4548  0.7746  0.0730
 2661TIP3    H2 7990   4.405   1.086   4.779 -0.2532 -1.7727  0.0242
 2662TIP3   OH2 7991   1.377   1.382   2.418  0.1350 -0.1150  0.7872
 2662TIP3    H1 7992   1.421   1.432   2.350 -0.2307 -1.9178 -0.8835
 2662TIP3    H2 7993   1.326   1.447   2.467  1.2538  1.3845  0.0409
 2663TIP3   OH2 7994   0.432   4.970   0.018 -0.1954 -0.0429 -0.2728
 2663TIP3    H1 7995   0.417   4.875   0.016 -0.5780  0.0146 -0.2386
 2663TIP3    H2 7996   0.438   4.991   0.111  0.5528 -0.1283 -0.2899
 2664TIP3   OH2 7997   5.768   1.311   2.581 -0.7763 -0.1582  0.1306
 2664TIP3    H1 7998   5.701   1.246   2.602 -0.3788 -0.3583  0.8242
 2664TIP3    H2 7999   5.729   1.366   2.513 -1.7729 -0.0477  0.7907
 2665TIP3   OH2 8000   4.933   3.001   2.161 -0.1413 -0.5737  0.4602
 2665TIP3    H1 8001   4.966   3.001   2.071  2.3854 -0.6310  1.3369
 2665TIP3    H2 8002   4.899   3.090   2.174  1.6764  0.1981  0.1750
 2666TIP3   OH2 8003   0.561   4.413   4.882 -0.0680 -0.1628 -0.1038
 2666TIP3    H1 8004   0.641   4.403   4.831 -0.4446 -1.1749 -0.5319
 2666TIP3    H2 8005   0.491   4.420   4.817 -0.4485 -0.4948  0.2593
 2667TIP3   OH2 8006   0.957   0.642  -0.021  0.4252  0.0941 -0.1348
 2667TIP3    H1 8007   0.927   0.634   0.069 -1.0635  0.2006 -0.5892
 2667TIP3    H2 8008   1.049   0.613  -0.019  0.4577  0.2378  1.4167
 2668TIP3   OH2 8009   2.904   4.985   2.467 -0.3095  0.7369  0.5658
 2668TIP3    H1 8010   2.924   5.078   2.457  0.5606  0.5645  0.6429
 2668TIP3    H2 8011   2.972   4.952   2.526  0.8005 -0.4436 -1.2934
 2669TIP3   OH2 8012   3.975   4.536   0.861 -0.2924 -0.0378 -0.0609
 2669TIP3    H1 8013   4.065   4.560   0.883 -0.5288  1.5005 -0.5888
 2669TIP3    H2 8014   3.964   4.448   0.895 -0.0975  1.4313  4.4889
 2670TIP3   OH2 8015   1.270   4.799   2.741 -0.2071 -1.1469  0.1549
 2670TIP3    H1 8016   1.276   4.717   2.791  1.3795 -0.8250  0.5512
 2670TIP3    H2 8017   1.253   4.866   2.808 -0.4530 -1.0203 -0.0352
 2671TIP3   OH2 8018   5.832   2.104   1.847 -0.4742  0.3755 -0.0464
 2671TIP3    H1 8019   5.853   2.060   1.765 -1.8295 -0.8660  0.2334
 2671TIP3    H2 8020   5.736   2.111   1.847 -0.4469  1.1062  1.0650
 2672TIP3   OH2 8021   0.593   1.489   1.374 -0.0576 -0.3782 -0.2691
 2672TIP3    H1 8022   0.648   1.566   1.388  1.8239 -1.9907  1.8100
 2672TIP3    H2 8023   0.515   1.505   1.428 -0.4077  0.6811 -1.0453
 2673TIP3   OH2 8024   2.777   1.566   3.999 -0.2879  0.0295 -0.8780
 2673TIP3    H1 8025   2.717   1.499   4.032 -0.6720  0.3754 -0.8658
 2673TIP3    H2 8026   2.818   1.602   4.077  0.4830 -0.7151 -0.9370
 2674TIP3   OH2 8027   2.782   4.503   1.831  0.1053 -0.0372 -0.3018
 2674TIP3    H1 8028   2.690   4.483   1.849  0.6609 -2.1107  0.6321
 2674TIP3    H2 8029   2.806   4.568   1.897 -0.2385 -0.9254  0.7467
 2675TIP3   OH2 8030   4.139   2.587   3.970 -0.0755  0.3881  0.1285
 2675TIP3    H1 8031   4.208   2.622   4.025 -0.6053  2.7741 -0.5853
 2675TIP3    H2 8032   4.058   2.607   4.017 -0.3827 -1.3077  0.3971
 2676TIP3   OH2 8033   2.531   2.566   2.708 -0.2404  0.7357  0.3972
 2676TIP3    H1 8034   2.471   2.575   2.782  0.1690  0.2494  0.7974
 2676TIP3    H2 8035   2.616   2.544   2.748 -0.2986 -0.8431 -0.2591
 2677TIP3   OH2 8036   6.151  -0.009   4.555  0.0144 -0.5284 -0.4045
 2677TIP3    H1 8037   6.161   0.084   4.575 -0.4463 -0.3197 -1.0885
 2677TIP3    H2 8038   6.161  -0.053   4.640 -2.2022  0.3451  0.3908
 2678TIP3   OH2 8039   6.082   2.829   2.310 -0.5137  0.0018  0.4280
 2678TIP3    H1 8040   5.991   2.825   2.280 -0.7754 -0.3319  1.2422
 2678TIP3    H2 8041   6.092   2.918   2.342 -0.0377  0.5696 -1.2040
 2679TIP3   OH2 8042   1.978   4.198   2.421 -0.3003 -0.2954  0.1320
 2679TIP3    H1 8043   1.902   4.255   2.412  0.3064  0.8239  1.7325
 2679TIP3    H2 8044   2.053   4.254   2.400  0.1285 -1.5056 -1.9065
 2680TIP3   OH2 8045   3.136   3.726   2.114 -0.0405  0.1007  0.2473
 2680TIP3    H1 8046   3.193   3.786   2.162  0.5736  0.0870 -0.4375
 2680TIP3    H2 8047   3.073   3.783   2.070 -0.7754  0.0960  1.2643
 2681TIP3   OH2 8048   0.209   0.664   0.680 -0.0473 -0.1279  0.2778
 2681TIP3    H1 8049   0.123   0.688   0.646  0.1062 -0.7175 -0.5624
 2681TIP3    H2 8050   0.218   0.714   0.761 -1.8753 -1.3200  1.2734
 2682TIP3   OH2 8051   1.857   5.860   0.648  0.1957  0.2217  0.4485
 2682TIP3    H1 8052   1.889   5.948   0.666  0.1646  0.4855 -0.7245
 2682TIP3    H2 8053   1.814   5.833   0.729 -1.4506  2.0201  0.2233
 2683TIP3   OH2 8054   0.063   2.751   4.210  0.2780  0.0273 -0.2136
 2683TIP3    H1 8055   0.107   2.813   4.268 -1.5273 -0.4623  1.8069
 2683TIP3    H2 8056   0.070   2.667   4.255 -1.9604 -0.2005 -0.1702
 2684TIP3   OH2 8057   5.373   5.012   3.172  0.0583  0.3006  0.2149
 2684TIP3    H1 8058   5.389   4.918   3.184 -0.2482  0.3761  1.3253
 2684TIP3    H2 8059   5.452   5.054   3.207 -0.9828  0.5397  2.4892
 2685TIP3   OH2 8060   5.722   0.011   4.444 -0.7495  0.0108 -0.4934
 2685TIP3    H1 8061   5.700   0.103   4.426 -2.8640  0.1552  2.1751
 2685TIP3    H2 8062   5.749   0.011   4.536 -2.5359 -2.2377  0.1335
 2686TIP3   OH2 8063   6.270   0.206   5.024  0.2991  0.7058 -0.5283
 2686TIP3    H1 8064   6.259   0.182   4.932  1.4449 -0.7902 -0.3055
 2686TIP3    H2 8065   6.247   0.127   5.072 -0.6323  1.5874  0.5094
 2687TIP3   OH2 8066   5.232   0.295   0.546  0.2200  0.9832  0.1599
 2687TIP3    H1 8067   5.291   0.328   0.613  0.9603 -2.5255  1.4436
 2687TIP3    H2 8068   5.156   0.263   0.595  0.7757 -1.6509 -0.5198
 2688TIP3   OH2 8069   4.578   4.479   0.773 -0.5986 -0.4793  0.3343
 2688TIP3    H1 8070   4.550   4.448   0.687 -1.9884  1.8344 -0.1305
 2688TIP3    H2 8071   4.655   4.427   0.793  1.0753  0.2884 -3.2880
 2689TIP3   OH2 8072   2.560   5.631   3.115 -0.1462  0.0390 -0.7514
 2689TIP3    H1 8073   2.498   5.627   3.043 -0.7980 -1.7322 -0.1449
 2689TIP3    H2 8074   2.522   5.574   3.183  1.6454 -0.3106  0.0168
 2690TIP3   OH2 8075   3.490   5.138   5.123  0.2679  0.0595  0.2363
 2690TIP3    H1 8076   3.489   5.229   5.094  0.4645 -0.3433 -1.0964
 2690TIP3    H2 8077   3.568   5.100   5.081 -0.9749 -1.2539 -0.9819
 2691TIP3   OH2 8078   5.677   1.975   3.629 -0.1089 -0.4843 -0.0976
 2691TIP3    H1 8079   5.602   1.924   3.659 -0.1873  0.4118  1.3334
 2691TIP3    H2 8080   5.750   1.947   3.685 -0.1851  1.0172  0.8054
 2692TIP3   OH2 8081   2.686   4.226   4.920  0.2025  0.1736  0.6159
 2692TIP3    H1 8082   2.653   4.200   5.006 -1.0354  2.1884  0.8236
 2692TIP3    H2 8083   2.649   4.313   4.906  1.3201  0.3711 -1.4691
 2693TIP3   OH2 8084   3.967   1.714   0.257  0.5532  0.0668  0.2301
 2693TIP3    H1 8085   3.879   1.701   0.291 -0.1920  2.6274 -0.4998
 2693TIP3    H2 8086   4.019   1.741   0.333  0.2097  0.4914  0.3185
 2694TIP3   OH2 8087   0.166   2.627   5.150 -0.5610 -0.2644 -0.8460
 2694TIP3    H1 8088   0.079   2.642   5.113 -1.0721  1.1511  0.7793
 2694TIP3    H2 8089   0.204   2.714   5.158  0.4553 -0.7410 -0.2693
 2695TIP3   OH2 8090   2.283   1.538   1.329 -0.2809  0.4182  0.0571
 2695TIP3    H1 8091   2.358   1.507   1.278 -1.3862  0.1685 -1.4692
 2695TIP3    H2 8092   2.289   1.634   1.321 -0.8584  0.3721 -1.2155
 2696TIP3   OH2 8093   5.008   3.961   3.877 -0.8219 -0.0968 -0.2004
 2696TIP3    H1 8094   5.062   4.021   3.826 -0.0430  0.2860  1.0445
 2696TIP3    H2 8095   5.046   3.875   3.861 -0.5142  0.0337 -0.1658
 2697TIP3   OH2 8096   2.172  -0.006   0.682 -0.0943  0.0555  0.1596
 2697TIP3    H1 8097   2.228   0.056   0.729 -1.2881  2.3370 -1.2458
 2697TIP3    H2 8098   2.083   0.021   0.703 -0.6520 -0.5781 -1.2471
 2698TIP3   OH2 8099   4.254   5.581   4.822 -0.1755 -0.0843  0.4192
 2698TIP3    H1 8100   4.213   5.510   4.774 -3.3357  0.9180  1.3822
 2698TIP3    H2 8101   4.275   5.647   4.755  0.2570 -0.7780 -0.1370
 2699TIP3   OH2 8102   0.922   3.427   2.677  0.2368 -0.3169 -0.0183
 2699TIP3    H1 8103   0.841   3.412   2.627  0.7140 -0.6543 -0.7016
 2699TIP3    H2 8104   0.990   3.438   2.611  0.9186 -0.9712  0.5454
 2700TIP3   OH2 8105   1.130   3.498   2.123  0.4741  0.3277 -0.0858
 2700TIP3    H1 8106   1.036   3.497   2.107  0.6245 -0.6406 -1.0419
 2700TIP3    H2 8107   1.140   3.547   2.204 -1.1216 -1.8677  1.5813
 2701TIP3   OH2 8108   5.722   3.136   1.339 -0.2512  0.3061  0.2358
 2701TIP3    H1 8109   5.680   3.050   1.335 -0.3850  0.2612  2.0656
 2701TIP3    H2 8110   5.795   3.125   1.400  0.8286  1.0607 -0.8766
 2702TIP3   OH2 8111   5.793   5.525   4.524  0.3136  0.2263  0.1131
 2702TIP3    H1 8112   5.751   5.515   4.609  0.2037 -1.4194 -0.0953
 2702TIP3    H2 8113   5.733   5.580   4.474 -1.3102 -1.4986  0.0436
 2703TIP3   OH2 8114   2.699   3.982   3.289  0.4681 -0.4548  0.4006
 2703TIP3    H1 8115   2.722   3.921   3.219  1.3453 -0.6671  0.8531
 2703TIP3    H2 8116   2.639   3.933   3.345  0.9472 -0.8101  0.6077
 2704TIP3   OH2 8117   4.343   3.820   1.382  0.1631  0.7023  0.4509
 2704TIP3    H1 8118   4.366   3.843   1.292  2.2542  0.8621  0.9679
 2704TIP3    H2 8119   4.392   3.882   1.436  1.6061 -1.4476  1.7530
 2705TIP3   OH2 8120   1.259   2.249   4.737 -0.3845  0.1022 -0.2250
 2705TIP3    H1 8121   1.313   2.328   4.738 -0.1228 -0.0779  0.1630
 2705TIP3    H2 8122   1.321   2.177   4.748 -0.8030 -0.0334  1.7234
 2706TIP3   OH2 8123   0.597   5.069   3.739 -0.2977  0.0280 -0.2392
 2706TIP3    H1 8124   0.574   5.161   3.735 -0.0708  0.1210  0.5571
 2706TIP3    H2 8125   0.657   5.061   3.813  1.3742 -0.4052 -1.5818
 2707TIP3   OH2 8126   2.492   1.239   2.680  0.3798 -0.4803 -0.1936
 2707TIP3    H1 8127   2.488   1.210   2.771  1.0434 -0.3662 -0.1192
 2707TIP3    H2 8128   2.565   1.301   2.678 -0.5707  0.6793 -0.4974
 2708TIP3   OH2 8129   1.972   2.743   0.875  0.4417  0.8096  0.5734
 2708TIP3    H1 8130   2.005   2.668   0.925 -1.3666  1.3236  2.6830
 2708TIP3    H2 8131   2.029   2.815   0.900  0.4901  0.7367  0.6755
 2709TIP3   OH2 8132   1.642   1.226   2.136  0.0761 -0.2160 -0.6098
 2709TIP3    H1 8133   1.606   1.259   2.054  0.8240 -0.2005 -0.9340
 2709TIP3    H2 8134   1.680   1.303   2.178 -0.0584 -0.2757 -0.3795
 2710TIP3   OH2 8135   5.994   0.912   3.983  0.4650  0.1582 -0.1791
 2710TIP3    H1 8136   5.955   0.833   4.021  0.2112  0.2349 -0.2728
 2710TIP3    H2 8137   5.938   0.931   3.908  0.9667  0.0013 -0.5999
 2711TIP3   OH2 8138   4.797   2.301   3.271  0.0765  0.3067 -0.0381
 2711TIP3    H1 8139   4.869   2.318   3.332  0.0703 -0.6259  0.2507
 2711TIP3    H2 8140   4.778   2.386   3.232  0.1171  0.9177  1.2258
 2712TIP3   OH2 8141   0.867   2.141   3.515  0.1736  0.3851  0.0500
 2712TIP3    H1 8142   0.948   2.100   3.487 -1.0664 -1.4403 -1.0615
 2712TIP3    H2 8143   0.879   2.158   3.609  1.2942 -1.1529  0.2125
 2713TIP3   OH2 8144   1.467   3.429   2.297  0.4320 -0.0070 -0.0774
 2713TIP3    H1 8145   1.413   3.498   2.335  0.7191 -0.2437  0.7817
 2713TIP3    H2 8146   1.502   3.467   2.216 -1.2374  0.0473 -0.7997
 2714TIP3   OH2 8147   2.331   0.644   2.661 -0.2570  0.0961 -0.1557
 2714TIP3    H1 8148   2.278   0.565   2.653 -0.5471  0.3071 -0.3674
 2714TIP3    H2 8149   2.413   0.615   2.702 -1.4479  0.1445  2.4781
 2715TIP3   OH2 8150   4.503   5.770   4.887  0.0569 -0.3013 -0.2441
 2715TIP3    H1 8151   4.467   5.852   4.853  1.4081  1.2691  1.8363
 2715TIP3    H2 8152   4.460   5.757   4.971  1.0405 -0.8139  0.2043
 2716TIP3   OH2 8153   3.457   5.523   2.296 -0.0111  0.2500 -0.3259
 2716TIP3    H1 8154   3.498   5.527   2.383  2.7604 -0.2939 -1.5085
 2716TIP3    H2 8155   3.421   5.434   2.292 -0.9027  0.5551  0.5566
 2717TIP3   OH2 8156   0.990   0.526   4.536 -0.0108 -0.4653 -0.3709
 2717TIP3    H1 8157   0.897   0.540   4.520 -0.5648 -0.9794  1.9922
 2717TIP3    H2 8158   1.021   0.610   4.570  0.5928 -0.0807 -1.7940
 2718TIP3   OH2 8159   3.280   3.913   0.960 -0.5900  0.1680  0.2401
 2718TIP3    H1 8160   3.227   3.987   0.989 -0.3244  0.4783 -0.0663
 2718TIP3    H2 8161   3.252   3.897   0.870 -0.2809  0.2295  0.1325
 2719TIP3   OH2 8162   4.455   2.635   1.491  0.1103  0.3100 -0.2056
 2719TIP3    H1 8163   4.430   2.558   1.439  1.1407 -0.0633 -0.1594
 2719TIP3    H2 8164   4.550   2.634   1.492  0.1316  1.4235  0.0610
 2720TIP3   OH2 8165   5.097   4.171   3.685  0.0742  0.3082  0.0825
 2720TIP3    H1 8166   5.144   4.199   3.607 -0.1071 -2.0684 -0.9819
 2720TIP3    H2 8167   5.042   4.245   3.709  0.6396  1.3278 -1.6358
 2721TIP3   OH2 8168   5.429   4.349   0.152  0.3922 -0.3317  0.0838
 2721TIP3    H1 8169   5.367   4.392   0.212  2.4898  0.2410  1.9932
 2721TIP3    H2 8170   5.488   4.419   0.125  1.0824 -1.1304 -0.5071
 2722TIP3   OH2 8171   5.944   5.392   0.468 -0.3013  0.2100  0.6614
 2722TIP3    H1 8172   5.977   5.473   0.507  0.0930  0.4638 -0.1853
 2722TIP3    H2 8173   5.854   5.414   0.442  0.2395  0.8223 -0.7990
 2723TIP3   OH2 8174   0.436   2.663   1.570 -0.2763 -0.2812 -0.1869
 2723TIP3    H1 8175   0.369   2.642   1.505 -1.2049  1.2046  0.2655
 2723TIP3    H2 8176   0.407   2.744   1.611  0.9164 -0.5217  1.2458
 2724TIP3   OH2 8177   1.556   0.790   1.815 -0.5869 -0.6679  0.1190
 2724TIP3    H1 8178   1.528   0.881   1.806  1.7906  0.0301 -1.3790
 2724TIP3    H2 8179   1.545   0.770   1.908 -2.5937  0.5904  0.2182
 2725TIP3   OH2 8180   5.016   1.044   3.997 -0.4065  0.0511 -0.8893
 2725TIP3    H1 8181   5.010   0.972   3.934  0.6585 -1.1077  0.2731
 2725TIP3    H2 8182   5.017   1.123   3.943 -0.3557 -0.8582 -2.2742
 2726TIP3   OH2 8183   2.987   2.897   4.960  0.6545 -0.0415  0.0944
 2726TIP3    H1 8184   2.915   2.929   5.015  1.0333  0.1213  0.5084
 2726TIP3    H2 8185   3.019   2.975   4.915 -1.1732 -0.5222 -2.2268
 2727TIP3   OH2 8186   4.870   5.109   4.262  0.0633 -0.9824  0.3098
 2727TIP3    H1 8187   4.885   5.148   4.176 -0.8716 -3.4230 -1.0582
 2727TIP3    H2 8188   4.787   5.062   4.254  0.0579 -1.4751  2.4871
 2728TIP3   OH2 8189   3.042   2.500   2.507 -0.0447  0.0555  0.2119
 2728TIP3    H1 8190   3.039   2.561   2.581 -1.6596 -0.8444  0.9469
 2728TIP3    H2 8191   3.119   2.445   2.524  2.2236  2.5961 -1.1298
 2729TIP3   OH2 8192   1.147   1.932   1.514  0.3399 -0.4058 -0.3104
 2729TIP3    H1 8193   1.234   1.917   1.477  0.3496  0.1576 -0.5411
 2729TIP3    H2 8194   1.123   1.850   1.555  1.3186 -0.3252  0.4539
 2730TIP3   OH2 8195   4.174   5.080   4.110  0.2129  0.0069 -0.3448
 2730TIP3    H1 8196   4.172   5.064   4.205 -0.5648  2.2540  0.0826
 2730TIP3    H2 8197   4.095   5.132   4.093 -0.7828 -2.0828 -2.6148
 2731TIP3   OH2 8198   3.304   0.624   3.779 -0.1584 -0.6248 -0.1599
 2731TIP3    H1 8199   3.277   0.578   3.858 -0.0391 -0.2577  0.0966
 2731TIP3    H2 8200   3.276   0.567   3.707  3.0069 -2.7908  0.1587
 2732TIP3   OH2 8201   3.322   1.543   3.041 -0.2041 -0.5518  0.0228
 2732TIP3    H1 8202   3.353   1.456   3.067  3.1072  0.3347 -0.4655
 2732TIP3    H2 8203   3.367   1.561   2.958 -0.0323  1.9799  0.5713
 2733TIP3   OH2 8204   1.079   5.665   1.145  0.1936 -0.7830 -0.2958
 2733TIP3    H1 8205   1.131   5.585   1.155  1.1453 -0.1189  0.1821
 2733TIP3    H2 8206   1.130   5.719   1.084  0.5565  0.2656  0.9003
 2734TIP3   OH2 8207   6.129   5.293   4.816  0.5741 -0.6137  0.6018
 2734TIP3    H1 8208   6.037   5.266   4.824  0.9583 -2.1322  0.0872
 2734TIP3    H2 8209   6.166   5.278   4.903 -0.1600  2.1760  1.5110
 2735TIP3   OH2 8210   4.637   2.592   3.116 -0.1473 -0.0295  0.4233
 2735TIP3    H1 8211   4.647   2.542   3.035  2.0047 -1.4984  1.5025
 2735TIP3    H2 8212   4.592   2.532   3.175  0.8969 -0.0513  1.2044
 2736TIP3   OH2 8213   2.393   3.645   2.875 -0.0946 -0.1378  0.1944
 2736TIP3    H1 8214   2.367   3.712   2.939  2.3284  2.0435 -0.9413
 2736TIP3    H2 8215   2.485   3.629   2.894  0.9864  1.2939 -3.2630
 2737TIP3   OH2 8216   5.896   4.382   1.878  0.9345  0.0171 -0.7811
 2737TIP3    H1 8217   5.873   4.362   1.787  1.4238 -0.4618 -0.8023
 2737TIP3    H2 8218   5.900   4.297   1.921 -0.5271  0.3092  0.0063
 2738TIP3   OH2 8219   4.129   2.157   2.696 -0.0093 -0.2546  0.7226
 2738TIP3    H1 8220   4.112   2.170   2.603  1.3442 -0.6577  0.3942
 2738TIP3    H2 8221   4.047   2.122   2.731 -0.6303  0.1875 -0.2519
 2739TIP3   OH2 8222   6.027   3.288   4.140 -0.5732  0.1339  0.4274
 2739TIP3    H1 8223   6.052   3.219   4.079  1.5515  0.2448  1.0888
 2739TIP3    H2 8224   5.947   3.325   4.103 -2.1894 -3.0498  0.3931
 2740TIP3   OH2 8225   3.901   4.248   0.906  0.3709  0.3054  0.5561
 2740TIP3    H1 8226   3.987   4.221   0.872  0.1166 -1.5015  1.2533
 2740TIP3    H2 8227   3.840   4.225   0.836  0.4001  1.3543  0.1672
 2741TIP3   OH2 8228   6.009   5.679   0.708 -0.0506 -0.3971 -0.4706
 2741TIP3    H1 8229   6.089   5.723   0.736  0.7047 -0.9956 -1.6025
 2741TIP3    H2 8230   6.020   5.589   0.739 -0.0678 -0.5960 -1.0427
 2742TIP3   OH2 8231   4.309   3.881   3.517 -0.1042  0.1652 -0.1787
 2742TIP3    H1 8232   4.334   3.800   3.562  2.8589  0.7314 -0.6450
 2742TIP3    H2 8233   4.347   3.873   3.430  1.8751  2.7394  0.3188
 2743TIP3   OH2 8234   1.719   2.381   0.923  0.0404  0.2843 -0.0829
 2743TIP3    H1 8235   1.737   2.441   0.995  0.4905 -2.0714  1.8679
 2743TIP3    H2 8236   1.635   2.341   0.946 -0.7060  0.7476 -1.8131
 2744TIP3   OH2 8237   5.321   1.640   1.519  0.0429  0.5621  0.0689
 2744TIP3    H1 8238   5.286   1.684   1.441  1.3894 -1.2258 -1.6663
 2744TIP3    H2 8239   5.409   1.676   1.529  0.5748 -0.5462 -0.4301
 2745TIP3   OH2 8240   1.497   1.418   4.271  0.5407 -0.2069 -0.3394
 2745TIP3    H1 8241   1.406   1.444   4.254  0.8496  0.8591 -0.4103
 2745TIP3    H2 8242   1.519   1.360   4.198  0.9957  2.2472 -2.2746
 2746TIP3   OH2 8243   5.668   0.208   3.536 -0.0720 -0.5691 -0.9287
 2746TIP3    H1 8244   5.731   0.142   3.566  0.3366  0.3151  0.2217
 2746TIP3    H2 8245   5.674   0.204   3.440  1.4541 -0.7819 -0.8581
 2747TIP3   OH2 8246   3.426   0.606   0.977  0.6357  0.0216 -0.2152
 2747TIP3    H1 8247   3.355   0.660   1.012  0.2369 -1.2708  1.0611
 2747TIP3    H2 8248   3.382   0.542   0.921  0.8257 -0.4715  0.1870
 2748TIP3   OH2 8249   2.757   0.621   3.053  0.1955  0.5244  0.3865
 2748TIP3    H1 8250   2.730   0.712   3.052 -1.3012  0.1205 -0.7865
 2748TIP3    H2 8251   2.818   0.613   2.979 -1.4040  0.1611 -0.9659
 2749TIP3   OH2 8252   1.402   3.450   1.035 -0.6589 -0.0286 -0.7620
 2749TIP3    H1 8253   1.464   3.425   0.966 -1.0848  0.6450 -1.4103
 2749TIP3    H2 8254   1.346   3.374   1.046 -0.0583 -0.4470 -0.5557
 2750TIP3   OH2 8255   0.452   4.376   0.620 -1.1509 -0.7207 -0.3721
 2750TIP3    H1 8256   0.470   4.455   0.671  2.3036 -1.6250  0.0343
 2750TIP3    H2 8257   0.370   4.343   0.655 -0.8431  0.7544  1.9408
 2751TIP3   OH2 8258   5.546   5.443   1.340  0.8214 -0.0190  0.1732
 2751TIP3    H1 8259   5.639   5.449   1.362  1.2433  0.5985 -1.6184
 2751TIP3    H2 8260   5.538   5.488   1.256 -0.7032 -1.8995 -0.7735
 2752TIP3   OH2 8261   1.730   1.715   3.599 -0.3743  0.7561  0.1466
 2752TIP3    H1 8262   1.780   1.796   3.600  3.0657 -1.1834  0.1434
 2752TIP3    H2 8263   1.677   1.719   3.679  1.2374  2.1577  1.2150
 2753TIP3   OH2 8264   4.476   2.588   2.554 -0.2119  0.6141 -0.1858
 2753TIP3    H1 8265   4.383   2.607   2.565 -0.1930  0.6711 -0.1287
 2753TIP3    H2 8266   4.504   2.644   2.481 -0.8279 -1.2647 -1.9840
 2754TIP3   OH2 8267   0.508   1.836   1.571 -1.0352 -0.2508  0.4170
 2754TIP3    H1 8268   0.419   1.856   1.542 -1.2493  0.0766  1.2837
 2754TIP3    H2 8269   0.500   1.818   1.664 -0.6562 -3.1449 -0.0169
 2755TIP3   OH2 8270   3.947   1.542   2.662 -0.7662 -0.1189  0.0961
 2755TIP3    H1 8271   4.039   1.549   2.639 -0.6571  2.2769  0.9338
 2755TIP3    H2 8272   3.900   1.577   2.585 -0.7286  1.9981  0.9702
 2756TIP3   OH2 8273   2.531   0.299   0.115  0.0136  0.7756  0.2220
 2756TIP3    H1 8274   2.540   0.369   0.050  2.3263  0.4615  0.1031
 2756TIP3    H2 8275   2.548   0.342   0.199 -0.8928  0.7718  0.4212
 2757TIP3   OH2 8276   4.688   3.171   2.898  0.4805 -0.6212  0.1273
 2757TIP3    H1 8277   4.782   3.186   2.891  0.4089 -0.0631  0.2580
 2757TIP3    H2 8278   4.671   3.094   2.843  1.0055 -0.7040  0.0793
 2758TIP3   OH2 8279   6.215   1.362   1.649 -0.2653  0.1920  0.0162
 2758TIP3    H1 8280   6.306   1.346   1.626  0.4458  2.7660  0.7110
 2758TIP3    H2 8281   6.218   1.385   1.742 -1.5550  0.7264 -0.0587
 2759TIP3   OH2 8282   0.453   2.595   3.452 -0.2318  0.2826 -0.2379
 2759TIP3    H1 8283   0.548   2.601   3.451 -0.2995  2.1922 -2.1155
 2759TIP3    H2 8284   0.434   2.502   3.459  1.7524 -0.1212  0.1917
 2760TIP3   OH2 8285   4.377   4.332   5.082  0.5430 -0.3631  0.5741
 2760TIP3    H1 8286   4.409   4.247   5.053  0.3249 -0.4758  0.6549
 2760TIP3    H2 8287   4.438   4.395   5.045 -1.2003 -0.2625 -2.4215
 2761TIP3   OH2 8288   1.793   0.656   2.502 -0.2900  0.2752  0.2024
 2761TIP3    H1 8289   1.757   0.723   2.444 -1.5138 -1.2266 -0.8638
 2761TIP3    H2 8290   1.880   0.638   2.467 -0.2102  0.8224  0.1080
 2762TIP3   OH2 8291   3.601   3.384   1.804 -0.4801  0.7090 -0.3639
 2762TIP3    H1 8292   3.608   3.324   1.878  1.2598  1.5068  0.1942
 2762TIP3    H2 8293   3.516   3.426   1.815 -1.3267 -0.9494 -0.2508
 2763TIP3   OH2 8294   1.750   4.175   3.106  0.1600 -0.4918 -0.0258
 2763TIP3    H1 8295   1.823   4.196   3.165 -0.7463 -0.6100  1.1679
 2763TIP3    H2 8296   1.743   4.252   3.049 -0.1893  0.5151  1.3150
 2764TIP3   OH2 8297   2.678   2.085   0.262 -0.0363 -0.1523  0.2045
 2764TIP3    H1 8298   2.672   1.991   0.246 -1.4362 -0.0151 -0.2031
 2764TIP3    H2 8299   2.765   2.109   0.231  0.4697 -1.3566  0.6149
 2765TIP3   OH2 8300   1.717   0.774   1.562  0.4906  0.1438  0.3444
 2765TIP3    H1 8301   1.691   0.843   1.502  0.4205 -0.1640  0.0183
 2765TIP3    H2 8302   1.695   0.808   1.649  0.2816  0.4499  0.1729
 2766TIP3   OH2 8303   6.065   0.670   0.314  0.1879 -0.3062  0.1783
 2766TIP3    H1 8304   6.155   0.655   0.288  0.7228 -0.3490  1.9429
 2766TIP3    H2 8305   6.022   0.585   0.304  1.1064 -1.0457  2.1120
 2767TIP3   OH2 8306   3.380   1.823   2.571 -0.4369  0.1607  0.0275
 2767TIP3    H1 8307   3.340   1.802   2.655  2.2153 -2.1341  0.8849
 2767TIP3    H2 8308   3.464   1.864   2.594 -0.0075  0.2412 -1.5205
 2768TIP3   OH2 8309   5.713   0.641   1.853 -0.4507 -0.0549 -0.1495
 2768TIP3    H1 8310   5.642   0.640   1.916  0.9978  2.5377  1.7233
 2768TIP3    H2 8311   5.674   0.679   1.774 -1.7429 -1.1895 -0.0859
 2769TIP3   OH2 8312   0.153   1.922   4.458 -0.8971 -0.0020 -0.1053
 2769TIP3    H1 8313   0.084   1.948   4.519 -1.0482 -0.0839 -0.2405
 2769TIP3    H2 8314   0.120   1.842   4.416  0.1352 -1.2136  1.2885
 2770TIP3   OH2 8315   3.076   0.758   2.525 -0.2695 -0.2751 -0.1181
 2770TIP3    H1 8316   3.035   0.837   2.561 -2.3108 -1.2150 -0.2378
 2770TIP3    H2 8317   3.019   0.732   2.453  0.5933 -1.6500 -0.3340
 2771TIP3   OH2 8318   3.679   5.774   4.751 -0.0578 -0.9188 -0.7123
 2771TIP3    H1 8319   3.763   5.816   4.733 -0.3640  0.3010  0.5137
 2771TIP3    H2 8320   3.614   5.833   4.713 -0.4636 -0.6646  0.3495
 2772TIP3   OH2 8321   1.914   3.979   5.044 -0.3913  0.2507 -0.1254
 2772TIP3    H1 8322   1.950   3.927   5.116  0.2804  1.4610  0.4558
 2772TIP3    H2 8323   1.909   3.918   4.970  2.3131 -0.1764 -0.0596
 2773TIP3   OH2 8324   3.581   1.327   0.311  0.5883  0.2618 -0.4293
 2773TIP3    H1 8325   3.507   1.278   0.276  0.7036  0.9911 -1.7866
 2773TIP3    H2 8326   3.560   1.340   0.404  1.2088 -3.4787  0.3747
 2774TIP3   OH2 8327   3.066   3.215   5.136  0.1198 -0.6037  0.7651
 2774TIP3    H1 8328   3.145   3.190   5.086  0.7446 -0.1086  1.4884
 2774TIP3    H2 8329   3.019   3.273   5.077  1.2365  0.5900  0.9937
 2775TIP3   OH2 8330   5.281   2.854   1.206 -0.1070 -0.0225  0.5074
 2775TIP3    H1 8331   5.258   2.876   1.115  0.5182  3.3634  1.0336
 2775TIP3    H2 8332   5.199   2.863   1.254 -0.0894 -0.0549  0.5431
 2776TIP3   OH2 8333   5.012   0.293   3.478  0.1009  0.1491  0.3760
 2776TIP3    H1 8334   5.061   0.254   3.406  0.9387 -0.2803  1.1424
 2776TIP3    H2 8335   4.935   0.238   3.489 -1.2633  1.5404 -1.6437
 2777TIP3   OH2 8336   3.092   1.015   4.508  0.4127  0.0503  0.0413
 2777TIP3    H1 8337   3.176   0.971   4.494  0.9283  1.1452 -0.4781
 2777TIP3    H2 8338   3.112   1.086   4.569  0.0898  0.9325 -0.8537
 2778TIP3   OH2 8339   4.533   4.395   1.458  0.3066  0.1998 -0.1387
 2778TIP3    H1 8340   4.477   4.413   1.534 -0.8410 -0.8782 -0.7039
 2778TIP3    H2 8341   4.515   4.467   1.398 -1.7323 -0.9260 -0.9823
 2779TIP3   OH2 8342   1.967   0.055   1.579  0.2466  0.1575 -0.0336
 2779TIP3    H1 8343   1.876   0.055   1.606 -0.1645 -0.7430 -1.3520
 2779TIP3    H2 8344   2.001   0.139   1.609 -1.7927  1.8243 -2.0559
 2780TIP3   OH2 8345   5.681   2.962   0.967  0.4209  0.2545 -0.4308
 2780TIP3    H1 8346   5.611   2.902   0.943  0.3508  0.7712 -1.5611
 2780TIP3    H2 8347   5.762   2.912   0.953  0.3228 -0.0290 -0.0169
 2781TIP3   OH2 8348   4.464   1.771   2.511 -0.4736  0.6297  0.4142
 2781TIP3    H1 8349   4.556   1.753   2.496 -0.6896 -0.5975  0.5152
 2781TIP3    H2 8350   4.464   1.844   2.574  0.4188  0.7376  0.2974
 2782TIP3   OH2 8351   6.222   4.273   2.975  0.2985  0.0044 -0.3303
 2782TIP3    H1 8352   6.178   4.294   2.893 -0.6543  0.4321  0.2750
 2782TIP3    H2 8353   6.168   4.205   3.015  1.1610 -0.7387 -0.3845
 2783TIP3   OH2 8354   1.675   5.960   3.073  0.2194  0.1644 -0.5310
 2783TIP3    H1 8355   1.639   5.950   2.985 -0.3440  1.0314 -0.4154
 2783TIP3    H2 8356   1.682   5.871   3.107 -0.1845 -0.1303 -1.2063
 2784TIP3   OH2 8357   3.689   5.099   3.441  0.4759 -0.3407  0.1193
 2784TIP3    H1 8358   3.744   5.116   3.517  1.9536  1.9271 -1.2976
 2784TIP3    H2 8359   3.751   5.076   3.371 -0.6716 -0.8911 -0.7533
 2785TIP3   OH2 8360   3.359   3.434   3.643  0.4692  0.7785 -0.1875
 2785TIP3    H1 8361   3.393   3.521   3.661  1.5095  0.4427 -0.4595
 2785TIP3    H2 8362   3.436   3.381   3.626 -0.2345  0.2292 -1.9181
 2786TIP3   OH2 8363   3.742   1.513   1.012  0.0278 -0.3002  0.2620
 2786TIP3    H1 8364   3.753   1.431   0.963 -2.2323 -0.5769  0.0720
 2786TIP3    H2 8365   3.791   1.500   1.093 -0.2890 -1.8568  0.2334
 2787TIP3   OH2 8366   1.319   2.211   4.204  0.8219  0.0891 -0.1412
 2787TIP3    H1 8367   1.323   2.149   4.277  2.4668 -1.6778 -1.6423
 2787TIP3    H2 8368   1.409   2.217   4.173  0.2506  1.2650 -1.6587
 2788TIP3   OH2 8369   4.291   1.895   2.858  0.1625 -0.2886  0.3885
 2788TIP3    H1 8370   4.209   1.853   2.885  0.0985  0.5549  1.5640
 2788TIP3    H2 8371   4.278   1.914   2.765 -1.4435  0.8506  0.8117
 2789TIP3   OH2 8372   4.941   2.551   3.196 -0.3064 -0.7540 -0.1263
 2789TIP3    H1 8373   4.848   2.570   3.194 -0.4330 -1.4025 -1.1008
 2789TIP3    H2 8374   4.979   2.621   3.248 -1.2508 -0.1171 -0.2744
 2790TIP3   OH2 8375   0.023   4.107   3.708 -0.1309  0.0896 -0.1694
 2790TIP3    H1 8376   0.007   4.196   3.676 -0.6325 -0.2059 -0.7558
 2790TIP3    H2 8377   0.092   4.073   3.650  0.1444  0.1296  0.1289
 2791TIP3   OH2 8378   2.504   2.327   2.279 -0.4712 -0.6874  0.0278
 2791TIP3    H1 8379   2.561   2.344   2.354  0.4170  0.2390 -0.8291
 2791TIP3    H2 8380   2.450   2.406   2.271 -0.4117 -0.6928 -0.4418
 2792TIP3   OH2 8381   4.507   2.189   1.339  0.6292  0.0457  0.4575
 2792TIP3    H1 8382   4.425   2.142   1.355  1.3395 -0.5175  2.8399
 2792TIP3    H2 8383   4.482   2.281   1.332 -0.4130 -0.3148 -1.0833
 2793TIP3   OH2 8384   4.540   3.074   4.732  0.1692  0.1711 -0.4755
 2793TIP3    H1 8385   4.624   3.119   4.735  0.5847 -0.6496  1.1008
 2793TIP3    H2 8386   4.540   3.028   4.648  1.6024 -0.3498 -0.2153
 2794TIP3   OH2 8387   0.930   1.876   3.800 -0.0950  0.0531 -0.0306
 2794TIP3    H1 8388   0.991   1.809   3.772  0.3947  1.0998 -1.6110
 2794TIP3    H2 8389   0.850   1.859   3.750 -1.2403 -1.4018  2.1307
 2795TIP3   OH2 8390   4.156   1.867   4.831 -0.3586 -0.0779  0.0197
 2795TIP3    H1 8391   4.230   1.918   4.862 -0.4533 -0.4288  0.8687
 2795TIP3    H2 8392   4.194   1.785   4.800 -0.4064 -0.3391  0.6447
 2796TIP3   OH2 8393   4.727   1.747   2.923  0.0005  0.3919  0.0557
 2796TIP3    H1 8394   4.767   1.716   3.005  1.0167  0.6543 -0.3263
 2796TIP3    H2 8395   4.761   1.835   2.911  0.8101 -0.0584 -1.2330
 2797TIP3   OH2 8396   3.884   3.363   1.333  0.0600  0.2601 -0.1387
 2797TIP3    H1 8397   3.819   3.433   1.340 -1.2176 -0.9568  0.8732
 2797TIP3    H2 8398   3.930   3.365   1.417  0.0050 -0.1052 -0.0992
 2798TIP3   OH2 8399   1.398   3.403   1.317  0.1253 -0.4173 -0.2651
 2798TIP3    H1 8400   1.443   3.477   1.275 -0.5510  0.9584  1.3075
 2798TIP3    H2 8401   1.318   3.391   1.266  0.2184 -0.0220 -0.5059
 2799TIP3   OH2 8402   3.206   2.409   1.342  0.6572 -0.0398 -0.4294
 2799TIP3    H1 8403   3.131   2.468   1.334 -0.0312 -0.9409 -0.7980
 2799TIP3    H2 8404   3.273   2.461   1.386 -0.0038  0.9444 -0.5561
 2800TIP3   OH2 8405   0.405   2.957   4.669  0.0176 -0.1160 -0.3282
 2800TIP3    H1 8406   0.431   2.967   4.760  0.3523 -0.1295 -0.4221
 2800TIP3    H2 8407   0.416   2.863   4.651  2.7565  0.2688 -1.2098
 2801TIP3   OH2 8408   4.130   1.552   1.786 -0.2416  0.0747 -0.2981
 2801TIP3    H1 8409   4.161   1.526   1.699  0.4007  0.0499 -0.0729
 2801TIP3    H2 8410   4.206   1.594   1.826 -1.4680  3.1983 -0.9682
 2802TIP3   OH2 8411   0.582   2.961   4.877  0.1589  0.0203  0.0684
 2802TIP3    H1 8412   0.672   2.937   4.898  0.5097  0.4245 -0.8875
 2802TIP3    H2 8413   0.581   3.057   4.885  0.7207  0.4038 -2.9505
 2803TIP3   OH2 8414   4.255   3.962   4.030  0.5427 -0.2348  0.1753
 2803TIP3    H1 8415   4.311   4.038   4.042  0.8011 -0.5988  1.5423
 2803TIP3    H2 8416   4.201   3.960   4.109 -0.3443 -0.7469 -0.4331
 2804TIP3   OH2 8417   5.458   2.928   2.692 -0.7132  0.2493 -0.3960
 2804TIP3    H1 8418   5.392   2.988   2.727 -0.1513  0.5979  0.0879
 2804TIP3    H2 8419   5.515   2.984   2.638 -0.2598  0.1376 -0.0408
 2805TIP3   OH2 8420   5.369   5.781   3.053 -0.1552  0.4268  0.6096
 2805TIP3    H1 8421   5.377   5.854   2.992 -0.1965 -0.9327 -1.0984
 2805TIP3    H2 8422   5.446   5.787   3.109  0.8832  0.6628 -0.7959
 2806TIP3   OH2 8423   1.220   3.671   1.474 -0.0751  0.0456  0.6658
 2806TIP3    H1 8424   1.222   3.712   1.388 -0.4312 -3.1573 -1.0269
 2806TIP3    H2 8425   1.131   3.688   1.507  0.0373  1.2141  0.4055
 2807TIP3   OH2 8426   0.550   5.088   2.055 -0.2011 -0.2598 -0.2877
 2807TIP3    H1 8427   0.491   5.124   2.122 -0.2508  0.0138 -0.4772
 2807TIP3    H2 8428   0.626   5.056   2.105 -0.3669 -0.3211 -0.0737
 2808TIP3   OH2 8429   0.793   1.251   2.939 -0.1346 -0.8303  0.4813
 2808TIP3    H1 8430   0.795   1.168   2.891 -0.2668 -1.0518  0.8573
 2808TIP3    H2 8431   0.736   1.234   3.014  0.7592 -0.7484  1.1986
 2809TIP3   OH2 8432   1.126   0.337   4.044  0.1085 -0.4589 -0.0782
 2809TIP3    H1 8433   1.215   0.366   4.024 -0.3705  1.3314  0.1854
 2809TIP3    H2 8434   1.124   0.331   4.139 -0.4242  0.9308  0.0231
 2810TIP3   OH2 8435   2.080   5.587   4.595  0.4704 -0.0721 -0.2497
 2810TIP3    H1 8436   2.009   5.524   4.600  0.0297  0.4082 -0.3200
 2810TIP3    H2 8437   2.054   5.658   4.655 -0.0422  0.9986 -1.6773
 2811TIP3   OH2 8438   2.917   2.762   0.898  0.0189  0.2134  0.1795
 2811TIP3    H1 8439   2.926   2.857   0.899 -2.9482  0.6365 -1.3639
 2811TIP3    H2 8440   2.934   2.737   0.807 -4.7427  0.1630 -0.9388
 2812TIP3   OH2 8441   0.680   1.712   2.179  0.1067 -0.4899  0.3634
 2812TIP3    H1 8442   0.608   1.718   2.116  0.7004  0.5766 -0.2339
 2812TIP3    H2 8443   0.754   1.678   2.129  0.7056  0.7786  0.3479
 2813TIP3   OH2 8444   1.411   5.207   4.698  0.3971 -0.4409 -0.1908
 2813TIP3    H1 8445   1.404   5.157   4.617  0.0615 -0.3178 -0.2422
 2813TIP3    H2 8446   1.471   5.157   4.753  2.3347  0.5397 -1.3058
 2814TIP3   OH2 8447   1.499   0.979   4.604 -0.2301  0.6510 -0.2013
 2814TIP3    H1 8448   1.444   0.977   4.682 -0.2835  1.4738 -0.2090
 2814TIP3    H2 8449   1.437   0.974   4.531 -0.2481  0.8253 -0.1990
 2815TIP3   OH2 8450   2.297   1.605   3.930 -0.3721  0.6182  0.1125
 2815TIP3    H1 8451   2.346   1.654   3.864 -0.0685  1.0951  0.6877
 2815TIP3    H2 8452   2.340   1.626   4.012 -0.0265 -0.8697  0.3466
 2816TIP3   OH2 8453   1.178   1.592   4.922  0.3985 -0.2312  0.7834
 2816TIP3    H1 8454   1.109   1.658   4.918  0.7020  0.0936  0.8731
 2816TIP3    H2 8455   1.190   1.564   4.831  1.3378  0.9604  0.5088
 2817TIP3   OH2 8456   3.043   5.639   0.727 -0.3829 -0.1491 -0.4319
 2817TIP3    H1 8457   3.070   5.682   0.808 -2.4027 -1.1470  0.8371
 2817TIP3    H2 8458   2.956   5.674   0.709  0.2377  0.4697 -2.5327
 2818TIP3   OH2 8459   0.107   0.256   2.549 -0.0912 -0.1313  0.3841
 2818TIP3    H1 8460   0.143   0.343   2.559  0.6823 -0.2572 -1.0008
 2818TIP3    H2 8461   0.076   0.253   2.458  0.9872 -1.6484  0.0069
 2819TIP3   OH2 8462   2.102   1.053   2.857 -0.5154  0.1388  0.4013
 2819TIP3    H1 8463   2.042   1.126   2.871 -1.0179 -0.0621 -0.6096
 2819TIP3    H2 8464   2.156   1.081   2.783 -1.7364 -1.1131 -1.0154
 2820TIP3   OH2 8465   4.267   1.538   3.415  0.1953  0.0517 -0.2245
 2820TIP3    H1 8466   4.227   1.452   3.405  1.0239 -0.2002 -1.6854
 2820TIP3    H2 8467   4.198   1.600   3.391  0.1617 -0.3063 -1.1026
 2821TIP3   OH2 8468   6.267   2.129   1.529 -0.0544 -0.0777  0.1080
 2821TIP3    H1 8469   6.284   2.068   1.601  2.0640  1.2369  0.8258
 2821TIP3    H2 8470   6.180   2.164   1.547 -0.6876 -1.7742  0.4935
 2822TIP3   OH2 8471   5.985   2.696   1.755 -0.5628 -0.2684  0.2929
 2822TIP3    H1 8472   6.012   2.721   1.667 -0.3503 -0.9409  0.1653
 2822TIP3    H2 8473   5.893   2.722   1.760 -0.1610  1.2270  0.4336
 2823TIP3   OH2 8474   4.749   2.193   4.570 -0.5141  0.0924  0.8422
 2823TIP3    H1 8475   4.769   2.234   4.486 -0.4993  1.3946  1.4578
 2823TIP3    H2 8476   4.671   2.238   4.601 -1.9905 -2.0517  0.4249
 2824TIP3   OH2 8477   3.387   1.204   4.494 -0.1180  0.3244  0.5853
 2824TIP3    H1 8478   3.431   1.198   4.410  1.6826 -0.4792  1.5250
 2824TIP3    H2 8479   3.446   1.256   4.549 -0.9033  0.2242  1.5656
 2825TIP3   OH2 8480   5.228   0.575   3.769  0.2386  0.2712 -0.4098
 2825TIP3    H1 8481   5.242   0.526   3.688 -0.8903  1.6632 -1.5148
 2825TIP3    H2 8482   5.172   0.519   3.822 -0.8185  0.2429 -1.5303
 2826TIP3   OH2 8483   0.983   5.705   4.717  0.4270  0.1209  0.0170
 2826TIP3    H1 8484   1.051   5.747   4.770  0.0018  0.5444  0.2270
 2826TIP3    H2 8485   0.985   5.752   4.634  0.9233 -0.3818 -0.2668
 2827TIP3   OH2 8486   5.198   2.133   0.993  0.0483  0.2988 -0.0072
 2827TIP3    H1 8487   5.270   2.087   1.037  1.5551  3.1406  0.7024
 2827TIP3    H2 8488   5.122   2.117   1.049  0.3999 -1.5418  0.0177
 2828TIP3   OH2 8489   2.644   0.236   2.902  0.1344  0.0266  1.0551
 2828TIP3    H1 8490   2.707   0.177   2.943  0.8562 -0.4497 -0.6465
 2828TIP3    H2 8491   2.563   0.185   2.895  1.5122 -2.0693 -3.0758
 2829TIP3   OH2 8492   5.659   2.912   2.866 -0.0185 -0.6354  0.5022
 2829TIP3    H1 8493   5.581   2.889   2.815 -1.2015  1.7418  1.0904
 2829TIP3    H2 8494   5.719   2.951   2.802 -0.5212  0.1404  0.4831
 2830TIP3   OH2 8495   2.823   4.180   3.424  0.1582 -1.1673 -0.0184
 2830TIP3    H1 8496   2.787   4.268   3.435  1.5843 -0.3893 -1.1116
 2830TIP3    H2 8497   2.755   4.131   3.378 -0.5957 -0.6019  0.4762
 2831TIP3   OH2 8498   0.639   5.707   4.797  0.0972  0.3808  0.0523
 2831TIP3    H1 8499   0.715   5.648   4.791 -0.3964 -0.1499 -1.2622
 2831TIP3    H2 8500   0.564   5.651   4.778 -0.9770  0.3103  3.6600
 2832TIP3   OH2 8501   3.850   0.367   1.819  0.3438 -0.1584  0.5296
 2832TIP3    H1 8502   3.777   0.401   1.871 -0.2107  0.0328 -0.3667
 2832TIP3    H2 8503   3.810   0.304   1.760  0.4130  1.8827 -1.8546
 2833TIP3   OH2 8504   2.938   4.717   3.211 -0.1897 -0.6280  0.2300
 2833TIP3    H1 8505   2.981   4.771   3.277 -0.7043  0.9517 -0.6908
 2833TIP3    H2 8506   3.010   4.682   3.158  0.1525 -1.0127  0.9288
 2834TIP3   OH2 8507   2.232   3.962   2.321 -0.1692  0.1793  0.3559
 2834TIP3    H1 8508   2.278   3.884   2.291  3.0905  2.0148  0.1605
 2834TIP3    H2 8509   2.193   3.937   2.405  1.9142 -1.3272  0.9412
 2835TIP3   OH2 8510   4.397   1.365   3.006 -0.0138  0.2937 -0.5546
 2835TIP3    H1 8511   4.433   1.453   3.012 -0.4740  0.5524 -1.3129
 2835TIP3    H2 8512   4.471   1.310   2.981  0.2152  0.5231 -0.3785
 2836TIP3   OH2 8513   6.214   0.421   1.992  0.1963  0.2372  0.0008
 2836TIP3    H1 8514   6.130   0.465   2.001 -0.5157 -1.0214 -0.2255
 2836TIP3    H2 8515   6.275   0.491   1.969 -0.9843  1.0334 -0.8625
 2837TIP3   OH2 8516   1.965   4.349   4.831  0.3450  1.0075 -0.4743
 2837TIP3    H1 8517   2.016   4.426   4.804  0.7117  0.4637 -1.3821
 2837TIP3    H2 8518   2.010   4.275   4.789 -1.3418  0.5346 -1.5193
 2838TIP3   OH2 8519   0.496   0.310   4.632 -0.3829 -0.6009  0.2318
 2838TIP3    H1 8520   0.420   0.358   4.664 -0.0325  0.9819 -1.1849
 2838TIP3    H2 8521   0.560   0.316   4.702  0.1086  2.1470 -0.3639
 2839TIP3   OH2 8522   1.796   1.165   2.665 -0.2714  0.1133 -0.1714
 2839TIP3    H1 8523   1.738   1.238   2.640 -1.4145 -1.0509 -1.0440
 2839TIP3    H2 8524   1.847   1.147   2.587  1.1546  0.9630  0.5195
 2840TIP3   OH2 8525   0.054   5.278   4.485  0.5576 -0.0824  0.0419
 2840TIP3    H1 8526   0.120   5.345   4.472  0.6629 -0.1322  0.3213
 2840TIP3    H2 8527  -0.027   5.327   4.499 -0.0169  0.0127 -2.8489
 2841TIP3   OH2 8528   1.620   2.186   2.622 -0.5729 -0.7780  0.0195
 2841TIP3    H1 8529   1.525   2.178   2.611 -0.6944  1.8627 -1.6547
 2841TIP3    H2 8530   1.631   2.222   2.710 -1.2898  0.5036 -0.3887
 2842TIP3   OH2 8531   4.777   3.264   4.741  0.0386 -0.5884 -0.2363
 2842TIP3    H1 8532   4.778   3.251   4.836 -0.0444 -5.8200 -0.6191
 2842TIP3    H2 8533   4.868   3.254   4.714  0.0739  0.9308 -0.7602
 2843TIP3   OH2 8534   3.280   4.157   0.228  0.3002  0.3231  0.3380
 2843TIP3    H1 8535   3.242   4.232   0.181  1.7774  0.3319 -0.9172
 2843TIP3    H2 8536   3.302   4.192   0.314  1.1927  1.4628 -0.3098
 2844TIP3   OH2 8537   3.026   3.230   0.215  0.1730  0.6686 -0.2072
 2844TIP3    H1 8538   3.057   3.267   0.133 -3.2335  1.4696 -1.3110
 2844TIP3    H2 8539   3.004   3.139   0.193 -0.1413  0.6970 -0.0142
 2845TIP3   OH2 8540   1.824   4.625   0.205 -0.1932 -0.3220  0.3723
 2845TIP3    H1 8541   1.853   4.668   0.286 -0.6067  0.0156  0.3436
 2845TIP3    H2 8542   1.797   4.697   0.149 -1.1410 -0.6345  0.4193
 2846TIP3   OH2 8543   3.165   0.070   1.707 -0.8832  0.0140  0.1984
 2846TIP3    H1 8544   3.093   0.008   1.712  0.6205 -1.8801 -0.6480
 2846TIP3    H2 8545   3.156   0.110   1.620 -1.5345  0.6308  0.5353
 2847TIP3   OH2 8546   3.160   5.336   4.027 -0.1365 -0.9436 -0.2051
 2847TIP3    H1 8547   3.122   5.325   3.939  0.8015 -0.6488 -0.6593
 2847TIP3    H2 8548   3.140   5.427   4.050  1.0250 -0.5217 -0.8123
 2848TIP3   OH2 8549   2.087   5.691   5.143  0.0487  0.5758 -0.4250
 2848TIP3    H1 8550   2.018   5.716   5.205 -0.6027 -0.3797 -0.7398
 2848TIP3    H2 8551   2.104   5.771   5.093 -0.2793  1.0285  0.1642
 2849TIP3   OH2 8552   5.455   5.882   4.886  0.1109  0.1954  0.4139
 2849TIP3    H1 8553   5.448   5.950   4.819  1.7567  0.3778  0.3772
 2849TIP3    H2 8554   5.534   5.905   4.935 -0.3302 -0.6740  1.5909
 2850TIP3   OH2 8555   4.613   4.589   2.589  0.2993  0.1720 -0.0821
 2850TIP3    H1 8556   4.537   4.609   2.644  0.9968 -2.2472  1.9693
 2850TIP3    H2 8557   4.588   4.511   2.541  0.9634  0.2405 -0.5496
 2851TIP3   OH2 8558   3.810   3.500   0.447 -0.1702  0.1224  0.3119
 2851TIP3    H1 8559   3.833   3.554   0.522 -0.1607 -0.2394  0.5716
 2851TIP3    H2 8560   3.730   3.539   0.412 -0.0116  0.4637  0.3357
 2852TIP3   OH2 8561   5.109   1.918   2.583  0.0362 -0.2353  0.1605
 2852TIP3    H1 8562   5.133   1.845   2.526 -1.2926 -1.5721  1.2163
 2852TIP3    H2 8563   5.155   1.901   2.665 -1.6626 -0.9372  1.0290
 2853TIP3   OH2 8564   2.378   2.994   0.205 -0.1538  0.4586  0.6782
 2853TIP3    H1 8565   2.420   2.911   0.227  0.1990  0.3153 -0.4661
 2853TIP3    H2 8566   2.321   3.013   0.279  0.8483 -0.0765  1.6039
 2854TIP3   OH2 8567   2.951   5.232   2.582 -0.0541  0.0511 -0.0792
 2854TIP3    H1 8568   3.011   5.161   2.605  0.5517  0.1781 -1.1933
 2854TIP3    H2 8569   2.978   5.306   2.637  1.6889  0.5096 -1.4688
 2855TIP3   OH2 8570   6.122   3.089   4.487 -0.0723 -0.3680  0.1814
 2855TIP3    H1 8571   6.061   3.077   4.560  0.0135 -0.3775  0.2516
 2855TIP3    H2 8572   6.151   3.000   4.465 -0.9110 -0.4682 -0.5615
 2856TIP3   OH2 8573  -0.006   2.019   3.686  0.1130  0.0185 -0.0905
 2856TIP3    H1 8574   0.057   2.026   3.758 -1.5172 -0.8077  1.4916
 2856TIP3    H2 8575  -0.018   1.924   3.675  0.2603  0.1360 -1.4123
 2857TIP3   OH2 8576   0.951   5.084   2.652 -0.1930 -0.3699 -0.4706
 2857TIP3    H1 8577   0.896   5.048   2.583 -1.1423  1.7627 -0.9340
 2857TIP3    H2 8578   0.909   5.167   2.674  2.9251  1.5198 -0.9984
 2858TIP3   OH2 8579   1.501   5.597   0.208 -0.2897 -0.1907  0.1627
 2858TIP3    H1 8580   1.430   5.537   0.187 -0.1941  0.0088 -0.7810
 2858TIP3    H2 8581   1.581   5.548   0.189 -0.1924 -0.0566  0.2205
 2859TIP3   OH2 8582   0.879   0.600   3.014  0.7117 -0.1655 -0.1436
 2859TIP3    H1 8583   0.926   0.567   2.937  1.2301  0.2448 -0.0107
 2859TIP3    H2 8584   0.808   0.537   3.028  1.5473 -1.0835 -0.0131
 2860TIP3   OH2 8585   5.660   1.667   2.501 -0.0848  0.6184 -0.3772
 2860TIP3    H1 8586   5.611   1.724   2.442  0.7927  2.0519  0.2229
 2860TIP3    H2 8587   5.646   1.704   2.587  1.0591  0.3207 -0.0478
 2861TIP3   OH2 8588   5.142   1.048   1.938 -0.0610  0.0878 -0.2966
 2861TIP3    H1 8589   5.077   1.119   1.938 -0.7426 -0.5262  0.5343
 2861TIP3    H2 8590   5.227   1.093   1.934 -0.4871  0.9451  0.1575
 2862TIP3   OH2 8591   1.423   1.822   0.200 -0.3773 -0.1853  0.4659
 2862TIP3    H1 8592   1.493   1.875   0.163 -0.0697 -1.0453 -0.2118
 2862TIP3    H2 8593   1.384   1.778   0.125  0.8270 -2.6565  1.2091
 2863TIP3   OH2 8594   4.622   5.959   0.569 -0.6935 -0.1257 -0.0967
 2863TIP3    H1 8595   4.681   6.028   0.597 -0.0410 -0.5226 -0.4399
 2863TIP3    H2 8596   4.676   5.879   0.573 -1.5839 -0.7020  0.8204
 2864TIP3   OH2 8597   5.505   4.454   4.839 -0.0069 -0.2361 -0.4784
 2864TIP3    H1 8598   5.539   4.526   4.786 -0.2108 -0.5193 -1.0032
 2864TIP3    H2 8599   5.448   4.497   4.903  0.3677  0.1250 -0.3839
 2865TIP3   OH2 8600   3.541   1.763   0.227  0.3025  0.2192  0.0244
 2865TIP3    H1 8601   3.615   1.732   0.278  0.5804 -1.7225 -1.4447
 2865TIP3    H2 8602   3.478   1.692   0.230 -1.0651  1.3867  0.3078
 2866TIP3   OH2 8603   4.338   5.881   0.425 -0.0073 -0.2705  0.5298
 2866TIP3    H1 8604   4.314   5.800   0.470 -2.0762  0.1757  0.3119
 2866TIP3    H2 8605   4.265   5.898   0.365  0.6570  1.4554  0.1584
 2867TIP3   OH2 8606   0.436   0.309   2.983 -0.0100 -0.0958  0.0813
 2867TIP3    H1 8607   0.358   0.259   3.008 -1.1589  1.9329  0.8319
 2867TIP3    H2 8608   0.404   0.399   2.973  1.9932  0.5608 -0.9597
 2868TIP3   OH2 8609   0.046   4.520   3.473  1.0582  0.9744  0.1793
 2868TIP3    H1 8610   0.034   4.584   3.544  1.0426  0.1906  0.9078
 2868TIP3    H2 8611   0.140   4.507   3.468  1.0829  1.2935 -0.1889
 2869TIP3   OH2 8612   2.963   1.664   2.576  0.6147 -0.0971  0.5116
 2869TIP3    H1 8613   2.885   1.688   2.624  1.4874  1.0376  1.4159
 2869TIP3    H2 8614   3.022   1.627   2.642  0.9429 -0.7374 -0.1172
 2870TIP3   OH2 8615   2.035   3.337   1.683 -0.3603  0.2051  0.5365
 2870TIP3    H1 8616   2.026   3.380   1.598 -1.3445  0.7602  0.9034
 2870TIP3    H2 8617   1.989   3.254   1.672  0.3640 -0.1699  0.2431
 2871TIP3   OH2 8618   3.633   2.293   4.309  0.2157  0.2179  0.3348
 2871TIP3    H1 8619   3.646   2.236   4.233 -1.7358  1.1246 -0.7634
 2871TIP3    H2 8620   3.663   2.379   4.280 -1.4542  0.7885  0.1822
 2872TIP3   OH2 8621   2.604   1.096   0.311 -0.8524  0.0567  0.0752
 2872TIP3    H1 8622   2.651   1.018   0.339  1.4682  1.5569  0.6382
 2872TIP3    H2 8623   2.540   1.064   0.247  0.5433 -2.1906 -0.2954
 2873TIP3   OH2 8624   3.444   0.266   3.174  0.4947 -0.3784  0.6095
 2873TIP3    H1 8625   3.444   0.195   3.109 -0.6634 -0.7638  0.9997
 2873TIP3    H2 8626   3.495   0.335   3.133  1.6034 -1.4128  0.1937
 2874TIP3   OH2 8627   6.170   1.037   2.992 -0.7791  0.6759  0.4467
 2874TIP3    H1 8628   6.077   1.021   2.977 -0.5503  0.8482 -1.3450
 2874TIP3    H2 8629   6.201   0.959   3.039 -1.1693 -0.9020 -1.7774
 2875TIP3   OH2 8630   0.550   0.935   4.178  0.1469 -0.2610  0.5035
 2875TIP3    H1 8631   0.597   1.008   4.137  1.1620 -0.9732  0.3367
 2875TIP3    H2 8632   0.477   0.917   4.120  0.7574 -0.3349 -0.2636
 2876TIP3   OH2 8633   3.402   4.259   4.112 -0.8024 -0.1768  0.3391
 2876TIP3    H1 8634   3.479   4.232   4.162 -0.1864  3.8743  1.9873
 2876TIP3    H2 8635   3.437   4.294   4.031 -1.1366 -0.3809  0.1032
 2877TIP3   OH2 8636   1.913   3.768   0.480  0.2539 -0.7696  0.4705
 2877TIP3    H1 8637   1.820   3.748   0.474  0.1598  0.1118 -2.7287
 2877TIP3    H2 8638   1.957   3.689   0.449  0.4824 -0.5422  0.2092
 2878TIP3   OH2 8639   1.061   2.058   3.178  0.2835  0.4350  0.1941
 2878TIP3    H1 8640   1.096   1.978   3.138  0.3005  1.1704 -1.3289
 2878TIP3    H2 8641   0.967   2.040   3.187  0.1714  0.4720 -0.7715
 2879TIP3   OH2 8642   6.110   2.109   3.190 -0.6165 -0.2418  0.0688
 2879TIP3    H1 8643   6.191   2.072   3.156 -0.5736  0.3690 -0.5285
 2879TIP3    H2 8644   6.089   2.181   3.129 -1.3339 -0.0732  0.4981
 2880TIP3   OH2 8645   5.284   1.290   4.034  0.4277  0.6895  0.5758
 2880TIP3    H1 8646   5.331   1.372   4.046  1.4234 -0.0057  1.6323
 2880TIP3    H2 8647   5.294   1.270   3.941  1.6777  0.8854  0.6491
 2881TIP3   OH2 8648   6.133   2.539   3.793  0.6457 -0.3576 -0.0285
 2881TIP3    H1 8649   6.084   2.618   3.815  2.1593 -0.0140  2.4501
 2881TIP3    H2 8650   6.189   2.566   3.719 -0.4926  0.1640 -0.7320
 2882TIP3   OH2 8651   4.834   1.225   4.789  0.0991 -0.2670 -0.3811
 2882TIP3    H1 8652   4.852   1.133   4.810  0.0205 -0.3308 -0.5900
 2882TIP3    H2 8653   4.798   1.223   4.700  0.6045  0.0195 -0.5951
 2883TIP3   OH2 8654   2.207   5.418   0.129 -0.0187 -0.1394 -0.7506
 2883TIP3    H1 8655   2.244   5.483   0.069 -0.3512 -0.1034 -0.9147
 2883TIP3    H2 8656   2.144   5.370   0.077 -0.3295 -0.0865 -0.4223
 2884TIP3   OH2 8657   5.584   5.014   0.593 -0.2475  0.1412 -0.3211
 2884TIP3    H1 8658   5.525   5.069   0.541 -1.6141 -1.3151 -0.4223
 2884TIP3    H2 8659   5.632   4.963   0.528  0.9460  1.1055 -0.2261
 2885TIP3   OH2 8660   0.100   5.671   2.201  0.1087  0.2776  0.0272
 2885TIP3    H1 8661   0.130   5.581   2.214  0.8113  0.6693  1.3486
 2885TIP3    H2 8662   0.162   5.709   2.138 -0.7666 -0.4094 -1.3024
 2886TIP3   OH2 8663   3.912   4.923   1.033  0.1114  0.0667 -0.0753
 2886TIP3    H1 8664   3.968   4.874   0.973 -0.0173  0.0397 -0.1762
 2886TIP3    H2 8665   3.902   5.009   0.992 -0.8215 -0.2833 -0.6328
 2887TIP3   OH2 8666   3.069   2.561   1.007  0.7318  0.9194  0.3432
 2887TIP3    H1 8667   3.047   2.499   0.938  1.1202 -1.0167  1.8733
 2887TIP3    H2 8668   3.009   2.634   0.993  0.0281  0.0770 -1.3290
 2888TIP3   OH2 8669   1.012   4.094   5.101  0.4922 -0.3804  0.4089
 2888TIP3    H1 8670   1.080   4.075   5.036 -1.4613 -1.4410 -1.4946
 2888TIP3    H2 8671   0.978   4.008   5.126 -0.4874  0.1263  0.8915
 2889TIP3   OH2 8672   1.428   1.985   2.417 -0.0895 -0.1742 -0.4491
 2889TIP3    H1 8673   1.387   1.898   2.419 -0.9530  0.1970 -1.2865
 2889TIP3    H2 8674   1.515   1.969   2.381  0.1525 -0.8305  0.3799
 2890TIP3   OH2 8675   4.292   0.599   4.424 -0.0568 -0.2225  0.1990
 2890TIP3    H1 8676   4.273   0.576   4.515  0.3345  0.6937  0.5246
 2890TIP3    H2 8677   4.387   0.610   4.421  0.0607 -1.2957 -0.5839
 2891TIP3   OH2 8678   5.678   5.169   0.210 -0.2680 -0.0111  0.0499
 2891TIP3    H1 8679   5.587   5.178   0.181 -0.4624  0.5275  0.7881
 2891TIP3    H2 8680   5.731   5.197   0.135 -0.7543  1.5316  0.2526
 2892TIP3   OH2 8681   2.796   4.249   1.169 -0.0772  0.2271 -0.4096
 2892TIP3    H1 8682   2.807   4.154   1.166 -0.4448  0.1218  0.9017
 2892TIP3    H2 8683   2.860   4.278   1.234 -0.0436  0.8633 -0.7262
 2893TIP3   OH2 8684   5.836   1.916   4.375 -0.1534 -0.2194 -0.5076
 2893TIP3    H1 8685   5.830   2.004   4.340  0.5799 -0.2719 -0.7750
 2893TIP3    H2 8686   5.762   1.869   4.335 -0.7521  0.3563 -0.0908
 2894TIP3   OH2 8687   1.700   3.397   2.802 -0.4302 -0.1148 -0.3676
 2894TIP3    H1 8688   1.739   3.387   2.889  0.3109  2.1641 -0.3674
 2894TIP3    H2 8689   1.775   3.394   2.742 -0.7946 -0.4028 -0.8144
 2895TIP3   OH2 8690   5.229   0.566   0.268  0.0281  0.3484  0.2938
 2895TIP3    H1 8691   5.135   0.552   0.277 -0.4467  2.5910 -0.4575
 2895TIP3    H2 8692   5.268   0.479   0.278 -2.0674 -0.5447  1.1325
 2896TIP3   OH2 8693   5.558   4.115   1.794  0.2465 -0.1547 -0.1460
 2896TIP3    H1 8694   5.644   4.080   1.770  1.1647  1.1030  1.1568
 2896TIP3    H2 8695   5.541   4.079   1.881  0.5188  1.3172  0.5627
 2897TIP3   OH2 8696   3.313   5.663   3.444 -0.4531 -0.4110 -0.3870
 2897TIP3    H1 8697   3.244   5.636   3.383 -1.5998  2.7168 -0.6418
 2897TIP3    H2 8698   3.267   5.709   3.514  1.2948  1.4579 -0.3753
 2898TIP3   OH2 8699   5.438   5.368   1.966  0.5272  0.3889 -0.1212
 2898TIP3    H1 8700   5.422   5.294   2.024  0.1033  0.0705 -0.6395
 2898TIP3    H2 8701   5.522   5.404   1.996  0.4749  0.0314  0.4722
 2899TIP3   OH2 8702   2.615   1.525   3.429  1.0805  0.2879  0.1110
 2899TIP3    H1 8703   2.613   1.476   3.347 -1.7498  0.4797 -0.0551
 2899TIP3    H2 8704   2.565   1.605   3.410  0.3571  0.3342  1.9926
 2900TIP3   OH2 8705   2.538   4.108   5.133  0.2039 -0.4145 -0.3408
 2900TIP3    H1 8706   2.580   4.065   5.208 -0.4240  0.8679  0.8058
 2900TIP3    H2 8707   2.488   4.180   5.172  0.4362  0.7519 -2.0846
 2901TIP3   OH2 8708   5.358   4.237   1.625 -0.1206 -0.3971 -0.9857
 2901TIP3    H1 8709   5.440   4.200   1.658  0.3821 -0.2939 -2.0870
 2901TIP3    H2 8710   5.290   4.175   1.655 -0.0574  0.9415  2.3804
 2902TIP3   OH2 8711   2.575   4.851   3.403  0.2497 -0.3876 -0.3248
 2902TIP3    H1 8712   2.606   4.789   3.470  0.7770 -0.3727 -0.5490
 2902TIP3    H2 8713   2.489   4.817   3.378 -1.6774  1.5385  2.8919
 2903TIP3   OH2 8714   2.322   0.421   1.628  0.5001  0.3287 -0.5705
 2903TIP3    H1 8715   2.275   0.503   1.642 -1.4372 -0.8912  0.7948
 2903TIP3    H2 8716   2.407   0.434   1.671 -0.2202  1.2588  0.6629
 2904TIP3   OH2 8717   4.187   1.332   2.546 -0.1384 -0.3501 -0.6134
 2904TIP3    H1 8718   4.252   1.390   2.505  0.1665  1.6004  2.3552
 2904TIP3    H2 8719   4.108   1.342   2.492  0.2265  2.0809 -0.7773
 2905TIP3   OH2 8720   2.995   1.930   4.693 -0.3422  0.4416  0.1887
 2905TIP3    H1 8721   2.979   2.024   4.683 -1.0720  0.5752  2.2244
 2905TIP3    H2 8722   2.932   1.902   4.759 -0.9874 -1.7594 -1.2824
 2906TIP3   OH2 8723   6.266   1.580   1.365  0.2197 -0.1589  0.1237
 2906TIP3    H1 8724   6.273   1.617   1.276  0.5836 -1.4238 -0.3985
 2906TIP3    H2 8725   6.181   1.537   1.366  0.3564 -0.4287  0.2736
 2907TIP3   OH2 8726   0.692   5.930   0.374 -0.0934 -0.1688  0.2219
 2907TIP3    H1 8727   0.736   6.006   0.411 -0.4883  0.6609 -0.9540
 2907TIP3    H2 8728   0.656   5.884   0.450 -0.9677  1.5312  0.8858
 2908TIP3   OH2 8729   2.425   4.638   3.236 -0.1793 -0.0643  0.5916
 2908TIP3    H1 8730   2.421   4.615   3.143 -1.5720  0.9318  0.3742
 2908TIP3    H2 8731   2.498   4.587   3.271  1.2260  0.5341 -1.3271
 2909TIP3   OH2 8732   4.652   2.551   4.989 -0.4249  0.6243  0.2578
 2909TIP3    H1 8733   4.578   2.601   5.023 -0.6446 -0.3354  1.2824
 2909TIP3    H2 8734   4.721   2.564   5.053 -0.2662  0.1581  0.1838
 2910TIP3   OH2 8735   6.275   2.836   2.050  0.5326 -0.0381  0.2789
 2910TIP3    H1 8736   6.215   2.875   2.114 -0.7854 -1.8903  0.2438
 2910TIP3    H2 8737   6.326   2.772   2.100  2.2903  1.2169  0.2217
 2911TIP3   OH2 8738   0.245   1.909   1.469  0.0185  0.0909  0.7145
 2911TIP3    H1 8739   0.201   1.824   1.471 -0.4594  0.3180  0.1293
 2911TIP3    H2 8740   0.193   1.961   1.408 -0.1198  1.0342  1.6184
 2912TIP3   OH2 8741   0.980   1.380   3.827 -0.1571  0.1585  0.6907
 2912TIP3    H1 8742   0.943   1.453   3.777  0.9809 -0.0991 -0.6227
 2912TIP3    H2 8743   1.075   1.394   3.822  0.1903 -2.1462 -0.8822
 2913TIP3   OH2 8744   0.454   2.166   2.016 -0.3363  0.0168  0.0435
 2913TIP3    H1 8745   0.503   2.225   1.959 -0.2944  0.3218  0.3918
 2913TIP3    H2 8746   0.362   2.193   2.003 -0.1758  1.4619  1.6453
 2914TIP3   OH2 8747   5.192   0.866   3.794 -0.1818 -0.5273  0.4235
 2914TIP3    H1 8748   5.176   0.772   3.788  2.8414 -1.1900  0.9922
 2914TIP3    H2 8749   5.263   0.875   3.857  2.1616  1.7118 -2.1995
 2915TIP3   OH2 8750   0.119   5.491   2.563 -0.4118  0.4510  0.1250
 2915TIP3    H1 8751   0.069   5.475   2.484  1.6590  0.2280 -1.2265
 2915TIP3    H2 8752   0.101   5.583   2.584 -3.0523 -0.1910  1.0208
 2916TIP3   OH2 8753   3.438   3.487   1.043 -0.4761  0.5269 -0.4344
 2916TIP3    H1 8754   3.528   3.511   1.022  0.8692 -2.8228  0.8178
 2916TIP3    H2 8755   3.416   3.540   1.120  1.3563 -0.3028  0.7106
 2917TIP3   OH2 8756   5.102   3.402   1.727  0.2151 -0.3078 -0.0374
 2917TIP3    H1 8757   5.019   3.426   1.769 -0.6356 -2.5954 -0.2419
 2917TIP3    H2 8758   5.150   3.484   1.720 -2.0488  1.1152  0.0571
 2918TIP3   OH2 8759   6.114   1.659   0.639 -0.0334  0.5299 -0.2187
 2918TIP3    H1 8760   6.140   1.677   0.729  1.1367  2.3654 -0.8511
 2918TIP3    H2 8761   6.018   1.659   0.640 -0.0335  1.3464  0.8793
 2919TIP3   OH2 8762   2.265   3.290   0.623  0.3041 -0.2388  0.3463
 2919TIP3    H1 8763   2.282   3.362   0.562  0.2136 -0.8298 -0.3859
 2919TIP3    H2 8764   2.173   3.299   0.646  0.0619 -0.6357 -0.4365
 2920TIP3   OH2 8765   0.325   1.170   3.239 -0.0905  0.4728  0.1010
 2920TIP3    H1 8766   0.231   1.162   3.254 -0.1476 -0.3592 -0.6601
 2920TIP3    H2 8767   0.365   1.135   3.319 -0.4178  0.4217  0.2441
 2921TIP3   OH2 8768   0.021   0.722   0.329 -0.6957  0.0589  0.1163
 2921TIP3    H1 8769   0.111   0.754   0.327 -0.5225 -0.4016  0.4965
 2921TIP3    H2 8770  -0.029   0.795   0.367 -0.5411  0.4398 -0.4057
 2922TIP3   OH2 8771   2.005   3.692   2.698  0.1594 -0.0977  0.5674
 2922TIP3    H1 8772   1.938   3.761   2.699 -0.0534 -0.2846  2.1605
 2922TIP3    H2 8773   2.039   3.691   2.787  1.0531 -1.2097  0.2293
 2923TIP3   OH2 8774   2.911   2.036   1.072 -0.4102 -0.4260 -0.5528
 2923TIP3    H1 8775   2.914   2.051   0.977  0.6482  2.1043 -0.1895
 2923TIP3    H2 8776   3.000   2.011   1.095 -0.2475  0.6065 -0.0232
 2924TIP3   OH2 8777   2.364   1.734   1.584  0.5038 -0.2244 -0.0275
 2924TIP3    H1 8778   2.449   1.693   1.605 -0.0668 -0.9886  0.8641
 2924TIP3    H2 8779   2.381   1.782   1.503  1.9091 -0.0051  0.3617
 2925TIP3   OH2 8780   1.635   0.414   2.505 -0.1732  0.5503 -0.0450
 2925TIP3    H1 8781   1.673   0.491   2.546  1.6728 -0.4890  0.3087
 2925TIP3    H2 8782   1.591   0.368   2.577  0.3138  0.3506  0.1297
 2926TIP3   OH2 8783   5.141   2.650   2.651  0.4950  0.3924 -0.0863
 2926TIP3    H1 8784   5.161   2.738   2.619  0.6890  0.4418  0.1666
 2926TIP3    H2 8785   5.226   2.613   2.673  0.5226 -0.2355 -1.1450
 2927TIP3   OH2 8786   3.567   2.436   2.686  0.1663 -0.0264  0.0177
 2927TIP3    H1 8787   3.566   2.357   2.632 -0.8508  0.5041 -0.7918
 2927TIP3    H2 8788   3.519   2.501   2.634  0.7780  1.0577  0.7632
 2928TIP3   OH2 8789   2.662   5.091   3.350 -0.0573  0.4071 -0.7436
 2928TIP3    H1 8790   2.605   5.015   3.342 -0.2992  0.6195 -1.0828
 2928TIP3    H2 8791   2.691   5.090   3.441  0.3714 -0.3913 -0.8799
 2929TIP3   OH2 8792   5.443   1.698   0.330 -0.0111 -0.3247 -0.0270
 2929TIP3    H1 8793   5.392   1.642   0.272  1.2735 -1.5138 -0.0510
 2929TIP3    H2 8794   5.461   1.644   0.407 -0.6222  0.8124  0.9623
 2930TIP3   OH2 8795   1.007   4.986   1.696 -0.2676 -0.5896 -0.0897
 2930TIP3    H1 8796   0.970   5.074   1.685  0.9364 -0.4117 -4.1228
 2930TIP3    H2 8797   0.978   4.938   1.619  1.2380 -2.9843  0.7226
 2931TIP3   OH2 8798   5.981   4.881   2.912 -0.4478 -0.2720 -0.5761
 2931TIP3    H1 8799   6.074   4.878   2.933 -0.6801  0.4431  0.6158
 2931TIP3    H2 8800   5.978   4.872   2.817  0.9275  1.0529 -0.7832
 2932TIP3   OH2 8801   0.926   1.287   1.732 -0.2170 -0.3022  0.1809
 2932TIP3    H1 8802   0.961   1.325   1.812 -1.4821  1.2659  0.0402
 2932TIP3    H2 8803   0.998   1.293   1.669  0.1608  0.2785  0.6560
 2933TIP3   OH2 8804   3.239   2.519   0.769  0.1333 -0.0389  0.6428
 2933TIP3    H1 8805   3.237   2.603   0.816  2.3357  1.2690 -1.3887
 2933TIP3    H2 8806   3.223   2.543   0.677  2.4568 -1.5355 -0.2429
 2934TIP3   OH2 8807   0.509   1.216   3.849  0.4723 -0.3940 -0.5618
 2934TIP3    H1 8808   0.453   1.218   3.927 -1.2439 -2.0332 -1.6577
 2934TIP3    H2 8809   0.564   1.139   3.861 -0.2607 -1.0427 -1.2204
 2935TIP3   OH2 8810   3.445   4.615   3.969  0.1749 -0.3647  0.4145
 2935TIP3    H1 8811   3.359   4.582   3.944 -0.6789 -0.2493  2.8873
 2935TIP3    H2 8812   3.506   4.565   3.914 -1.4089 -1.0003 -0.8594
 2936TIP3   OH2 8813   2.099   4.861   1.796 -0.1805 -0.1053 -0.2520
 2936TIP3    H1 8814   2.167   4.843   1.731 -0.9511 -0.6448 -0.9365
 2936TIP3    H2 8815   2.056   4.776   1.809 -1.7086  0.5122 -1.0143
 2937TIP3   OH2 8816   4.440   0.850   0.420 -0.4512  0.0609 -0.3099
 2937TIP3    H1 8817   4.422   0.807   0.336 -0.6035 -0.3829 -0.0474
 2937TIP3    H2 8818   4.353   0.868   0.456 -0.4372 -2.2928  1.0718
 2938TIP3   OH2 8819   2.573   3.698   4.570 -0.0735 -0.0194 -0.3545
 2938TIP3    H1 8820   2.513   3.694   4.644 -1.1136  0.9793 -1.1025
 2938TIP3    H2 8821   2.608   3.609   4.562 -1.1865 -0.5355  0.3267
 2939TIP3   OH2 8822   4.557   0.903   0.039 -0.2083 -0.1947  0.2845
 2939TIP3    H1 8823   4.535   0.874  -0.049  0.4021  1.6690 -0.5260
 2939TIP3    H2 8824   4.649   0.926   0.034 -0.5458  1.4054  0.9788
 2940TIP3   OH2 8825   2.659   2.912   5.005 -1.0291  0.1929 -0.2185
 2940TIP3    H1 8826   2.583   2.959   4.971 -0.5333  0.5255 -0.8905
 2940TIP3    H2 8827   2.677   2.844   4.940 -1.0438 -0.1964  0.1795
 2941TIP3   OH2 8828   4.940   1.136   1.397  0.1285 -0.3546  0.5950
 2941TIP3    H1 8829   4.996   1.107   1.468 -0.6100 -1.4972  0.7313
 2941TIP3    H2 8830   4.918   1.227   1.418  2.3496  0.3227  0.2462
 2942TIP3   OH2 8831   5.935   5.464   2.219  0.1943 -0.2479 -0.5096
 2942TIP3    H1 8832   5.938   5.559   2.202  1.1950 -0.1897 -0.0645
 2942TIP3    H2 8833   5.881   5.429   2.147 -0.6796  0.7188 -0.3481
 2943TIP3   OH2 8834   1.191   1.376   1.004  0.0770  0.2777  0.2558
 2943TIP3    H1 8835   1.158   1.465   0.989  2.2224  1.2463  0.9062
 2943TIP3    H2 8836   1.203   1.371   1.099 -0.0521 -0.7323  0.2248
 2944TIP3   OH2 8837   3.417   2.057   5.084 -0.0216 -0.3357 -0.4600
 2944TIP3    H1 8838   3.479   2.095   5.022 -0.9609 -0.0418 -1.2466
 2944TIP3    H2 8839   3.396   1.971   5.046 -0.9820  0.0513 -0.8295
 2945TIP3   OH2 8840   5.034   0.657   0.544 -0.1067  0.3493  0.0492
 2945TIP3    H1 8841   4.950   0.625   0.578  0.3911  0.1506  1.1565
 2945TIP3    H2 8842   5.026   0.651   0.449 -0.2346 -2.6602  0.1640
 2946TIP3   OH2 8843   5.070   0.493   3.281 -0.3403  0.2416  0.0462
 2946TIP3    H1 8844   5.001   0.558   3.296 -0.1960  0.5270 -0.5117
 2946TIP3    H2 8845   5.056   0.427   3.350  1.1272  2.1463  2.2970
 2947TIP3   OH2 8846   0.552   5.334   1.205 -0.1974 -0.1320  0.2115
 2947TIP3    H1 8847   0.527   5.261   1.148  1.7267 -0.4990 -0.2260
 2947TIP3    H2 8848   0.641   5.314   1.232  0.1686  1.7644  0.5686
 2948TIP3   OH2 8849   4.533   2.954   2.547 -0.1530 -0.0555 -0.4282
 2948TIP3    H1 8850   4.545   2.913   2.461  0.5261 -1.8815  0.4926
 2948TIP3    H2 8851   4.438   2.949   2.563 -0.5061  1.6412 -1.6512
 2949TIP3   OH2 8852   0.857   3.890   1.359  0.3523 -0.2857 -0.2175
 2949TIP3    H1 8853   0.907   3.826   1.410  0.0458 -0.9898 -0.7712
 2949TIP3    H2 8854   0.781   3.910   1.414 -0.1882 -1.3462 -0.5333
 2950TIP3   OH2 8855   2.152   5.052   3.828  0.0517  0.0292 -0.3184
 2950TIP3    H1 8856   2.208   5.056   3.750 -0.1162 -0.5600 -0.4732
 2950TIP3    H2 8857   2.077   4.999   3.801 -0.6399  0.8921 -0.1435
 2951TIP3   OH2 8858   1.190   0.538   2.927 -0.1568  0.0050 -0.5757
 2951TIP3    H1 8859   1.275   0.501   2.907 -1.4024 -3.2078 -0.5143
 2951TIP3    H2 8860   1.129   0.494   2.868 -1.9518  1.3623  0.1444
 2952TIP3   OH2 8861   0.360   4.115   4.426  0.1175  0.3230  0.0622
 2952TIP3    H1 8862   0.352   4.143   4.517  0.5745  1.5777 -0.2704
 2952TIP3    H2 8863   0.270   4.119   4.392 -0.0293  0.0127  0.4038
 2953TIP3   OH2 8864   2.567   2.930   2.760 -0.3392  0.1648  0.1674
 2953TIP3    H1 8865   2.509   2.974   2.821  0.8740  0.3839  1.2086
 2953TIP3    H2 8866   2.514   2.915   2.682 -1.8579  0.0842  1.1866
 2954TIP3   OH2 8867   4.430   4.694   0.348  0.0851 -0.1333 -0.0705
 2954TIP3    H1 8868   4.510   4.712   0.397 -0.0480  0.4241 -0.0500
 2954TIP3    H2 8869   4.387   4.779   0.340 -0.5724 -0.4507  0.0302
 2955TIP3   OH2 8870   2.895   4.480   4.747 -0.3767 -0.3433  0.2232
 2955TIP3    H1 8871   2.939   4.433   4.818 -0.2760  0.4016  0.6689
 2955TIP3    H2 8872   2.809   4.502   4.782  0.3446  1.7051  0.8717
 2956TIP3   OH2 8873   4.398   3.841   3.217 -0.0095  0.7718 -0.5294
 2956TIP3    H1 8874   4.474   3.783   3.209 -0.4386  0.0980  0.1420
 2956TIP3    H2 8875   4.431   3.927   3.191  1.0395  0.5269 -0.0908
 2957TIP3   OH2 8876   0.492   5.764   4.429  0.0683 -0.2397  0.2160
 2957TIP3    H1 8877   0.450   5.850   4.430 -0.2128 -0.3054 -1.9446
 2957TIP3    H2 8878   0.572   5.776   4.481 -1.0106  0.7330  1.6978
 2958TIP3   OH2 8879   5.919   3.253   0.190  0.0828  0.1105 -0.1689
 2958TIP3    H1 8880   5.980   3.327   0.186 -1.5857  1.7618  1.8395
 2958TIP3    H2 8881   5.860   3.267   0.116  0.3535  0.2499 -0.3595
 2959TIP3   OH2 8882   1.242   5.332   1.905  0.4492  0.2945  0.2962
 2959TIP3    H1 8883   1.176   5.280   1.859  0.5724 -0.0269  0.4801
 2959TIP3    H2 8884   1.205   5.420   1.908 -0.5326 -0.1243  1.4685
 2960TIP3   OH2 8885   3.380   3.892   1.938  0.2030 -0.2939 -0.4781
 2960TIP3    H1 8886   3.473   3.908   1.951  0.3392 -1.6718  0.4019
 2960TIP3    H2 8887   3.341   3.904   2.024 -0.7073  1.7468 -1.1121
 2961TIP3   OH2 8888   0.220   4.103   1.748  0.0393  0.4578  0.0231
 2961TIP3    H1 8889   0.186   4.060   1.670 -1.4329  2.3009 -0.4361
 2961TIP3    H2 8890   0.159   4.078   1.817 -0.6152  1.4562 -0.1708
 2962TIP3   OH2 8891   4.310   3.401   4.872  0.6254  0.0062 -0.5962
 2962TIP3    H1 8892   4.337   3.379   4.782  1.8219  1.6864 -0.6941
 2962TIP3    H2 8893   4.392   3.404   4.922  0.0994  0.3735  0.2595
 2963TIP3   OH2 8894   0.411   0.527   4.807  0.5157 -0.2023 -0.2557
 2963TIP3    H1 8895   0.318   0.521   4.826 -0.0113  5.3710  0.7195
 2963TIP3    H2 8896   0.454   0.502   4.889 -0.3988  0.5102  0.4691
 2964TIP3   OH2 8897   6.178   4.838   0.521 -1.2312 -0.0599 -0.4150
 2964TIP3    H1 8898   6.226   4.900   0.466 -1.5534  0.2878 -0.3035
 2964TIP3    H2 8899   6.087   4.865   0.514 -1.5119 -1.1555 -1.1931
 2965TIP3   OH2 8900   1.448   5.780   2.555  0.1495  0.2792 -0.1724
 2965TIP3    H1 8901   1.518   5.770   2.619 -1.5697  0.6063  1.8578
 2965TIP3    H2 8902   1.437   5.693   2.518  0.4397 -0.1816  0.7987
 2966TIP3   OH2 8903   1.168   4.805   0.669 -0.3083  0.3727 -0.6773
 2966TIP3    H1 8904   1.226   4.740   0.708 -2.4670 -0.8273  0.7480
 2966TIP3    H2 8905   1.198   4.888   0.705  0.4404 -0.2238  0.1158
 2967TIP3   OH2 8906   1.621   4.203   1.841 -0.6005  0.0339  0.0703
 2967TIP3    H1 8907   1.704   4.203   1.793 -0.5217  0.0907  0.2066
 2967TIP3    H2 8908   1.645   4.221   1.932 -0.7763  0.2069  0.0842
 2968TIP3   OH2 8909   0.255   4.381   5.027  0.4280 -0.7644 -0.5546
 2968TIP3    H1 8910   0.291   4.347   4.945  0.7604 -0.8279 -0.3841
 2968TIP3    H2 8911   0.163   4.399   5.007  0.7689  0.3043 -1.2849
 2969TIP3   OH2 8912   5.686   4.358   2.469  0.0334 -0.2599  0.0719
 2969TIP3    H1 8913   5.607   4.350   2.415 -0.4654  0.6643  0.6453
 2969TIP3    H2 8914   5.682   4.282   2.527 -1.5361  0.8039  1.4615
 2970TIP3   OH2 8915   0.938   5.554   0.122  0.0508  0.4400  0.2866
 2970TIP3    H1 8916   0.911   5.486   0.183 -0.9826  0.6329  0.0687
 2970TIP3    H2 8917   0.984   5.618   0.176  1.1009 -0.4582  0.4758
 2971TIP3   OH2 8918   5.296   3.252   1.900  0.1675  0.1597  0.0615
 2971TIP3    H1 8919   5.239   3.308   1.847  0.4010  1.2111  0.8907
 2971TIP3    H2 8920   5.372   3.236   1.843  0.8127  1.9896  0.3238
 2972TIP3   OH2 8921   5.649   2.633   0.450  0.8631  0.0922  1.0094
 2972TIP3    H1 8922   5.711   2.563   0.431 -0.4340 -0.7696 -0.3344
 2972TIP3    H2 8923   5.574   2.614   0.393  0.4725  2.5989  0.5733
 2973TIP3   OH2 8924   3.930   4.237   4.340  0.0166 -0.1242 -0.4096
 2973TIP3    H1 8925   4.001   4.295   4.367 -0.2921  0.2215 -0.3225
 2973TIP3    H2 8926   3.852   4.292   4.346 -0.1793 -0.3211 -1.0863
 2974TIP3   OH2 8927   4.246   3.455   0.169 -0.3689  0.5601  0.6211
 2974TIP3    H1 8928   4.318   3.506   0.206 -0.4128  0.4582  0.8450
 2974TIP3    H2 8929   4.191   3.520   0.126  0.2698  0.5544 -0.2393
 2975TIP3   OH2 8930   3.630   3.008   1.356  0.3367 -0.0853  0.2023
 2975TIP3    H1 8931   3.578   2.940   1.398  0.5779  1.4351  3.2146
 2975TIP3    H2 8932   3.675   3.052   1.428  2.3299  1.5232 -1.8816
 2976TIP3   OH2 8933   5.665   0.436   3.687  0.3693  0.5400  0.1425
 2976TIP3    H1 8934   5.641   0.519   3.645  0.6070  1.0578  0.9928
 2976TIP3    H2 8935   5.654   0.370   3.619 -2.1772  0.9195  0.0673
 2977TIP3   OH2 8936   2.613   2.110   2.893  0.0337 -0.0555 -0.1444
 2977TIP3    H1 8937   2.615   2.103   2.798 -1.5969  0.3826 -0.2367
 2977TIP3    H2 8938   2.591   2.021   2.923 -0.2670 -0.0063 -0.2200
 2978TIP3   OH2 8939   3.634   5.317   0.668 -0.4534 -0.1226 -0.0854
 2978TIP3    H1 8940   3.600   5.242   0.716 -3.3923  1.0630 -0.0899
 2978TIP3    H2 8941   3.589   5.313   0.583  0.5779  0.7499 -0.6937
 2979TIP3   OH2 8942   0.189   3.284   0.916 -0.4047  0.2392 -0.1795
 2979TIP3    H1 8943   0.208   3.304   1.008  2.0786 -0.0711 -0.5324
 2979TIP3    H2 8944   0.170   3.369   0.877  1.2697  0.8119  0.1253
 2980TIP3   OH2 8945   1.393   2.390   3.277  0.7468 -0.2615 -0.1144
 2980TIP3    H1 8946   1.358   2.328   3.213 -1.6229  0.0446  0.8041
 2980TIP3    H2 8947   1.373   2.476   3.241  1.2667 -0.0584  0.0720
 2981TIP3   OH2 8948   4.700   1.944   4.858 -0.3474 -0.0265  0.4049
 2981TIP3    H1 8949   4.678   1.857   4.890  0.4154  0.1763  1.5416
 2981TIP3    H2 8950   4.784   1.933   4.814  0.8953  0.4781  2.4897
 2982TIP3   OH2 8951   6.177   2.219   4.435 -0.5515 -0.2503 -0.3592
 2982TIP3    H1 8952   6.220   2.207   4.350 -0.4797  1.1201 -0.5314
 2982TIP3    H2 8953   6.106   2.280   4.417  0.0368  0.7899  0.7465
 2983TIP3   OH2 8954   0.456   4.358   2.279  0.5704  0.0734  0.4726
 2983TIP3    H1 8955   0.411   4.302   2.342  0.2435 -0.3984 -0.1769
 2983TIP3    H2 8956   0.479   4.300   2.207  1.9594  0.3658  0.6511
 2984TIP3   OH2 8957   5.574   0.598   3.482  0.2123 -0.4041 -0.0890
 2984TIP3    H1 8958   5.538   0.556   3.404 -1.8389 -0.5255  0.8588
 2984TIP3    H2 8959   5.518   0.674   3.497  1.8341  0.7937  0.1295
 2985TIP3   OH2 8960   0.572   3.169   4.593  0.3042 -0.5319  0.3625
 2985TIP3    H1 8961   0.543   3.181   4.503  1.0024 -0.5359  0.1351
 2985TIP3    H2 8962   0.512   3.103   4.629 -0.3719 -0.0721  0.1001
 2986TIP3   OH2 8963   1.828   2.288   2.485 -0.4096  0.2843  0.5667
 2986TIP3    H1 8964   1.765   2.218   2.500 -0.7051  0.1249 -1.1820
 2986TIP3    H2 8965   1.912   2.250   2.511 -0.5605 -0.7778 -0.3869
 2987TIP3   OH2 8966   4.498   2.923   3.019 -0.4763  0.1275  0.0986
 2987TIP3    H1 8967   4.535   2.924   2.930 -2.1724 -1.0881 -0.6773
 2987TIP3    H2 8968   4.570   2.891   3.074  0.2809 -0.1239 -0.9993
 2988TIP3   OH2 8969   4.029   0.324   4.652 -0.2602 -0.1377 -0.8110
 2988TIP3    H1 8970   4.042   0.379   4.729 -0.5447 -0.6527 -0.3812
 2988TIP3    H2 8971   4.014   0.385   4.580 -1.1727  0.3406 -0.2312
 2989TIP3   OH2 8972   4.880   2.474   3.684 -0.2663 -0.9513 -0.2670
 2989TIP3    H1 8973   4.824   2.545   3.654 -1.2018 -1.7010 -0.3495
 2989TIP3    H2 8974   4.967   2.513   3.693 -1.1203  0.6704  1.5570
 2990TIP3   OH2 8975   5.390   3.726   4.829 -0.0017 -0.3916  0.4255
 2990TIP3    H1 8976   5.323   3.705   4.764  1.3613 -0.1930 -1.1026
 2990TIP3    H2 8977   5.468   3.745   4.777  0.5842  1.9721  2.0027
 2991TIP3   OH2 8978   0.373   2.537   2.696 -0.1127 -0.8500  0.5663
 2991TIP3    H1 8979   0.406   2.457   2.655  1.2336 -0.1631  0.2759
 2991TIP3    H2 8980   0.278   2.532   2.685 -0.0413 -2.3376  0.4328
 2992TIP3   OH2 8981   2.169   0.849   0.779  0.0574 -0.4473  0.4248
 2992TIP3    H1 8982   2.167   0.848   0.875  1.5747 -0.9210  0.4737
 2992TIP3    H2 8983   2.194   0.938   0.756 -0.0842 -0.3942  0.4760
 2993TIP3   OH2 8984   1.912   2.834   3.386  0.5831  0.2372 -0.4831
 2993TIP3    H1 8985   1.980   2.804   3.326  0.4990  1.9545 -1.5344
 2993TIP3    H2 8986   1.837   2.851   3.329  0.1779  0.9597  0.2441
 2994TIP3   OH2 8987   0.089   1.055   3.802 -0.2959 -0.4060 -0.3325
 2994TIP3    H1 8988   0.028   1.127   3.786  0.3609  0.0056 -1.0708
 2994TIP3    H2 8989   0.048   1.004   3.871 -0.4056  1.1227  0.7802
 2995TIP3   OH2 8990   0.940   1.310   4.082 -0.5827  0.2515  0.2007
 2995TIP3    H1 8991   0.959   1.400   4.108  0.3384 -0.2171  1.2610
 2995TIP3    H2 8992   0.953   1.309   3.987  1.9104  0.6911  0.4653
 2996TIP3   OH2 8993   2.462   2.717   2.444 -0.4715  0.3167 -0.8515
 2996TIP3    H1 8994   2.422   2.795   2.483 -1.6582 -0.4745 -0.4584
 2996TIP3    H2 8995   2.450   2.649   2.509 -0.8509 -0.5827 -1.8403
 2997TIP3   OH2 8996   3.905   5.325   4.197  0.1904  0.4339 -0.1924
 2997TIP3    H1 8997   3.926   5.397   4.257 -1.1730  0.2243  0.5856
 2997TIP3    H2 8998   3.972   5.330   4.129  0.3345  2.2245  0.0313
 2998TIP3   OH2 8999   0.078   2.443   0.283 -0.1182  0.4958  0.6275
 2998TIP3    H1 9000   0.093   2.349   0.295 -0.6526  0.5090  1.4688
 2998TIP3    H2 9001  -0.005   2.448   0.237 -0.3989  0.5709  1.1414
 2999TIP3   OH2 9002   3.287   0.560   1.583 -0.3699  0.6694  0.2334
 2999TIP3    H1 9003   3.209   0.580   1.635  0.7264  0.6624  1.9492
 2999TIP3    H2 9004   3.336   0.498   1.636 -0.3337 -1.2721 -1.8916
 3000TIP3   OH2 9005   6.039   1.384   2.165 -0.1883  0.3363 -0.1948
 3000TIP3    H1 9006   5.977   1.334   2.111 -1.5091 -0.8505  2.2645
 3000TIP3    H2 9007   6.019   1.359   2.255  4.6694 -1.0640  0.7974
 3001TIP3   OH2 9008   1.809   1.981   1.730  1.0170 -0.5740 -0.1038
 3001TIP3    H1 9009   1.898   2.005   1.754  1.3479 -1.6872 -0.1566
 3001TIP3    H2 9010   1.799   1.891   1.762 -0.5855  0.0220  1.2200
 3002TIP3   OH2 9011   2.458   4.895   0.394  0.1375  0.0436  0.1003
 3002TIP3    H1 9012   2.447   4.885   0.300  0.1780 -1.3673  0.2302
 3002TIP3    H2 9013   2.425   4.814   0.432  0.1189  0.5860  1.3073
 3003TIP3   OH2 9014   4.339   1.110   3.336 -0.3205 -0.1622 -0.3705
 3003TIP3    H1 9015   4.259   1.115   3.284 -0.3110  0.7389 -0.3166
 3003TIP3    H2 9016   4.360   1.017   3.340 -2.9171 -0.7655  1.9395
 3004TIP3   OH2 9017   2.726   1.799   1.142 -0.0395 -0.2014 -0.1422
 3004TIP3    H1 9018   2.791   1.833   1.080  0.3681 -1.2485 -0.3223
 3004TIP3    H2 9019   2.642   1.822   1.103  0.2202  0.1455 -0.5100
 3005TIP3   OH2 9020   4.338   0.088   1.326 -0.3251 -0.5001 -0.4499
 3005TIP3    H1 9021   4.407   0.131   1.376  0.9163 -0.9427 -1.7100
 3005TIP3    H2 9022   4.314   0.012   1.379  0.7853 -0.8276 -0.3864
 3006TIP3   OH2 9023   1.202   0.797   3.630 -0.7256  0.1126  0.1166
 3006TIP3    H1 9024   1.110   0.775   3.614 -0.0811 -1.6438 -1.5721
 3006TIP3    H2 9025   1.248   0.761   3.554  1.6075 -0.9027  1.9315
 3007TIP3   OH2 9026   4.841   4.367   2.325 -0.2579  0.3614  0.1167
 3007TIP3    H1 9027   4.872   4.457   2.312 -1.5228  0.8237  0.1472
 3007TIP3    H2 9028   4.746   4.373   2.313 -0.2027 -1.2757 -1.5338
 3008TIP3   OH2 9029   6.156   4.891   0.786 -0.3555  0.5671  0.6928
 3008TIP3    H1 9030   6.182   4.851   0.703  0.1507 -1.6195  1.8198
 3008TIP3    H2 9031   6.237   4.929   0.821 -0.7652  2.3809 -0.2116
 3009TIP3   OH2 9032   3.930   2.667   0.382 -0.1530 -0.0758  0.1971
 3009TIP3    H1 9033   3.903   2.755   0.407  0.5072 -0.2598  1.6929
 3009TIP3    H2 9034   3.946   2.623   0.466  2.1215 -0.8002 -0.5463
 3010TIP3   OH2 9035   4.710   5.541   4.451  0.2184 -0.1713 -0.4023
 3010TIP3    H1 9036   4.797   5.529   4.413  1.1991  0.0926  1.6056
 3010TIP3    H2 9037   4.711   5.631   4.485 -1.0569  0.0270 -0.8487
 3011TIP3   OH2 9038   3.944   3.530   4.494  0.0370  0.0287 -0.3210
 3011TIP3    H1 9039   4.016   3.517   4.556 -0.8484  1.4645  1.1125
 3011TIP3    H2 9040   3.934   3.625   4.489 -2.9945 -0.0910  1.0959
 3012TIP3   OH2 9041   5.416   2.279   4.956  0.2217 -0.5489 -0.3099
 3012TIP3    H1 9042   5.475   2.326   4.898 -1.3814  0.0235 -1.5352
 3012TIP3    H2 9043   5.442   2.187   4.948  0.2750 -0.4339 -1.6762
 3013TIP3   OH2 9044   1.419   5.208   3.729  0.5028 -0.0013  0.5707
 3013TIP3    H1 9045   1.357   5.166   3.789  1.5484  0.5093  2.0797
 3013TIP3    H2 9046   1.498   5.221   3.782  1.6000  0.1763 -1.0371
 3014TIP3   OH2 9047   1.792   3.074   3.531  0.1199 -0.4418 -0.5154
 3014TIP3    H1 9048   1.886   3.059   3.529  0.6318  0.5187  4.1105
 3014TIP3    H2 9049   1.753   2.987   3.529  1.3675 -1.0520  0.4802
 3015TIP3   OH2 9050   6.178   4.512   1.634  0.0566 -0.5176  0.1604
 3015TIP3    H1 9051   6.152   4.599   1.663 -0.7228 -0.2882 -1.1751
 3015TIP3    H2 9052   6.195   4.521   1.540  0.1977 -1.7483  0.0507
 3016TIP3   OH2 9053   1.313   1.407   2.840 -0.1649  0.1519  0.2565
 3016TIP3    H1 9054   1.235   1.370   2.882 -0.1269  0.0394  0.2282
 3016TIP3    H2 9055   1.356   1.332   2.798  1.5372 -0.4088  2.6994
 3017TIP3   OH2 9056   1.450   0.706   1.245  0.5639  0.0486 -0.5936
 3017TIP3    H1 9057   1.413   0.628   1.204 -0.3644 -0.4286  1.0769
 3017TIP3    H2 9058   1.528   0.675   1.291  0.9211  0.3658 -0.9667
 3018TIP3   OH2 9059   0.116   2.332   1.488  0.1686  0.2182 -0.3088
 3018TIP3    H1 9060   0.045   2.271   1.507  1.7929 -0.9205  2.7549
 3018TIP3    H2 9061   0.182   2.279   1.443  0.2198  0.5504 -0.6252
 3019TIP3   OH2 9062   2.049   1.737   1.921 -0.1018  0.2816  0.2561
 3019TIP3    H1 9063   2.139   1.717   1.945  0.2620  1.8992  0.2856
 3019TIP3    H2 9064   1.998   1.710   1.997  0.0597 -2.5714 -0.5184
 3020TIP3   OH2 9065   3.230   4.531   4.680  0.3464  0.2917  0.2086
 3020TIP3    H1 9066   3.208   4.499   4.593 -1.0440  1.3759  0.1214
 3020TIP3    H2 9067   3.284   4.462   4.718 -0.7144 -1.1422 -0.7642
 3021TIP3   OH2 9068   3.769   0.390   1.052 -0.0441  0.2383 -0.0783
 3021TIP3    H1 9069   3.779   0.455   0.982 -1.8577  1.2165  0.4986
 3021TIP3    H2 9070   3.707   0.430   1.113 -0.4184 -1.6168  0.8263
 3022TIP3   OH2 9071   5.988   2.788   1.477  0.3756 -0.0535  0.1758
 3022TIP3    H1 9072   5.902   2.776   1.517  0.3264  0.3268  0.1871
 3022TIP3    H2 9073   5.992   2.723   1.407 -0.3481  0.6437 -0.5300
 3023TIP3   OH2 9074   2.969   3.053   1.838 -0.0659 -0.4518 -0.0719
 3023TIP3    H1 9075   2.999   3.106   1.911  1.1961 -0.8736 -0.2529
 3023TIP3    H2 9076   2.981   3.109   1.761  1.4020 -0.9930 -0.2807
 3024TIP3   OH2 9077   2.190   2.766   2.739 -0.0628  0.3319  0.7822
 3024TIP3    H1 9078   2.241   2.711   2.798  0.4671  4.8050  5.1828
 3024TIP3    H2 9079   2.106   2.778   2.784 -1.3490  0.7278 -1.5473
 3025TIP3   OH2 9080   5.509   4.467   2.644 -0.1762  0.0764 -0.1756
 3025TIP3    H1 9081   5.579   4.430   2.590  0.4774 -1.5525  1.6904
 3025TIP3    H2 9082   5.429   4.451   2.593  0.2682 -2.5292 -0.2190
 3026TIP3   OH2 9083   3.828   5.608   1.316 -0.1850  0.4667 -0.0563
 3026TIP3    H1 9084   3.813   5.632   1.224 -1.1450  0.1160 -0.0057
 3026TIP3    H2 9085   3.757   5.651   1.364  0.2419  0.5528  0.5154
 3027TIP3   OH2 9086   3.138   0.097   2.915  0.0953  0.0212  0.2173
 3027TIP3    H1 9087   3.088   0.144   2.848  0.9966  0.6242 -0.0578
 3027TIP3    H2 9088   3.173   0.021   2.870 -0.9146 -0.6459  0.5241
 3028TIP3   OH2 9089   4.818   4.229   4.206  0.3355 -0.3925 -0.0824
 3028TIP3    H1 9090   4.781   4.246   4.292 -1.3652 -1.9049 -0.4446
 3028TIP3    H2 9091   4.890   4.168   4.221  0.5696 -0.0252  0.3122
 3029TIP3   OH2 9092   3.037   4.872   1.352 -0.4924  0.1431  0.2668
 3029TIP3    H1 9093   3.040   4.878   1.447  0.5065  0.6866  0.2114
 3029TIP3    H2 9094   3.072   4.955   1.321 -0.5547 -0.1313 -0.5758
 3030TIP3   OH2 9095   1.367   2.137   5.042  0.1547  0.4648  0.0221
 3030TIP3    H1 9096   1.400   2.101   4.959  0.2769  0.0657  0.2414
 3030TIP3    H2 9097   1.378   2.066   5.105  0.5453  0.9420  0.4985
 3031TIP3   OH2 9098   2.393   5.802   4.011  0.1450 -0.2085 -1.1368
 3031TIP3    H1 9099   2.304   5.779   4.036  0.0748  0.9565 -0.1904
 3031TIP3    H2 9100   2.406   5.760   3.926  0.6315 -5.0307  1.0142
 3032TIP3   OH2 9101   4.163   2.243   1.920 -0.6463  0.3376  0.1304
 3032TIP3    H1 9102   4.082   2.265   1.874 -0.5339  0.8937  0.1977
 3032TIP3    H2 9103   4.181   2.318   1.977 -0.3126  0.0344  0.4366
 3033TIP3   OH2 9104   0.873   5.400   5.049  0.6994 -0.3989  0.1236
 3033TIP3    H1 9105   0.780   5.399   5.029  0.3304  0.7036  1.5736
 3033TIP3    H2 9106   0.914   5.349   4.979 -1.1859 -2.5665  0.4912
 3034TIP3   OH2 9107   5.059   5.766   3.206 -0.6470 -0.2019  0.1661
 3034TIP3    H1 9108   4.995   5.829   3.174 -1.9532 -1.0693  0.9465
 3034TIP3    H2 9109   5.007   5.701   3.253  0.8935 -0.3908  1.7540
 3035TIP3   OH2 9110   1.802   1.540   5.133 -0.2291 -0.5430  0.4591
 3035TIP3    H1 9111   1.716   1.555   5.094 -0.2665 -0.5854  0.5266
 3035TIP3    H2 9112   1.806   1.600   5.207 -0.0503 -0.2647  0.2289
 3036TIP3   OH2 9113   4.134   0.093   0.591  0.2890  0.0816  0.0370
 3036TIP3    H1 9114   4.082   0.155   0.540  1.5454  0.1170 -1.2474
 3036TIP3    H2 9115   4.166   0.144   0.665 -1.2735  0.1171  0.7240
 3037TIP3   OH2 9116   3.785   0.049   3.530 -0.9373  0.2838 -0.2634
 3037TIP3    H1 9117   3.737   0.063   3.449 -0.4556  0.2562 -0.5549
 3037TIP3    H2 9118   3.781  -0.045   3.545 -1.4083  0.3408 -0.0159
 3038TIP3   OH2 9119   4.670   2.107   3.438 -0.3030 -0.2904 -0.2625
 3038TIP3    H1 9120   4.681   2.155   3.356 -1.3642 -1.0190 -0.8640
 3038TIP3    H2 9121   4.660   2.174   3.505 -0.8813  0.3323 -0.9573
 3039TIP3   OH2 9122   3.707   2.213   0.457 -0.2773 -0.5149  0.0145
 3039TIP3    H1 9123   3.685   2.290   0.510  0.4545  1.3300 -2.1629
 3039TIP3    H2 9124   3.626   2.193   0.410 -0.7231 -1.7014  1.2251
 3040TIP3   OH2 9125   1.582   5.466   3.633 -0.6524  0.3575  0.4313
 3040TIP3    H1 9126   1.546   5.445   3.547 -0.6471 -0.3216  0.5923
 3040TIP3    H2 9127   1.628   5.386   3.661  1.4491  1.3462  0.0073
 3041TIP3   OH2 9128   2.074   1.113   4.601  0.3495 -0.3179  0.1533
 3041TIP3    H1 9129   2.021   1.073   4.669 -1.1920 -0.4614 -1.0813
 3041TIP3    H2 9130   2.151   1.147   4.647 -1.0148  0.3116  2.0789
 3042TIP3   OH2 9131   1.678   0.084   4.850 -0.0675 -0.4444 -0.5608
 3042TIP3    H1 9132   1.586   0.061   4.863 -0.1974  0.7365  0.8983
 3042TIP3    H2 9133   1.715   0.088   4.938  1.3744 -0.7780 -1.1097
 3043TIP3   OH2 9134   4.804   2.995   1.398  0.6286  0.6003  0.5570
 3043TIP3    H1 9135   4.795   3.045   1.480 -0.6480  0.3236  0.5972
 3043TIP3    H2 9136   4.730   3.024   1.344  0.7514 -0.1295 -0.0155
 3044TIP3   OH2 9137   2.139   4.129   1.768  0.1101 -0.1508 -0.4611
 3044TIP3    H1 9138   2.061   4.124   1.714  0.9118 -0.4308 -1.6364
 3044TIP3    H2 9139   2.153   4.039   1.798 -2.1471  0.4552  3.0005
 3045TIP3   OH2 9140   5.234   4.893   1.882  0.4050  0.8903  0.0199
 3045TIP3    H1 9141   5.281   4.815   1.851 -0.6127  0.7781 -1.3385
 3045TIP3    H2 9142   5.245   4.891   1.977 -1.0370 -1.8977  0.2393
 3046TIP3   OH2 9143   4.007   0.017   0.156  0.2239 -0.1339  0.6737
 3046TIP3    H1 9144   3.938   0.047   0.215  0.7659  0.4862  0.9993
 3046TIP3    H2 9145   4.084   0.068   0.181  0.5486 -0.1091 -0.3357
 3047TIP3   OH2 9146   6.128   3.090   3.934  0.1355 -0.2363  0.1606
 3047TIP3    H1 9147   6.222   3.104   3.943  0.2684 -0.2680 -1.0862
 3047TIP3    H2 9148   6.115   2.997   3.952  0.3366 -0.2307  0.3351
 3048TIP3   OH2 9149   0.207   0.760   1.473 -0.0171  0.4014 -0.3455
 3048TIP3    H1 9150   0.147   0.756   1.547  1.4480 -1.6937  0.8559
 3048TIP3    H2 9151   0.287   0.799   1.508  0.1171  1.0303 -1.3069
 3049TIP3   OH2 9152   5.213   3.731   3.468 -0.0788 -0.1698  0.2639
 3049TIP3    H1 9153   5.218   3.826   3.483 -0.9613 -0.3702  2.0680
 3049TIP3    H2 9154   5.138   3.721   3.409 -0.8986  0.1728  1.2194
 3050TIP3   OH2 9155   4.060   3.816   1.578  0.0529 -0.0463 -0.2976
 3050TIP3    H1 9156   4.076   3.906   1.549  0.9083 -0.3971 -0.9753
 3050TIP3    H2 9157   4.145   3.785   1.609 -0.2854 -0.5498  0.1630
 3051TIP3   OH2 9158   2.530   1.782   5.138 -0.2651  0.0014 -0.4625
 3051TIP3    H1 9159   2.568   1.740   5.060 -0.0283 -0.5725 -0.0476
 3051TIP3    H2 9160   2.597   1.773   5.205 -0.5006  0.4255 -0.1661
 3052TIP3   OH2 9161   1.012   4.761   3.222 -0.0481  0.0409  0.2732
 3052TIP3    H1 9162   1.104   4.762   3.248 -0.8613  0.2680  3.5604
 3052TIP3    H2 9163   0.986   4.853   3.220 -0.3390 -0.0448 -0.1250
 3053TIP3   OH2 9164   5.326   5.499   2.461  0.1342 -0.3546  0.8625
 3053TIP3    H1 9165   5.304   5.478   2.370  1.3891  0.6296  0.3027
 3053TIP3    H2 9166   5.242   5.496   2.507 -0.5438 -0.7380 -0.3476
 3054TIP3   OH2 9167   0.830   4.401   4.836 -0.1078 -0.5370  0.6789
 3054TIP3    H1 9168   0.880   4.370   4.912  0.5190 -0.8993  0.1275
 3054TIP3    H2 9169   0.868   4.486   4.816  0.7288 -1.0876 -0.1275
 3055TIP3   OH2 9170   2.657   1.826   2.303 -0.1973  0.2556 -0.0131
 3055TIP3    H1 9171   2.689   1.882   2.233  0.5184  1.1673  1.0216
 3055TIP3    H2 9172   2.567   1.854   2.317  0.3659  1.6792  0.9754
 3056TIP3   OH2 9173   3.225   2.038   0.245  0.1892  0.1260  0.0452
 3056TIP3    H1 9174   3.133   2.056   0.224  0.0839 -1.1709 -0.7885
 3056TIP3    H2 9175   3.253   1.979   0.175  1.8785  1.0784 -0.1053
 3057TIP3   OH2 9176   0.598   1.814   0.300 -0.3874 -0.3518  0.0624
 3057TIP3    H1 9177   0.678   1.847   0.341 -1.0697  0.1163  1.0679
 3057TIP3    H2 9178   0.532   1.881   0.319 -1.3385 -1.3542  0.4395
 3058TIP3   OH2 9179   5.472   2.945   1.960 -0.0124  0.2675 -0.4420
 3058TIP3    H1 9180   5.398   2.934   1.901 -0.2028  0.8428 -0.3144
 3058TIP3    H2 9181   5.440   3.004   2.028 -0.3448 -1.6787  1.1842
 3059TIP3   OH2 9182   0.917   2.582   0.746 -0.0128 -0.2978 -0.2913
 3059TIP3    H1 9183   0.940   2.531   0.824  0.4006 -1.5455 -1.1943
 3059TIP3    H2 9184   0.960   2.536   0.674  0.5248  1.4715 -1.1329
 3060TIP3   OH2 9185   6.210   2.213   2.255  0.6597  0.0931 -0.5984
 3060TIP3    H1 9186   6.199   2.306   2.275  1.1621 -0.0311  0.2638
 3060TIP3    H2 9187   6.189   2.168   2.337 -1.1917 -0.6647 -1.4288
 3061TIP3   OH2 9188   2.520   2.789   2.190  0.7758 -0.1926  0.5188
 3061TIP3    H1 9189   2.480   2.734   2.258 -0.4199 -0.8061 -0.6335
 3061TIP3    H2 9190   2.529   2.875   2.231 -0.1679 -0.4724  1.3697
 3062TIP3   OH2 9191   5.696   0.408   1.416  0.4293 -0.2514  0.5527
 3062TIP3    H1 9192   5.713   0.414   1.510 -0.1878  0.7590  0.6198
 3062TIP3    H2 9193   5.655   0.492   1.394  2.2840  0.3220 -0.9841
 3063TIP3   OH2 9194   4.983   5.659   0.422 -0.6560  0.0136  0.2945
 3063TIP3    H1 9195   5.070   5.647   0.460 -1.3219  0.1858  1.9618
 3063TIP3    H2 9196   4.977   5.753   0.407 -0.7503  0.0766  0.7071
 3064TIP3   OH2 9197   5.248   2.333   4.372 -0.5981  0.3829 -0.3950
 3064TIP3    H1 9198   5.300   2.361   4.448 -1.7763  1.8595 -0.0929
 3064TIP3    H2 9199   5.252   2.407   4.312 -2.4534  0.5878 -0.3042
 3065TIP3   OH2 9200   0.270   5.742   2.955  0.0726  0.6621 -0.0696
 3065TIP3    H1 9201   0.236   5.825   2.921 -0.2278  1.0407  1.1220
 3065TIP3    H2 9202   0.350   5.728   2.904 -0.2422  1.3155 -0.7796
 3066TIP3   OH2 9203   0.342   1.998   3.439  0.5106 -0.5394  0.2695
 3066TIP3    H1 9204   0.342   1.937   3.366  0.5949  0.5720 -0.6737
 3066TIP3    H2 9205   0.434   2.023   3.451  0.5717 -1.1084  1.1091
 3067TIP3   OH2 9206   5.727   0.889   1.210  0.0304 -0.2508 -0.7669
 3067TIP3    H1 9207   5.814   0.859   1.180  0.4108  0.0872 -0.0255
 3067TIP3    H2 9208   5.681   0.808   1.232 -0.2924 -0.5186 -2.3059
 3068TIP3   OH2 9209   3.919   4.078   4.597 -0.6310 -0.5955 -0.4994
 3068TIP3    H1 9210   3.845   4.018   4.585  0.0769 -1.1678 -2.2811
 3068TIP3    H2 9211   3.917   4.134   4.519 -0.3632  0.7165  0.4057
 3069TIP3   OH2 9212   5.547   5.398   4.660  0.2629 -0.3639 -0.0885
 3069TIP3    H1 9213   5.467   5.399   4.607 -0.2077  1.5330  0.5543
 3069TIP3    H2 9214   5.551   5.486   4.698  2.6301 -0.4252 -0.0384
 3070TIP3   OH2 9215   3.348   5.928   3.404 -0.0162  0.3665  0.2867
 3070TIP3    H1 9216   3.356   5.927   3.309 -0.0052 -0.7390  0.2903
 3070TIP3    H2 9217   3.381   5.843   3.432 -0.5023  0.4781  1.2412
 3071TIP3   OH2 9218   4.238   0.132   0.224 -0.6871 -0.4107  0.2052
 3071TIP3    H1 9219   4.221   0.216   0.266 -0.9151 -0.5097  0.3124
 3071TIP3    H2 9220   4.289   0.082   0.288  0.8118  0.2095 -0.4544
 3072TIP3   OH2 9221   2.780   0.389   2.478 -0.5511 -0.5045  0.2932
 3072TIP3    H1 9222   2.761   0.433   2.561  0.1305 -0.7941  0.6152
 3072TIP3    H2 9223   2.751   0.298   2.492 -3.9956  0.2117 -1.1001
 3073TIP3   OH2 9224   1.637   4.852   4.353 -0.5079  0.3917  0.1984
 3073TIP3    H1 9225   1.583   4.803   4.414 -0.3111 -0.7973 -0.5602
 3073TIP3    H2 9226   1.725   4.815   4.363 -0.0500  1.5162  0.5844
 3074TIP3   OH2 9227   5.171   3.378   1.310 -0.0285 -0.1566 -0.8196
 3074TIP3    H1 9228   5.114   3.422   1.247 -0.1244 -0.1334 -0.7155
 3074TIP3    H2 9229   5.223   3.318   1.256  0.0934  0.0719 -0.9608
 3075TIP3   OH2 9230   1.868   3.411   4.805  0.3935 -0.0610 -0.2974
 3075TIP3    H1 9231   1.887   3.494   4.762  0.0193 -0.5738 -1.4905
 3075TIP3    H2 9232   1.929   3.349   4.765  1.2768 -0.2130  1.2017
 3076TIP3   OH2 9233   1.219   0.067   2.007 -0.1256  0.3313  0.6729
 3076TIP3    H1 9234   1.146   0.011   2.032 -1.1497  1.3469  0.0438
 3076TIP3    H2 9235   1.252   0.101   2.091  0.1384 -0.7297  1.0142
 3077TIP3   OH2 9236   1.723   4.546   3.458  0.1819  0.7782 -0.2172
 3077TIP3    H1 9237   1.795   4.495   3.496 -1.8300 -0.9036  1.6034
 3077TIP3    H2 9238   1.729   4.631   3.500  0.7631  0.4545  0.3720
 3078TIP3   OH2 9239   5.731   0.384   1.689 -0.0970  0.2047 -0.2023
 3078TIP3    H1 9240   5.762   0.308   1.738 -0.1487  0.6514  0.5408
 3078TIP3    H2 9241   5.749   0.459   1.746  0.2887  0.8006 -1.0732
 3079TIP3   OH2 9242   1.602   4.323   0.234 -0.0435 -0.2990  0.6204
 3079TIP3    H1 9243   1.523   4.351   0.188  0.5637 -1.0266 -0.9637
 3079TIP3    H2 9244   1.663   4.298   0.164  0.7028 -2.1087  1.8170
 3080TIP3   OH2 9245   5.720   4.191   2.674  0.1145 -0.0826  0.0952
 3080TIP3    H1 9246   5.667   4.176   2.752 -3.1084  0.9857 -1.6812
 3080TIP3    H2 9247   5.789   4.125   2.678 -1.2288 -1.4840  2.7214
 3081TIP3   OH2 9248   5.572   4.670   4.699  0.2293 -0.4623 -0.0277
 3081TIP3    H1 9249   5.624   4.728   4.642  0.7604  0.2599  1.1509
 3081TIP3    H2 9250   5.493   4.651   4.648 -0.0318  1.4189 -0.4179
 3082TIP3   OH2 9251   4.404   1.965   2.093  0.8732  0.0041  0.2364
 3082TIP3    H1 9252   4.451   1.990   2.014  0.2749 -0.0358 -0.1406
 3082TIP3    H2 9253   4.385   1.872   2.082 -0.9810  0.4329 -0.5264
 3083TIP3   OH2 9254   4.782   0.937   3.823  0.8134  0.0703 -0.0632
 3083TIP3    H1 9255   4.828   0.865   3.867 -0.9772 -1.0277  0.1021
 3083TIP3    H2 9256   4.729   0.977   3.892 -2.2507 -1.8494 -1.0904
 3084TIP3   OH2 9257   1.347   3.179   0.997  0.1803 -0.1533 -0.9239
 3084TIP3    H1 9258   1.369   3.110   0.935 -0.1385 -0.8153 -0.3116
 3084TIP3    H2 9259   1.251   3.178   1.001  0.2236 -1.3745  0.9436
 3085TIP3   OH2 9260   5.549   3.932   3.600  0.0236 -0.4008  0.2181
 3085TIP3    H1 9261   5.570   3.921   3.693  0.7209 -2.8684 -0.1544
 3085TIP3    H2 9262   5.634   3.938   3.557 -0.2864  0.1137 -0.3307
 3086TIP3   OH2 9263   4.640   3.686   4.377  0.4635  0.3794 -0.3195
 3086TIP3    H1 9264   4.721   3.726   4.345  0.9029 -1.3262 -1.4869
 3086TIP3    H2 9265   4.589   3.668   4.298 -1.3144  1.8558  0.4274
 3087TIP3   OH2 9266   1.403   3.017   1.981  0.0104 -0.0148 -0.3091
 3087TIP3    H1 9267   1.363   3.082   2.039  1.3915  0.7610 -0.1694
 3087TIP3    H2 9268   1.465   2.970   2.038  2.1010  1.3968 -1.2632
 3088TIP3   OH2 9269   5.418   5.239   4.055 -0.0300  0.5745  0.4517
 3088TIP3    H1 9270   5.338   5.198   4.022 -0.6893  2.5244 -0.5199
 3088TIP3    H2 9271   5.425   5.207   4.145 -1.3954 -0.3457  0.2689
 3089TIP3   OH2 9272   4.672   4.306   2.023  0.3400  0.0060  0.1134
 3089TIP3    H1 9273   4.759   4.344   2.021  0.5135 -0.4082 -0.9001
 3089TIP3    H2 9274   4.632   4.341   2.103  1.1561  0.8008  0.1878
 3090TIP3   OH2 9275   5.847   0.916   0.743  0.3851 -0.1589 -0.1243
 3090TIP3    H1 9276   5.809   0.997   0.710 -1.0077 -0.5774  0.3965
 3090TIP3    H2 9277   5.875   0.869   0.665  1.5653  0.9615 -0.4219
 3091TIP3   OH2 9278   3.456   1.295   1.064 -0.4367 -0.4022  0.1468
 3091TIP3    H1 9279   3.548   1.269   1.069 -0.2772 -0.0254 -0.7366
 3091TIP3    H2 9280   3.455   1.386   1.093 -0.5037 -0.3496 -0.0183
 3092TIP3   OH2 9281   0.906   1.346   3.455 -0.0864 -0.3432  0.2849
 3092TIP3    H1 9282   0.815   1.357   3.428  0.2257  0.7117 -0.3724
 3092TIP3    H2 9283   0.913   1.254   3.480 -1.1989 -0.5496 -0.1433
 3093TIP3   OH2 9284   5.594   2.387   4.787 -0.2049 -0.4872 -0.4016
 3093TIP3    H1 9285   5.629   2.321   4.726 -0.5901 -0.1563 -0.9887
 3093TIP3    H2 9286   5.645   2.465   4.769  0.8615 -0.8573  0.9200
 3094TIP3   OH2 9287   1.921   0.193   2.032  0.2802  0.6167  0.4733
 3094TIP3    H1 9288   1.874   0.118   2.068 -2.4352  1.9068 -0.1270
 3094TIP3    H2 9289   1.891   0.200   1.941  2.3600  1.0331 -0.2586
 3095TIP3   OH2 9290   4.984   0.738   0.122 -0.1684 -0.0327 -0.6348
 3095TIP3    H1 9291   4.984   0.698   0.035 -2.6043  0.7232 -1.0627
 3095TIP3    H2 9292   4.962   0.667   0.181 -0.5731 -0.1310 -0.9018
 3096TIP3   OH2 9293   2.617   0.945   1.838 -0.1424  0.5661  0.1836
 3096TIP3    H1 9294   2.606   1.018   1.778 -2.0914 -0.9117 -1.4258
 3096TIP3    H2 9295   2.711   0.929   1.841  0.2371  2.5587 -0.0906
 3097TIP3   OH2 9296   2.194   4.385   4.176 -0.2151  0.6178  0.2267
 3097TIP3    H1 9297   2.173   4.322   4.245  1.4855 -0.8948 -0.5702
 3097TIP3    H2 9298   2.282   4.416   4.198 -0.5291  1.7762 -0.1027
 3098TIP3   OH2 9299   0.263   2.500   4.574 -0.1675 -0.2323 -0.6815
 3098TIP3    H1 9300   0.252   2.564   4.644 -3.0728 -1.2176 -0.0987
 3098TIP3    H2 9301   0.296   2.422   4.618 -0.6914 -0.4294 -0.6325
 3099TIP3   OH2 9302   0.834   1.329   2.117  0.4326  0.0494  0.2247
 3099TIP3    H1 9303   0.792   1.253   2.077  2.1960 -2.3567  2.6262
 3099TIP3    H2 9304   0.918   1.335   2.073  0.4289  0.4085  0.2678
 3100TIP3   OH2 9305   0.241   4.363   1.391  0.2545  0.0591 -0.1300
 3100TIP3    H1 9306   0.251   4.456   1.412  0.2958  0.4275 -1.6673
 3100TIP3    H2 9307   0.293   4.318   1.458  0.8779  1.1845  0.1734
 3101TIP3   OH2 9308   4.556   5.634   3.506 -0.2184  0.0355  0.4257
 3101TIP3    H1 9309   4.559   5.656   3.413  1.3176  1.9183  0.8566
 3101TIP3    H2 9310   4.600   5.549   3.511 -0.9433 -0.4223 -0.6418
 3102TIP3   OH2 9311   5.865   1.373   0.108 -0.1251 -0.4083 -0.3283
 3102TIP3    H1 9312   5.923   1.404   0.178  0.5668 -1.3212 -0.4782
 3102TIP3    H2 9313   5.870   1.277   0.114  1.9816 -0.5954 -3.2156
 3103TIP3   OH2 9314   5.203   0.972   0.203 -0.2754 -0.2274  0.1680
 3103TIP3    H1 9315   5.145   0.904   0.168 -1.2006  1.0510 -0.9015
 3103TIP3    H2 9316   5.272   0.923   0.248  1.3307 -2.1286 -3.8093
 3104TIP3   OH2 9317   0.053   4.695   3.268  0.1833  0.2500  0.3439
 3104TIP3    H1 9318  -0.036   4.707   3.236  0.2549  0.1941  0.1207
 3104TIP3    H2 9319   0.044   4.637   3.344  0.1512 -0.7552 -0.4080
 3105TIP3   OH2 9320   2.961   3.810   3.309 -0.6805 -0.1063 -0.0390
 3105TIP3    H1 9321   3.029   3.849   3.255  1.0313 -2.4062  0.2909
 3105TIP3    H2 9322   2.887   3.798   3.250  0.3846 -0.5954 -1.3185
 3106TIP3   OH2 9323   5.647   0.655   2.593 -0.1127 -0.2392  0.1144
 3106TIP3    H1 9324   5.677   0.683   2.680  2.2445  0.1350 -0.7304
 3106TIP3    H2 9325   5.723   0.671   2.536 -0.6631 -2.9132 -1.5303
 3107TIP3   OH2 9326   1.948   1.035   4.859  0.8063 -0.2488 -0.5759
 3107TIP3    H1 9327   1.885   1.098   4.895  0.4299  0.6269 -2.6452
 3107TIP3    H2 9328   2.014   1.026   4.927 -0.3248  0.6222  0.7004
 3108TIP3   OH2 9329   2.111   4.109   3.723 -0.6669  0.0088 -0.2719
 3108TIP3    H1 9330   2.037   4.166   3.744  0.1473  0.8831  0.3117
 3108TIP3    H2 9331   2.136   4.070   3.807 -0.1870  0.0538 -0.3931
 3109TIP3   OH2 9332   1.470   2.327   2.118 -0.4196  0.0481 -0.2024
 3109TIP3    H1 9333   1.540   2.359   2.175 -1.2238 -0.3207  1.0469
 3109TIP3    H2 9334   1.466   2.233   2.135 -0.0363 -0.2495 -1.6217
 3110TIP3   OH2 9335   1.721   3.035   1.180 -0.4788 -0.2147 -0.3691
 3110TIP3    H1 9336   1.674   3.012   1.261 -1.7504 -0.2025 -1.0680
 3110TIP3    H2 9337   1.813   3.025   1.202 -0.7380  0.8827  1.4199
 3111TIP3   OH2 9338   3.306   4.592   1.708 -0.1544 -0.1318 -0.3489
 3111TIP3    H1 9339   3.257   4.651   1.651  0.4128 -0.1109 -0.8329
 3111TIP3    H2 9340   3.378   4.561   1.653 -0.1992 -0.9385  0.0315
 3112TIP3   OH2 9341   3.894   4.586   2.564  0.3926 -0.1390  0.0055
 3112TIP3    H1 9342   3.907   4.675   2.531  0.0409 -0.4127 -0.8825
 3112TIP3    H2 9343   3.888   4.531   2.486 -0.4795 -0.7891  0.5046
 3113TIP3   OH2 9344   0.507   1.969   2.909  0.5970  0.5901  0.4459
 3113TIP3    H1 9345   0.439   1.927   2.856 -0.0341  0.6832  1.1689
 3113TIP3    H2 9346   0.494   2.063   2.893  1.5857  0.5571 -0.6553
 3114TIP3   OH2 9347   1.282   2.827   4.756  0.3582 -0.0126 -0.3612
 3114TIP3    H1 9348   1.261   2.740   4.721 -0.9812 -0.9593  2.4815
 3114TIP3    H2 9349   1.225   2.887   4.707  0.0116 -0.9593 -1.1497
 3115TIP3   OH2 9350   6.103   3.425   0.258 -0.4917  0.5795 -0.1883
 3115TIP3    H1 9351   6.069   3.512   0.240 -0.6045  0.1087 -2.5572
 3115TIP3    H2 9352   6.189   3.423   0.216 -0.2948 -0.2997  0.2275
 3116TIP3   OH2 9353   6.353   4.603   0.562 -0.6283  0.3331  0.6977
 3116TIP3    H1 9354   6.298   4.681   0.549 -1.2760 -0.0024  1.3566
 3116TIP3    H2 9355   6.292   4.536   0.591  0.3653  0.4405  3.2574
 3117TIP3   OH2 9356   1.174   1.673   3.740  0.0597  0.5996 -0.0061
 3117TIP3    H1 9357   1.136   1.607   3.683  1.7155  1.1038 -1.8270
 3117TIP3    H2 9358   1.235   1.721   3.684 -0.8837  3.5527  1.2540
 3118TIP3   OH2 9359   2.463   4.244   2.090  0.1019 -0.1841 -0.6156
 3118TIP3    H1 9360   2.385   4.279   2.134 -0.2367 -0.7590 -0.7555
 3118TIP3    H2 9361   2.474   4.300   2.014  0.0387  0.1249 -0.4027
 3119TIP3   OH2 9362   1.091   5.238   0.043 -0.0215  0.1292  0.0731
 3119TIP3    H1 9363   1.129   5.222  -0.044 -0.8128 -1.5776  0.0192
 3119TIP3    H2 9364   1.003   5.202   0.038 -0.2828  0.5270  1.4335
 3120TIP3   OH2 9365   2.387   0.714   3.956  0.2265  0.0392  0.1651
 3120TIP3    H1 9366   2.297   0.693   3.933  0.3159  0.1822 -0.3154
 3120TIP3    H2 9367   2.396   0.807   3.939  0.8948 -0.2602 -1.2572
 3121TIP3   OH2 9368   1.786   4.134   2.096  0.0467 -0.2318 -0.1336
 3121TIP3    H1 9369   1.779   4.219   2.139 -0.1746  0.1472 -0.9085
 3121TIP3    H2 9370   1.879   4.115   2.094  0.2472  0.7795 -1.4482
 3122TIP3   OH2 9371   4.235   2.702   2.539 -0.5999  0.2655 -0.4241
 3122TIP3    H1 9372   4.237   2.791   2.503  1.9753  1.5491  2.3721
 3122TIP3    H2 9373   4.174   2.708   2.613 -2.0210 -0.9326 -1.4556
 3123TIP3   OH2 9374   5.555   0.621   1.365  0.2911  0.3708  1.1596
 3123TIP3    H1 9375   5.559   0.695   1.426 -0.8333  0.3551  1.2614
 3123TIP3    H2 9376   5.464   0.618   1.336  0.7183  0.1550 -0.2559
 3124TIP3   OH2 9377   0.335   0.707   3.537  0.7133 -0.1892 -0.0893
 3124TIP3    H1 9378   0.352   0.700   3.631 -0.6716 -0.1117  0.1867
 3124TIP3    H2 9379   0.282   0.786   3.527 -0.2758 -0.9064 -0.7578
 3125TIP3   OH2 9380   5.885   1.107   0.169 -0.3623  0.0559 -0.3986
 3125TIP3    H1 9381   5.893   1.014   0.147 -0.8704  0.1424 -0.9423
 3125TIP3    H2 9382   5.946   1.119   0.242 -0.8628 -0.8709  0.1884
 3126TIP3   OH2 9383   3.699   4.014   3.007  0.1224  0.2112 -0.2079
 3126TIP3    H1 9384   3.758   4.080   3.043  0.0147  0.2423 -0.0906
 3126TIP3    H2 9385   3.749   3.932   3.012  0.2209  0.2670 -0.2705
 3127TIP3   OH2 9386   3.167   3.289   0.803  0.1874  0.4146 -0.0188
 3127TIP3    H1 9387   3.119   3.222   0.755  0.4264  0.5063 -0.3929
 3127TIP3    H2 9388   3.259   3.273   0.780  0.3064  0.4261  0.4530
 3128TIP3   OH2 9389   2.485   2.574   1.545  0.2973  0.0479  0.0126
 3128TIP3    H1 9390   2.410   2.514   1.551  1.2248 -1.0685  0.9226
 3128TIP3    H2 9391   2.521   2.558   1.458 -1.0570  1.3074 -0.8310
 3129TIP3   OH2 9392   3.754   0.280   4.704 -0.3790 -0.0104  0.9210
 3129TIP3    H1 9393   3.830   0.261   4.649 -0.1575  0.0544  1.2041
 3129TIP3    H2 9394   3.756   0.213   4.772  0.6453  1.2119  2.1680
 3130TIP3   OH2 9395   5.662   3.692   0.696 -0.6461 -0.1510 -0.0325
 3130TIP3    H1 9396   5.639   3.743   0.618 -1.0227  0.3687  0.4113
 3130TIP3    H2 9397   5.752   3.665   0.680 -0.2385  1.1299 -0.0431
 3131TIP3   OH2 9398   1.944   3.669   0.718  0.2754 -0.6026  0.1884
 3131TIP3    H1 9399   1.953   3.710   0.632  0.8630 -0.1501  0.4566
 3131TIP3    H2 9400   2.033   3.667   0.753 -0.1290  0.5828  1.3873
 3132TIP3   OH2 9401   2.554   3.492   1.983  0.3401  0.3108  0.6664
 3132TIP3    H1 9402   2.634   3.510   2.032  0.9731  1.6763 -0.8069
 3132TIP3    H2 9403   2.487   3.544   2.028  0.3251 -0.5728  1.6995
 3133TIP3   OH2 9404   6.087   3.308   2.252  0.1513  0.4178  0.2096
 3133TIP3    H1 9405   6.171   3.268   2.229  0.2962  0.0755  1.2736
 3133TIP3    H2 9406   6.073   3.374   2.184  0.3736 -0.7628 -1.0410
 3134TIP3   OH2 9407   5.425   0.658   4.309 -0.2596 -0.1659  0.3775
 3134TIP3    H1 9408   5.388   0.737   4.349 -1.2448 -0.3418 -0.1564
 3134TIP3    H2 9409   5.387   0.656   4.221  0.3745 -0.8202  0.1093
 3135TIP3   OH2 9410   5.123   1.262   4.809  0.0198 -0.0841  0.0221
 3135TIP3    H1 9411   5.048   1.259   4.869 -0.9766 -0.8969 -1.2199
 3135TIP3    H2 9412   5.088   1.304   4.730  1.2534  0.7788 -0.0819
 3136TIP3   OH2 9413   2.233   0.593   3.150  0.1855 -0.4662 -0.4195
 3136TIP3    H1 9414   2.310   0.540   3.128  0.6588 -0.7866  1.7636
 3136TIP3    H2 9415   2.252   0.680   3.115  1.9808 -0.3148  0.8134
 3137TIP3   OH2 9416   3.272   4.448   0.228  0.2271  0.6780  0.2041
 3137TIP3    H1 9417   3.225   4.439   0.145 -1.4890  0.7741  1.1075
 3137TIP3    H2 9418   3.245   4.534   0.261  2.2994  1.4312  0.0560
 3138TIP3   OH2 9419   0.356   5.092   2.278  0.0138 -0.0175  0.1996
 3138TIP3    H1 9420   0.262   5.077   2.289 -0.1197  0.4440 -0.2796
 3138TIP3    H2 9421   0.392   5.005   2.259 -0.2048 -0.3133  1.1032
 3139TIP3   OH2 9422   0.004   2.703   0.843 -0.3642 -0.2147  0.3477
 3139TIP3    H1 9423   0.084   2.725   0.796 -0.4862 -0.8468 -0.1737
 3139TIP3    H2 9424   0.022   2.618   0.884 -1.1263 -0.9100 -0.6914
 3140TIP3   OH2 9425   1.233   4.579   4.887  0.4327  0.7879  0.3352
 3140TIP3    H1 9426   1.183   4.569   4.968  0.9762 -0.3107  0.5526
 3140TIP3    H2 9427   1.259   4.490   4.863  2.4403  1.3309  0.3326
 3141TIP3   OH2 9428   4.576   4.076   2.243 -0.1978 -0.0706 -0.0788
 3141TIP3    H1 9429   4.621   4.047   2.164 -0.8267 -0.6493 -0.2318
 3141TIP3    H2 9430   4.507   4.011   2.257 -0.7089  0.5576  0.3938
 3142TIP3   OH2 9431   3.891   2.087   2.839 -0.0255 -0.2168 -0.2745
 3142TIP3    H1 9432   3.926   2.076   2.928 -0.1336 -0.8919 -0.3111
 3142TIP3    H2 9433   3.826   2.157   2.848 -1.1383 -1.2963  0.5023
 3143TIP3   OH2 9434   4.498   5.422   4.145 -0.1393  0.0483 -0.7446
 3143TIP3    H1 9435   4.554   5.488   4.186 -0.5653 -0.0047 -0.0590
 3143TIP3    H2 9436   4.475   5.460   4.060  0.2106  0.4591 -0.6608
 3144TIP3   OH2 9437   1.054   4.107   3.027  0.5247  0.0799 -0.0316
 3144TIP3    H1 9438   1.052   4.117   3.122  0.9010  0.1811 -0.0314
 3144TIP3    H2 9439   1.086   4.018   3.012  0.2261 -0.0211 -0.0600
 3145TIP3   OH2 9440   0.265   1.802   2.140  0.7874 -0.2174 -0.1003
 3145TIP3    H1 9441   0.245   1.710   2.155  0.4180 -0.4010 -1.5899
 3145TIP3    H2 9442   0.339   1.820   2.198  0.3955 -1.2519  0.7390
 3146TIP3   OH2 9443   4.929   3.139   4.305  0.1297 -0.4227 -0.1236
 3146TIP3    H1 9444   4.958   3.140   4.214  0.5101 -1.1302 -0.0234
 3146TIP3    H2 9445   4.872   3.062   4.311 -0.0624 -0.2578  0.1811
 3147TIP3   OH2 9446   0.246   5.794   4.214  0.0281 -0.2742  0.2529
 3147TIP3    H1 9447   0.299   5.841   4.278 -1.1395  1.5320 -0.0587
 3147TIP3    H2 9448   0.156   5.808   4.242 -0.3939 -2.7857  0.4332
 3148TIP3   OH2 9449   3.987   4.575   2.824 -0.0770  0.1940 -0.6581
 3148TIP3    H1 9450   3.951   4.607   2.741  0.4637  0.3713 -0.8303
 3148TIP3    H2 9451   3.951   4.635   2.889  0.0772  0.5026 -0.8528
 3149TIP3   OH2 9452   2.127   0.563   1.902  0.7076 -0.0275 -0.0286
 3149TIP3    H1 9453   2.121   0.597   1.813  1.5438 -1.8785 -0.8430
 3149TIP3    H2 9454   2.120   0.641   1.958 -0.5792  1.0972 -1.6563
 3150TIP3   OH2 9455   3.493   3.453   0.127 -0.0274  0.1259  0.0538
 3150TIP3    H1 9456   3.478   3.542   0.093  0.0635  0.0712 -0.1280
 3150TIP3    H2 9457   3.540   3.408   0.057  0.0861 -0.0129  0.2196
 3151TIP3   OH2 9458   4.945   4.780   2.233  0.0025 -0.0628 -0.4635
 3151TIP3    H1 9459   4.886   4.746   2.301  0.6833  0.4118  0.3794
 3151TIP3    H2 9460   5.024   4.726   2.241 -0.0079 -0.1712 -1.0549
 3152TIP3   OH2 9461   2.549   5.161   2.356  0.3233 -0.0963 -0.0645
 3152TIP3    H1 9462   2.461   5.197   2.358  0.5926  0.6498 -1.0530
 3152TIP3    H2 9463   2.590   5.193   2.436 -0.2382 -0.3106  0.3156
 3153TIP3   OH2 9464   5.139   5.143   3.970  0.9752 -0.0913 -0.1657
 3153TIP3    H1 9465   5.108   5.058   4.001  1.7959 -0.4270 -0.2526
 3153TIP3    H2 9466   5.078   5.206   4.010  1.1084 -0.6166  0.9154
 3154TIP3   OH2 9467   2.441   1.414   3.149 -0.0189  0.3736 -0.1303
 3154TIP3    H1 9468   2.468   1.491   3.099  0.3848  1.6436  1.9306
 3154TIP3    H2 9469   2.345   1.415   3.144 -0.1336  2.1073  1.3176
 3155TIP3   OH2 9470   2.624   4.023   0.543  0.2121 -0.6562 -0.5623
 3155TIP3    H1 9471   2.624   3.971   0.463 -2.0497 -0.1569 -0.9551
 3155TIP3    H2 9472   2.602   4.112   0.514 -1.1775 -0.5692  0.6472
 3156TIP3   OH2 9473   4.258   5.879   2.328 -0.1354  0.0679  0.4083
 3156TIP3    H1 9474   4.166   5.878   2.352 -0.5473  0.1825 -1.0539
 3156TIP3    H2 9475   4.276   5.970   2.306 -0.1288 -0.2200 -0.8730
 3157TIP3   OH2 9476   4.864   0.096   5.073 -0.3066 -0.3203 -0.1423
 3157TIP3    H1 9477   4.770   0.088   5.057 -0.4212 -1.7801  1.0742
 3157TIP3    H2 9478   4.888   0.015   5.117  1.7220 -0.3922 -1.2642
 3158TIP3   OH2 9479   5.581   1.433   2.369  0.6483  0.1647  0.4013
 3158TIP3    H1 9480   5.529   1.470   2.298  1.5882 -0.3117 -0.5618
 3158TIP3    H2 9481   5.620   1.508   2.413 -1.6326  0.6120  1.8089
 3159TIP3   OH2 9482   4.111   4.145   3.337 -0.5616 -0.2007  0.1843
 3159TIP3    H1 9483   4.158   4.195   3.404 -1.2495  1.5904 -0.5965
 3159TIP3    H2 9484   4.077   4.069   3.384  1.7645 -0.7776  1.0988
 3160TIP3   OH2 9485   5.366   2.798   1.638  0.2244 -0.6610  0.0057
 3160TIP3    H1 9486   5.355   2.888   1.606 -1.4924 -0.9879 -0.4411
 3160TIP3    H2 9487   5.438   2.763   1.586 -0.1574 -0.0377 -0.9862
 3161TIP3   OH2 9488   3.738   1.968   0.631 -0.2030  0.1062 -0.0517
 3161TIP3    H1 9489   3.706   2.019   0.557 -0.1285  0.0357 -0.1329
 3161TIP3    H2 9490   3.721   2.023   0.707 -0.1597  0.2355 -0.1347
 3162TIP3   OH2 9491   0.857   2.334   2.274  0.0877  0.4628 -0.2092
 3162TIP3    H1 9492   0.952   2.346   2.282  0.4236 -2.1783  0.9031
 3162TIP3    H2 9493   0.845   2.291   2.189  0.4625 -2.8151  1.2293
 3163TIP3   OH2 9494   6.036   5.809   5.048  0.2154  0.4164  0.2968
 3163TIP3    H1 9495   6.109   5.798   4.988 -0.6042  1.2012 -0.8828
 3163TIP3    H2 9496   6.026   5.904   5.058 -0.8210  0.3378  0.1845
 3164TIP3   OH2 9497   0.958   2.660   3.159  0.5367 -0.1925  0.8695
 3164TIP3    H1 9498   0.946   2.643   3.253 -0.4797 -3.5026  0.2775
 3164TIP3    H2 9499   1.031   2.604   3.133  2.1635  2.2073 -0.0293
 3165TIP3   OH2 9500   1.700   1.684   1.134  0.0730 -0.3203 -0.1969
 3165TIP3    H1 9501   1.714   1.777   1.117  5.5835 -0.7232  0.1498
 3165TIP3    H2 9502   1.725   1.641   1.051 -0.9314 -1.5354  0.1035
 3166TIP3   OH2 9503   1.926   1.566   2.905  0.0576 -0.7772 -0.4780
 3166TIP3    H1 9504   1.923   1.478   2.867  1.6786 -1.8055  1.5721
 3166TIP3    H2 9505   1.899   1.554   2.996 -0.3281  0.9838 -0.3247
 3167TIP3   OH2 9506   5.382   5.198   0.780  0.0195  0.0146 -0.0011
 3167TIP3    H1 9507   5.374   5.224   0.872 -1.5290  0.9330 -0.3646
 3167TIP3    H2 9508   5.340   5.112   0.776 -1.3899  0.6807 -0.1181
 3168TIP3   OH2 9509   3.320   5.667   4.073 -0.2598 -0.1031 -0.3771
 3168TIP3    H1 9510   3.323   5.714   4.156 -1.2795 -2.5377  1.1451
 3168TIP3    H2 9511   3.228   5.668   4.048  0.1148  1.1936 -1.9269
 3169TIP3   OH2 9512   3.282   1.774   1.921 -0.2785 -0.1388  0.2874
 3169TIP3    H1 9513   3.230   1.695   1.910 -1.4800  0.7118 -0.4139
 3169TIP3    H2 9514   3.350   1.750   1.985 -0.3866 -1.8116 -0.1925
 3170TIP3   OH2 9515   4.077   2.675   2.757  0.7270 -0.4624 -0.2637
 3170TIP3    H1 9516   4.027   2.594   2.742  0.0536 -0.2543  0.8289
 3170TIP3    H2 9517   4.090   2.678   2.851 -0.5990  1.4990 -0.1057
 3171TIP3   OH2 9518   2.365   2.382   0.386  0.1255  0.1362  0.0475
 3171TIP3    H1 9519   2.294   2.442   0.366  0.9970  0.7972 -1.2548
 3171TIP3    H2 9520   2.333   2.329   0.458 -1.2845  1.0920  0.1565
 3172TIP3   OH2 9521   0.038   5.762   3.132  0.0611  0.0234  0.6470
 3172TIP3    H1 9522   0.112   5.775   3.074 -0.1007  1.6236  0.7751
 3172TIP3    H2 9523   0.005   5.674   3.110  2.2618 -0.9350  0.9397
 3173TIP3   OH2 9524   6.086   1.953   0.652  0.1177  0.1614 -0.3640
 3173TIP3    H1 9525   6.033   1.966   0.732 -0.3452 -3.1736 -0.0184
 3173TIP3    H2 9526   6.042   2.008   0.586 -1.6111  0.2954  0.8154
 3174TIP3   OH2 9527   3.762   3.533   1.050 -0.1168 -0.1348 -0.3001
 3174TIP3    H1 9528   3.738   3.527   1.142  0.7557 -1.3534 -0.1304
 3174TIP3    H2 9529   3.798   3.447   1.029 -0.7846 -0.0528 -1.9263
 3175TIP3   OH2 9530   4.378   4.563   3.761 -1.0063  0.0513  0.2807
 3175TIP3    H1 9531   4.395   4.469   3.766 -2.0614 -0.1665 -0.0743
 3175TIP3    H2 9532   4.437   4.594   3.692  1.1622  0.1217  2.0304
 3176TIP3   OH2 9533   2.189   2.486   0.848  0.1229 -0.1562 -0.5177
 3176TIP3    H1 9534   2.280   2.517   0.848  0.4024 -0.9637 -0.8074
 3176TIP3    H2 9535   2.189   2.415   0.912 -0.4196  0.1446 -0.1770
 3177TIP3   OH2 9536   3.214   3.006   3.438  0.1662 -0.5881  0.0165
 3177TIP3    H1 9537   3.192   2.917   3.413  0.0865 -0.6481  0.3028
 3177TIP3    H2 9538   3.155   3.061   3.386 -0.0474 -0.7145  0.1243
 3178TIP3   OH2 9539   5.243   3.005   3.174 -0.2997  0.3616  0.0159
 3178TIP3    H1 9540   5.248   2.912   3.153 -0.6621  0.4182 -0.3318
 3178TIP3    H2 9541   5.150   3.026   3.166 -0.1397  0.8917 -0.5299
 3179TIP3   OH2 9542   1.119   0.812   2.336  0.1349  0.1685  0.2893
 3179TIP3    H1 9543   1.163   0.817   2.421  0.0265 -1.6227  0.4899
 3179TIP3    H2 9544   1.034   0.851   2.350  0.6897  1.3041  0.5810
 3180TIP3   OH2 9545   4.887   4.876   2.936 -0.2745 -0.2618  0.4939
 3180TIP3    H1 9546   4.850   4.953   2.979  0.4543 -0.3953  1.3974
 3180TIP3    H2 9547   4.975   4.904   2.909  0.0499 -0.8044  0.9573
 3181TIP3   OH2 9548   0.035   3.232   4.623  0.3258  0.0101 -0.4102
 3181TIP3    H1 9549  -0.008   3.313   4.596 -0.9071 -0.5443 -0.1814
 3181TIP3    H2 9550  -0.026   3.191   4.684  0.3614 -1.6491 -1.4096
 3182TIP3   OH2 9551   0.481   5.943   0.909 -0.0390 -0.4570 -0.3001
 3182TIP3    H1 9552   0.501   5.986   0.992 -3.2041 -0.0193  0.3584
 3182TIP3    H2 9553   0.481   5.850   0.930 -1.1785 -0.3285  0.3026
 3183TIP3   OH2 9554   0.726   2.629   3.433  0.4368 -0.2837 -0.0014
 3183TIP3    H1 9555   0.790   2.684   3.388 -0.0540  0.4806  0.2224
 3183TIP3    H2 9556   0.777   2.555   3.466  1.0871 -0.0091 -0.3727
 3184TIP3   OH2 9557   2.073   0.297   1.596  0.3733  0.3178  0.7408
 3184TIP3    H1 9558   2.032   0.384   1.594 -0.3903 -0.0409 -0.9255
 3184TIP3    H2 9559   2.152   0.310   1.648  1.3476  2.5202 -1.0916
 3185TIP3   OH2 9560   5.390   2.313   2.759 -0.3789  0.6255 -0.1089
 3185TIP3    H1 9561   5.352   2.398   2.782  0.6720  1.2078 -0.4826
 3185TIP3    H2 9562   5.316   2.262   2.726 -0.8735  1.7016 -0.7193
 3186TIP3   OH2 9563   4.408   5.649   0.168  0.4307 -0.0909 -0.2433
 3186TIP3    H1 9564   4.414   5.680   0.078  1.4754 -0.6969 -0.4008
 3186TIP3    H2 9565   4.490   5.675   0.208  0.9466 -1.8012 -0.1255
 3187TIP3   OH2 9566   1.640   5.767   3.553  0.2276 -0.1870  0.0342
 3187TIP3    H1 9567   1.559   5.756   3.504 -0.0340  2.0732 -0.1454
 3187TIP3    H2 9568   1.693   5.691   3.530 -1.9673 -1.9537  0.4878
 3188TIP3   OH2 9569   5.538   3.352   1.430  0.2748  0.0962 -0.1050
 3188TIP3    H1 9570   5.599   3.292   1.388 -0.2337  1.0096 -2.2897
 3188TIP3    H2 9571   5.538   3.430   1.373 -2.3439  0.4192  0.2092
 3189TIP3   OH2 9572   3.066   4.113   0.973 -0.2516  0.2649  0.2080
 3189TIP3    H1 9573   3.017   4.189   0.942 -1.0021 -0.2548  0.0841
 3189TIP3    H2 9574   3.043   4.106   1.066 -1.0748 -0.4587 -0.0375
 3190TIP3   OH2 9575   0.132   1.852   0.909  0.0585  0.1220  0.0737
 3190TIP3    H1 9576   0.146   1.939   0.872 -0.5405  0.5741  0.8665
 3190TIP3    H2 9577   0.076   1.808   0.846  1.0068  0.0237 -0.7178
 3191TIP3   OH2 9578   2.385   0.803   1.772 -0.1352 -0.4527 -0.2323
 3191TIP3    H1 9579   2.339   0.836   1.849  0.2267 -1.8206  0.6035
 3191TIP3    H2 9580   2.475   0.835   1.782  0.0766 -1.1920  0.2785
 3192TIP3   OH2 9581   4.664   0.905   4.342  0.2844 -0.3357  0.0472
 3192TIP3    H1 9582   4.694   0.939   4.257 -1.2112 -0.2177 -0.4679
 3192TIP3    H2 9583   4.734   0.928   4.403  1.1370  0.0765 -1.0480
 3193TIP3   OH2 9584   1.049   2.578   3.423 -0.3381  0.0582  0.0351
 3193TIP3    H1 9585   1.137   2.541   3.424 -0.6840 -0.7895  0.0755
 3193TIP3    H2 9586   0.992   2.506   3.450 -1.1514  0.3024 -0.9634
 3194TIP3   OH2 9587   4.121   4.121   0.498 -0.0674 -0.2226 -0.3622
 3194TIP3    H1 9588   4.132   4.059   0.425 -1.4532  1.3605 -2.0186
 3194TIP3    H2 9589   4.133   4.207   0.458 -2.3349  0.7890  0.9485
 3195TIP3   OH2 9590   5.885   1.084   3.746  0.0287  0.1022  0.1788
 3195TIP3    H1 9591   5.801   1.068   3.702  0.2485  0.6415 -0.4573
 3195TIP3    H2 9592   5.950   1.043   3.689  0.4310  1.7571 -0.6196
 3196TIP3   OH2 9593   3.461   4.006   0.660  0.2920  0.0689  0.4319
 3196TIP3    H1 9594   3.448   3.912   0.672 -2.2618  0.2764  0.0536
 3196TIP3    H2 9595   3.539   4.027   0.711  2.5956 -2.6514 -1.6231
 3197TIP3   OH2 9596   2.196   4.638   3.428  0.5276  0.3396 -0.0131
 3197TIP3    H1 9597   2.251   4.622   3.351  0.1787 -1.2485  0.0284
 3197TIP3    H2 9598   2.130   4.569   3.424  0.9423 -0.2341  2.0994
 3198TIP3   OH2 9599   3.428   3.827   2.935 -0.3382 -0.0694 -0.0334
 3198TIP3    H1 9600   3.437   3.922   2.927 -0.2508 -0.1702 -1.1653
 3198TIP3    H2 9601   3.351   3.816   2.992 -0.7197  0.6744 -0.3817
 3199TIP3   OH2 9602   3.736   4.950   0.712 -0.1298 -0.0808  0.3565
 3199TIP3    H1 9603   3.806   4.885   0.713  0.0017  0.0147 -0.8295
 3199TIP3    H2 9604   3.698   4.947   0.800  1.3995 -0.0822  1.0455
 3200TIP3   OH2 9605   2.207   1.496   1.632 -0.1977 -0.0171 -0.0405
 3200TIP3    H1 9606   2.119   1.516   1.664  0.5587  0.3258  1.9473
 3200TIP3    H2 9607   2.240   1.579   1.598 -0.0903  0.2013  0.5943
 3201TIP3   OH2 9608   5.510   1.443   1.042 -0.7485  0.0939  0.2674
 3201TIP3    H1 9609   5.482   1.352   1.048 -1.2236  0.2933  1.5123
 3201TIP3    H2 9610   5.441   1.487   0.992  0.0667 -0.4253 -1.3841
 3202TIP3   OH2 9611   3.822   1.610   2.414 -0.8626 -0.4536 -0.1527
 3202TIP3    H1 9612   3.807   1.590   2.322 -1.4726  1.5009 -0.5399
 3202TIP3    H2 9613   3.816   1.706   2.419 -0.2015 -0.4526  1.8107
 3203TIP3   OH2 9614   5.826   3.938   3.538  0.2069  0.2350 -0.2412
 3203TIP3    H1 9615   5.870   3.935   3.454 -0.9020  0.1278 -0.8361
 3203TIP3    H2 9616   5.846   4.025   3.573  0.5497  0.3373 -0.6805
 3204TIP3   OH2 9617   1.751   0.875   0.659 -0.2473 -0.2102 -0.2820
 3204TIP3    H1 9618   1.817   0.916   0.603  0.5924  0.6543  1.2738
 3204TIP3    H2 9619   1.683   0.942   0.669 -0.7804 -0.6512 -0.8849
 3205TIP3   OH2 9620   2.379   1.378   3.584  0.2874 -0.2350  0.5335
 3205TIP3    H1 9621   2.395   1.452   3.525  0.1953 -1.4167 -1.0402
 3205TIP3    H2 9622   2.285   1.380   3.599  0.3306  0.1589  0.7553
 3206TIP3   OH2 9623   2.272   0.070   1.744 -0.1969 -0.0858 -0.6028
 3206TIP3    H1 9624   2.180   0.049   1.728 -0.7333  1.5308  0.1465
 3206TIP3    H2 9625   2.270   0.137   1.812  1.6322 -1.0428  0.4723
 3207TIP3   OH2 9626   3.325   0.238   4.183  0.1522  0.1278  0.1146
 3207TIP3    H1 9627   3.407   0.212   4.225 -0.5160 -1.6111  0.4494
 3207TIP3    H2 9628   3.277   0.286   4.251  1.1549  1.8238 -0.3154
 3208TIP3   OH2 9629   5.414   5.200   0.098 -0.6429 -0.2692  0.2355
 3208TIP3    H1 9630   5.320   5.215   0.085 -1.0420 -1.7936  1.1405
 3208TIP3    H2 9631   5.435   5.128   0.039  0.1883  0.6804 -0.6528
 3209TIP3   OH2 9632   1.771   3.635   4.978  0.2282  0.1981  0.4114
 3209TIP3    H1 9633   1.852   3.663   5.021 -0.3365  0.3858  1.3599
 3209TIP3    H2 9634   1.761   3.543   5.004 -0.3455  0.4379  1.0382
 3210TIP3   OH2 9635   0.436   4.695   1.814  0.1780 -0.0346  0.1097
 3210TIP3    H1 9636   0.521   4.727   1.785  0.0005  1.8184  1.4445
 3210TIP3    H2 9637   0.390   4.773   1.845 -2.2103 -0.9036 -0.9987
 3211TIP3   OH2 9638   0.505   3.458   1.118 -0.3904  0.4478 -0.5055
 3211TIP3    H1 9639   0.493   3.531   1.057  1.4935 -0.3777 -1.9916
 3211TIP3    H2 9640   0.446   3.390   1.086  1.4596 -0.4301 -2.2983
 3212TIP3   OH2 9641   6.236   0.508   2.578  0.3163 -0.2233  0.1954
 3212TIP3    H1 9642   6.197   0.422   2.592  4.7098 -2.7412 -1.0262
 3212TIP3    H2 9643   6.267   0.504   2.487  2.4864  1.7758  0.7774
 3213TIP3   OH2 9644   6.143   3.944   4.491  0.1945  0.1710 -0.0674
 3213TIP3    H1 9645   6.082   3.996   4.438  0.7718  0.9730  0.0468
 3213TIP3    H2 9646   6.175   4.005   4.557 -0.4550 -0.7902  1.1880
 3214TIP3   OH2 9647   3.179   4.512   3.835  0.1579  0.6152 -0.6617
 3214TIP3    H1 9648   3.091   4.493   3.802  0.9967  1.8200 -4.0579
 3214TIP3    H2 9649   3.214   4.426   3.859 -1.5661 -0.0075 -0.2242
 3215TIP3   OH2 9650   4.174   3.492   4.227 -0.4416 -0.5127  0.4223
 3215TIP3    H1 9651   4.176   3.449   4.312 -0.6608  0.8273  1.1294
 3215TIP3    H2 9652   4.097   3.549   4.230 -0.6534 -0.6949 -0.8061
 3216TIP3   OH2 9653   2.741   2.749   1.876 -0.5751  0.4067  0.3959
 3216TIP3    H1 9654   2.737   2.808   1.951 -0.9574  2.4103 -1.1273
 3216TIP3    H2 9655   2.652   2.714   1.869 -0.1385 -1.1132  1.8238
 3217TIP3   OH2 9656   3.079   3.114   4.391 -0.1588 -0.3619  0.1133
 3217TIP3    H1 9657   3.111   3.025   4.377 -0.0204 -0.4551  0.9261
 3217TIP3    H2 9658   3.150   3.157   4.438 -0.3234  0.1009 -0.0656
 3218TIP3   OH2 9659   5.816   3.520   1.414  0.0474 -0.3190 -0.1675
 3218TIP3    H1 9660   5.869   3.449   1.451 -0.7019 -1.1834 -0.7035
 3218TIP3    H2 9661   5.736   3.519   1.467  1.1017  1.9773  1.6450
 3219TIP3   OH2 9662   0.094   0.488   3.879  0.4461  0.0863  0.0845
 3219TIP3    H1 9663   0.103   0.438   3.961 -1.8403  0.0919  0.4199
 3219TIP3    H2 9664   0.003   0.518   3.880  0.2572 -0.1739 -2.6220
 3220TIP3   OH2 9665   0.319   3.017   2.287  0.4433 -0.3415  0.0413
 3220TIP3    H1 9666   0.321   2.935   2.238  0.8701 -0.3826  0.1246
 3220TIP3    H2 9667   0.232   3.019   2.327  0.6753 -1.1038  0.6220
 3221TIP3   OH2 9668   1.055   2.510   2.638  0.1021  0.0927 -0.1636
 3221TIP3    H1 9669   0.992   2.440   2.620 -1.1584  1.6749 -2.2217
 3221TIP3    H2 9670   1.045   2.526   2.732 -1.6204 -0.5846 -0.1868
 3222TIP3   OH2 9671   1.152   2.857   1.949 -0.0955  0.0140  0.0708
 3222TIP3    H1 9672   1.202   2.846   2.030 -0.8547 -3.3774  0.2179
 3222TIP3    H2 9673   1.198   2.803   1.884 -2.4435 -1.7605 -0.2520
 3223TIP3   OH2 9674   2.862   1.711   4.213 -0.0236  0.2441  0.3318
 3223TIP3    H1 9675   2.929   1.644   4.226 -0.9072 -0.8562 -0.5792
 3223TIP3    H2 9676   2.864   1.764   4.292  0.7860 -0.7914  1.0141
 3224TIP3   OH2 9677   2.862   5.573   2.957  0.6482 -0.0201  0.4925
 3224TIP3    H1 9678   2.940   5.600   3.006  1.2369  2.3582 -1.5742
 3224TIP3    H2 9679   2.895   5.544   2.872 -0.5759 -1.2311  0.3919
 3225TIP3   OH2 9680   5.204   2.962   0.953  0.1561  0.1142  0.3889
 3225TIP3    H1 9681   5.123   3.004   0.984  1.2883  1.4437  1.7387
 3225TIP3    H2 9682   5.190   2.949   0.860 -1.5289  0.4968  0.5435
 3226TIP3   OH2 9683   4.537   4.472   4.936  0.2944  0.3230 -0.0238
 3226TIP3    H1 9684   4.479   4.540   4.902  1.1363  1.5191  0.8410
 3226TIP3    H2 9685   4.622   4.514   4.941  0.7505 -0.6757  0.9312
 3227TIP3   OH2 9686   0.908   3.110   4.932 -0.4099 -0.5469 -0.1004
 3227TIP3    H1 9687   0.888   3.016   4.931  3.0071 -1.4435  1.0802
 3227TIP3    H2 9688   0.944   3.127   4.845  0.7525 -0.8722  0.2897
 3228TIP3   OH2 9689   3.847   0.729   3.965  0.3389  0.0012 -0.1579
 3228TIP3    H1 9690   3.897   0.757   3.888  1.0128 -0.9520 -0.0908
 3228TIP3    H2 9691   3.772   0.682   3.930  1.2856 -1.5062 -0.2612
 3229TIP3   OH2 9692   0.178   2.583   0.068 -0.1599 -0.8942 -0.4342
 3229TIP3    H1 9693   0.150   2.533   0.145 -1.6120 -2.1140 -1.6913
 3229TIP3    H2 9694   0.100   2.630   0.039  0.3178 -0.5843 -1.2619
 3230TIP3   OH2 9695   3.652  -0.009   0.156  0.1063 -0.0743  0.0588
 3230TIP3    H1 9696   3.576   0.049   0.144  0.0064  0.2339  1.8535
 3230TIP3    H2 9697   3.715   0.044   0.204  1.7235 -0.1650 -1.8556
 3231TIP3   OH2 9698   2.323   3.232   3.472 -0.1041  0.0532  0.1987
 3231TIP3    H1 9699   2.418   3.238   3.482 -0.1340 -0.5529  0.8990
 3231TIP3    H2 9700   2.288   3.261   3.557 -0.5486  0.2915 -0.0597
 3232TIP3   OH2 9701   3.633   3.734   0.787  0.1371 -0.1503 -0.0728
 3232TIP3    H1 9702   3.705   3.742   0.725 -0.0943  1.4029 -0.1770
 3232TIP3    H2 9703   3.554   3.731   0.733 -0.3301  4.0346  0.0203
 3233TIP3   OH2 9704   2.995   1.788   3.120  0.9498 -0.3131  0.4387
 3233TIP3    H1 9705   2.962   1.731   3.190 -1.0989 -0.3807 -0.4938
 3233TIP3    H2 9706   3.000   1.875   3.160  2.0071 -0.7404  1.2724
 3234TIP3   OH2 9707   4.250   0.189   3.422  0.2690  0.1302 -0.0750
 3234TIP3    H1 9708   4.270   0.143   3.504 -1.4779  1.0452  0.9387
 3234TIP3    H2 9709   4.335   0.217   3.389  1.1602 -1.6661  0.5467
 3235TIP3   OH2 9710   2.174   0.479   1.339  0.4478 -0.0463  0.7066
 3235TIP3    H1 9711   2.147   0.492   1.430 -0.6180  0.9775  0.2755
 3235TIP3    H2 9712   2.236   0.407   1.342  1.7747  1.0824  2.4709
 3236TIP3   OH2 9713   4.573   2.258   2.929  0.2359 -0.1724  0.1396
 3236TIP3    H1 9714   4.577   2.296   2.841  0.7868 -0.2040  0.1467
 3236TIP3    H2 9715   4.664   2.249   2.955  0.1051  2.2330  1.7499
 3237TIP3   OH2 9716   3.890   5.303   4.548  0.5078 -0.1895 -0.2261
 3237TIP3    H1 9717   3.903   5.264   4.461  0.8890 -0.0709 -0.2255
 3237TIP3    H2 9718   3.915   5.395   4.536 -2.3113  0.5895 -0.7527
 3238TIP3   OH2 9719   2.894   2.734   3.451  0.2355  0.1339 -0.1850
 3238TIP3    H1 9720   2.869   2.821   3.482  1.0077  0.5833 -0.7879
 3238TIP3    H2 9721   2.824   2.708   3.392 -1.0361 -0.5505  1.5321
 3239TIP3   OH2 9722   2.070   3.120   2.779  0.2393 -0.2806  0.1504
 3239TIP3    H1 9723   2.085   3.164   2.863  1.1845 -0.6024  0.1528
 3239TIP3    H2 9724   2.116   3.173   2.715  0.0833 -0.4181 -0.0762
 3240TIP3   OH2 9725   5.145   3.413   3.736  0.3215 -0.0311 -0.0396
 3240TIP3    H1 9726   5.097   3.409   3.819  0.2306  1.6362  0.0348
 3240TIP3    H2 9727   5.097   3.354   3.678 -0.2751 -0.3807  0.7858
 3241TIP3   OH2 9728   5.410   0.939   1.164  0.1594 -0.4561  0.4338
 3241TIP3    H1 9729   5.406   0.851   1.126  0.3087  0.6183 -2.3003
 3241TIP3    H2 9730   5.321   0.972   1.159  0.5485  0.4634 -1.0636
 3242TIP3   OH2 9731   3.263   5.165   4.807 -0.3861  0.1077  0.0448
 3242TIP3    H1 9732   3.351   5.201   4.792 -0.3577 -0.1792 -0.5259
 3242TIP3    H2 9733   3.221   5.168   4.721 -0.1428 -1.8258 -0.2059
 3243TIP3   OH2 9734   2.516   1.013   0.862 -0.2751 -0.3444 -0.1318
 3243TIP3    H1 9735   2.421   1.006   0.850 -0.3509  0.6892 -0.2094
 3243TIP3    H2 9736   2.552   0.937   0.816 -0.8807  0.7989 -2.6648
 3244TIP3   OH2 9737   5.419   3.682   2.875  0.3379  0.3591 -0.0743
 3244TIP3    H1 9738   5.504   3.645   2.895 -0.7423 -2.6085 -0.4226
 3244TIP3    H2 9739   5.357   3.613   2.897 -1.7937  1.4349 -2.1996
 3245TIP3   OH2 9740   0.687   0.401   3.066  0.6263  0.0952  0.1164
 3245TIP3    H1 9741   0.607   0.349   3.052  1.3699 -0.7294 -1.2725
 3245TIP3    H2 9742   0.682   0.427   3.158 -1.1941 -0.0105  0.0937
 3246TIP3   OH2 9743   4.895   0.581   5.166  0.5691 -0.0480 -0.7240
 3246TIP3    H1 9744   4.972   0.616   5.211  0.4400 -0.3356 -0.2723
 3246TIP3    H2 9745   4.931   0.520   5.101  0.6934 -1.0075  0.2125
 3247TIP3   OH2 9746   4.829   2.225   3.016 -0.3663 -0.2396  0.4127
 3247TIP3    H1 9747   4.832   2.252   3.108  0.9477  0.5469  0.1619
 3247TIP3    H2 9748   4.832   2.306   2.967  0.6562 -0.7075 -0.3309
 3248TIP3   OH2 9749   5.106   0.797   3.472  0.5194 -0.0595  0.3267
 3248TIP3    H1 9750   5.048   0.873   3.478 -0.0811 -0.3176 -1.5225
 3248TIP3    H2 9751   5.061   0.728   3.520 -1.5198 -0.6692 -2.2469
 3249TIP3   OH2 9752   4.622   5.185   0.131 -0.0819  0.1595 -0.5496
 3249TIP3    H1 9753   4.531   5.167   0.156  0.7404 -1.0568  1.7974
 3249TIP3    H2 9754   4.630   5.280   0.139 -0.6193  0.0852  1.2683
 3250TIP3   OH2 9755   6.263   1.748   2.909 -0.0387  0.3239 -0.1258
 3250TIP3    H1 9756   6.232   1.681   2.969 -0.1773  0.8102  0.3501
 3250TIP3    H2 9757   6.247   1.711   2.822  2.1263 -1.3312  0.0687
 3251TIP3   OH2 9758   4.558   4.177   3.081 -0.3948 -0.7662 -0.2240
 3251TIP3    H1 9759   4.463   4.165   3.075 -0.4715 -0.5025  0.4489
 3251TIP3    H2 9760   4.580   4.153   3.171  0.0725 -0.1623 -0.1687
 3252TIP3   OH2 9761   3.428   5.640   1.060 -0.3834  0.3806  0.5602
 3252TIP3    H1 9762   3.344   5.609   1.026 -0.1318  0.6006 -0.2990
 3252TIP3    H2 9763   3.453   5.711   1.000  0.7038 -0.0833  0.4341
 3253TIP3   OH2 9764   6.068   3.013   0.849  0.6680  0.1917  0.1849
 3253TIP3    H1 9765   6.156   3.050   0.839 -0.5468  2.8404 -2.5789
 3253TIP3    H2 9766   6.016   3.086   0.883 -0.2828 -1.8128  3.4727
 3254TIP3   OH2 9767   2.136   4.152   4.345  0.2482 -0.1737 -0.2920
 3254TIP3    H1 9768   2.051   4.131   4.308  0.3939  1.0022 -1.3739
 3254TIP3    H2 9769   2.193   4.080   4.317 -0.2156 -0.5891 -0.1829
 3255TIP3   OH2 9770   5.691   3.109   1.845  0.1938 -0.8612  0.2041
 3255TIP3    H1 9771   5.765   3.141   1.897 -0.3692 -2.1612  1.8895
 3255TIP3    H2 9772   5.645   3.048   1.903 -2.9226  0.7607 -0.3318
 3256TIP3   OH2 9773   5.287   4.428   0.524 -0.7293 -0.2911 -0.1783
 3256TIP3    H1 9774   5.244   4.464   0.601 -1.1655  1.2097 -1.0650
 3256TIP3    H2 9775   5.375   4.405   0.553 -1.5983 -1.9771  1.3020
 3257TIP3   OH2 9776   1.453   1.267   4.903 -1.2125 -0.1309 -0.1157
 3257TIP3    H1 9777   1.373   1.258   4.851 -1.2411  1.9203 -0.4957
 3257TIP3    H2 9778   1.430   1.326   4.974 -0.5292 -1.0594  0.9190
 3258TIP3   OH2 9779   3.078   5.484   1.794 -0.5900 -0.6302 -0.4144
 3258TIP3    H1 9780   2.988   5.475   1.761 -0.4686 -0.0283 -0.9437
 3258TIP3    H2 9781   3.083   5.423   1.867 -1.3497 -0.8709 -0.5501
 3259TIP3   OH2 9782   1.421   4.671   0.762 -0.2816  0.3869  0.3769
 3259TIP3    H1 9783   1.420   4.673   0.858  1.6251 -1.4598  0.5235
 3259TIP3    H2 9784   1.479   4.597   0.741 -0.6538  0.7507 -2.2058
 3260TIP3   OH2 9785   4.797   3.523   3.398  0.3764  0.6517 -0.1638
 3260TIP3    H1 9786   4.890   3.505   3.389  0.2400  0.9040 -2.8615
 3260TIP3    H2 9787   4.764   3.452   3.453  1.9851  0.0591  0.0971
 3261TIP3   OH2 9788   3.699   5.688   2.522  0.2144 -0.8740  0.5477
 3261TIP3    H1 9789   3.778   5.719   2.566  0.7129 -1.5731  0.1740
 3261TIP3    H2 9790   3.715   5.705   2.429 -1.2819  1.5951  0.6529
 3262TIP3   OH2 9791   4.167   5.578   2.381 -0.2338  0.2326  0.5864
 3262TIP3    H1 9792   4.101   5.582   2.451 -0.9496  1.3093 -0.1116
 3262TIP3    H2 9793   4.121   5.611   2.304  1.1398  1.0593  0.0854
 3263TIP3   OH2 9794   3.024   3.743   2.850  0.8971 -0.0815  0.2168
 3263TIP3    H1 9795   2.934   3.724   2.876  1.2796 -0.5515  1.2340
 3263TIP3    H2 9796   3.053   3.664   2.803  1.0059 -0.2117  0.5015
 3264TIP3   OH2 9797   0.353   0.615   1.937 -0.7707  0.9469  0.1680
 3264TIP3    H1 9798   0.369   0.681   2.004 -0.1140  0.6816  0.2728
 3264TIP3    H2 9799   0.439   0.595   1.901 -0.8675 -0.3546  0.6105
 3265TIP3   OH2 9800   3.614   1.226   2.702 -0.3064 -0.8421 -0.1125
 3265TIP3    H1 9801   3.643   1.166   2.633  0.3895  0.0430 -0.6101
 3265TIP3    H2 9802   3.550   1.282   2.658  0.0328 -0.3653  0.0026
 3266TIP3   OH2 9803   2.131   2.037   3.064  0.2825 -0.0672 -0.1863
 3266TIP3    H1 9804   2.154   1.994   3.147 -1.8645  0.7380  0.8977
 3266TIP3    H2 9805   2.208   2.089   3.042  1.3825 -1.2952  0.6096
 3267TIP3   OH2 9806   2.406   2.069   1.418 -0.2527 -0.3504 -0.3658
 3267TIP3    H1 9807   2.456   2.096   1.495 -2.5893  1.3373  0.6700
 3267TIP3    H2 9808   2.438   2.127   1.348 -1.9491  2.0964  0.7447
 3268TIP3   OH2 9809   3.527   2.523   2.942 -0.3441 -0.0422 -0.5663
 3268TIP3    H1 9810   3.622   2.513   2.952 -0.2915  1.0144  0.1740
 3268TIP3    H2 9811   3.512   2.515   2.848  0.5176 -0.0032 -0.7167
 3269TIP3   OH2 9812   2.999   3.976   1.747 -0.0044 -0.0552  0.5555
 3269TIP3    H1 9813   2.914   3.979   1.792  0.0164  0.4402  0.5651
 3269TIP3    H2 9814   3.024   4.068   1.737 -0.8611 -0.0501 -2.0909
 3270TIP3   OH2 9815   0.397   0.235   0.862  0.5129 -0.0573 -0.2062
 3270TIP3    H1 9816   0.480   0.255   0.906 -0.2037  0.5929  0.9235
 3270TIP3    H2 9817   0.381   0.312   0.807  0.5106 -0.0423 -0.1848
 3271TIP3   OH2 9818   5.951   3.780   2.181 -0.1306 -0.2222 -0.0495
 3271TIP3    H1 9819   5.913   3.713   2.238 -1.0161  0.6722  0.4466
 3271TIP3    H2 9820   5.880   3.807   2.124 -0.5926  2.0842  1.4613
 3272TIP3   OH2 9821   0.459   1.389   4.306 -0.0527 -0.0093  0.0214
 3272TIP3    H1 9822   0.545   1.406   4.266  0.0823 -0.1487  0.2540
 3272TIP3    H2 9823   0.402   1.372   4.231  0.4246 -1.2999 -0.0781
 3273TIP3   OH2 9824   0.864   3.828   0.012 -0.0802 -0.2773 -0.6160
 3273TIP3    H1 9825   0.879   3.903  -0.046  2.6513 -0.3616 -0.1798
 3273TIP3    H2 9826   0.786   3.851   0.062 -0.6235  1.2407 -2.0629
 3274TIP3   OH2 9827   1.211   4.076   0.670  0.4646  0.2082  0.4566
 3274TIP3    H1 9828   1.232   4.146   0.731 -1.3422 -0.2419  1.6842
 3274TIP3    H2 9829   1.140   4.112   0.616  0.1410 -0.3563  0.4941
 3275TIP3   OH2 9830   3.703   5.077   4.978  0.3766 -0.4591  0.2490
 3275TIP3    H1 9831   3.681   5.124   4.898 -2.2554 -2.2411 -0.2107
 3275TIP3    H2 9832   3.783   5.029   4.956  0.1867 -0.2416 -1.0211
 3276TIP3   OH2 9833   3.221   0.061   0.555 -0.0620 -0.1978 -0.5559
 3276TIP3    H1 9834   3.302   0.096   0.519  1.2707 -1.9859  0.5283
 3276TIP3    H2 9835   3.239   0.047   0.648 -2.7420  2.4097  0.5249
 3277TIP3   OH2 9836   4.388   2.416   1.285 -0.1120 -0.6847  0.0990
 3277TIP3    H1 9837   4.441   2.440   1.209  1.4621  1.8068  1.8331
 3277TIP3    H2 9838   4.299   2.443   1.262  0.6941  2.0823 -0.1689
 3278TIP3   OH2 9839   4.675   0.307   3.546 -0.0838 -0.3584  0.2997
 3278TIP3    H1 9840   4.702   0.216   3.540  2.7100  0.4774 -2.1328
 3278TIP3    H2 9841   4.641   0.328   3.458 -0.1259  1.1013  0.6322
 3279TIP3   OH2 9842   4.456   1.479   4.805 -0.1475  0.8288  0.4181
 3279TIP3    H1 9843   4.530   1.478   4.865  0.2590  2.0154 -0.0439
 3279TIP3    H2 9844   4.491   1.445   4.723  0.0436  1.9530  0.0289
 3280TIP3   OH2 9845   4.140   1.838   4.525  0.1692  0.0273 -0.2663
 3280TIP3    H1 9846   4.167   1.747   4.518  1.0621  0.3120 -0.6138
 3280TIP3    H2 9847   4.174   1.867   4.610  1.9707  0.7010 -1.1772
 3281TIP3   OH2 9848   0.776   4.036   1.789  0.0704  0.0101 -0.0936
 3281TIP3    H1 9849   0.752   4.115   1.838 -0.6663 -0.3410  0.1349
 3281TIP3    H2 9850   0.736   4.049   1.703 -1.7774 -0.9597  0.5585
 3282TIP3   OH2 9851   5.529   4.989   1.094  0.3146 -0.7163 -0.2688
 3282TIP3    H1 9852   5.584   5.019   1.021 -1.0972 -1.7824 -1.8513
 3282TIP3    H2 9853   5.591   4.955   1.158  1.7785  2.4535  0.1988
 3283TIP3   OH2 9854   0.479   2.186   5.005 -0.4308  0.0338  0.2862
 3283TIP3    H1 9855   0.435   2.242   5.069 -1.6421 -0.2083 -0.3228
 3283TIP3    H2 9856   0.572   2.200   5.023 -0.6933  1.8744  0.4660
 3284TIP3   OH2 9857   1.100   1.166   0.458  0.0460  0.2071 -0.8973
 3284TIP3    H1 9858   1.024   1.217   0.488  0.4517  0.0909  0.4016
 3284TIP3    H2 9859   1.168   1.232   0.443  0.4685  0.1212  0.4648
 3285TIP3   OH2 9860   5.946   1.690   3.291  0.3228  0.2488  0.1043
 3285TIP3    H1 9861   5.877   1.723   3.348 -1.0525 -0.4716 -1.0760
 3285TIP3    H2 9862   5.936   1.594   3.295  0.7707  0.1642 -0.6775
 3286TIP3   OH2 9863   5.515   2.774   0.648  0.4154 -0.1982 -0.1085
 3286TIP3    H1 9864   5.564   2.726   0.581  1.0832 -1.9224  1.5134
 3286TIP3    H2 9865   5.510   2.714   0.722 -2.1637  0.8107  0.6684
 3287TIP3   OH2 9866   2.964   2.660   4.850 -0.1081 -0.2988  0.0036
 3287TIP3    H1 9867   2.960   2.741   4.900  1.1854 -0.9205  1.2000
 3287TIP3    H2 9868   2.922   2.595   4.906  0.1607 -0.7399 -0.3027
 3288TIP3   OH2 9869   3.820   3.524   2.374 -0.1034  0.0123 -0.3458
 3288TIP3    H1 9870   3.814   3.507   2.280  2.1373  0.8441 -0.6952
 3288TIP3    H2 9871   3.805   3.618   2.383  1.8732  0.3386 -0.1678
 3289TIP3   OH2 9872   3.680   2.442   0.602  0.5877  0.0003  0.0625
 3289TIP3    H1 9873   3.688   2.491   0.684 -0.8392 -0.4928  0.5269
 3289TIP3    H2 9874   3.655   2.507   0.537 -0.1565  0.0995  0.4351
 3290TIP3   OH2 9875   0.691   0.984   3.865  0.0926  0.5087  0.1163
 3290TIP3    H1 9876   0.776   1.028   3.870  0.7659 -0.1809 -3.0274
 3290TIP3    H2 9877   0.699   0.909   3.924  1.6183  0.5473 -0.0051
 3291TIP3   OH2 9878   2.211   1.985   0.629 -0.0596  0.1236  0.2751
 3291TIP3    H1 9879   2.154   1.953   0.699 -0.6183  0.2706 -0.1032
 3291TIP3    H2 9880   2.250   1.906   0.593  0.3908  0.0620  0.8793
 3292TIP3   OH2 9881   4.240   0.712   1.173 -0.7914  0.4054  0.0656
 3292TIP3    H1 9882   4.246   0.660   1.093 -0.5051  0.0759  0.3026
 3292TIP3    H2 9883   4.276   0.656   1.241  0.4721  1.2848  0.1497
 3293TIP3   OH2 9884   5.231   3.188   2.410 -0.2996  0.4513 -0.0015
 3293TIP3    H1 9885   5.201   3.197   2.320 -1.1821 -1.5910  0.0229
 3293TIP3    H2 9886   5.223   3.276   2.447  0.5497  1.4347 -2.0213
 3294TIP3   OH2 9887   5.409   2.619   4.824 -0.9670  0.2772 -1.0674
 3294TIP3    H1 9888   5.497   2.652   4.810 -1.2239  0.3126 -2.8044
 3294TIP3    H2 9889   5.417   2.561   4.900  0.0422  2.0870  0.2674
 3295TIP3   OH2 9890   3.601   0.419   1.916  0.5940 -0.6388 -0.2607
 3295TIP3    H1 9891   3.570   0.501   1.877 -0.8787 -0.9550  0.1898
 3295TIP3    H2 9892   3.553   0.351   1.869 -0.2545 -1.0914  1.1904
 3296TIP3   OH2 9893   1.673   0.575   0.087 -0.2824 -0.7903  0.0046
 3296TIP3    H1 9894   1.684   0.665   0.056  3.8234 -0.9670  0.4882
 3296TIP3    H2 9895   1.654   0.525   0.008 -3.8837  0.4615 -0.1388
 3297TIP3   OH2 9896   3.546   2.877   3.997 -0.0442  0.8071 -0.2261
 3297TIP3    H1 9897   3.453   2.855   4.011 -0.0864 -0.7162 -2.5158
 3297TIP3    H2 9898   3.555   2.886   3.902  2.4431 -0.5245 -0.2004
 3298TIP3   OH2 9899   0.537   4.267   4.259  0.7942 -0.1057  0.1190
 3298TIP3    H1 9900   0.470   4.216   4.304  0.8227 -1.2404 -1.0759
 3298TIP3    H2 9901   0.585   4.311   4.330  0.9795 -1.9915  1.2174
 3299TIP3   OH2 9902   3.350   4.887   0.986  0.4306  0.2012 -0.0920
 3299TIP3    H1 9903   3.360   4.884   1.081  0.7918  0.0234 -0.1304
 3299TIP3    H2 9904   3.304   4.806   0.964  0.7181  0.0384 -0.1056
 3300TIP3   OH2 9905   2.759   5.497   4.976  0.0701 -0.1402 -0.0944
 3300TIP3    H1 9906   2.813   5.564   4.934  1.2055 -0.9355  0.0342
 3300TIP3    H2 9907   2.815   5.462   5.045 -0.5470 -1.1250 -0.0814
 3301TIP3   OH2 9908   2.868   2.935   4.240  0.3686 -0.3143  0.7260
 3301TIP3    H1 9909   2.941   2.875   4.259  1.9045  1.6936  1.5318
 3301TIP3    H2 9910   2.904   3.022   4.256 -1.2913  0.9795 -1.9191
 3302TIP3   OH2 9911   3.834   1.879   5.110  0.0725 -0.2130  0.0355
 3302TIP3    H1 9912   3.849   1.786   5.129  0.2043 -0.5322 -1.5059
 3302TIP3    H2 9913   3.916   1.922   5.135  0.7306 -0.8089 -1.0110
 3303TIP3   OH2 9914   3.031   3.617   3.474  0.3387 -0.1507 -0.4756
 3303TIP3    H1 9915   3.005   3.679   3.406  2.3533 -0.1539 -1.3116
 3303TIP3    H2 9916   3.045   3.671   3.552  0.8896  0.2660 -0.8646
 3304TIP3   OH2 9917   6.159   0.502   3.057 -0.2545 -0.1661 -0.5996
 3304TIP3    H1 9918   6.092   0.487   3.123  0.1425 -0.3481 -0.2327
 3304TIP3    H2 9919   6.115   0.553   2.989 -0.7589 -0.2754 -0.3585
 3305TIP3   OH2 9920   0.462   0.831   1.622 -0.3438  0.5242  0.0079
 3305TIP3    H1 9921   0.524   0.891   1.582  1.0357 -0.2781  0.8792
 3305TIP3    H2 9922   0.395   0.887   1.660  0.2985  1.4496 -0.2087
 3306TIP3   OH2 9923   5.585   3.028   5.051  0.0409  0.3280 -0.0829
 3306TIP3    H1 9924   5.676   3.010   5.025 -0.5609  0.3393 -2.4351
 3306TIP3    H2 9925   5.587   3.118   5.082  0.6357  0.8052 -1.4087
 3307TIP3   OH2 9926   5.841   1.059   1.439  0.3708 -0.2216 -0.5551
 3307TIP3    H1 9927   5.924   1.095   1.406  0.9605 -1.3760 -0.3713
 3307TIP3    H2 9928   5.814   0.998   1.371 -0.5552  0.4403 -0.7980
 3308TIP3   OH2 9929   1.921   2.582   4.458  0.6615 -0.3496  0.4424
 3308TIP3    H1 9930   1.832   2.618   4.453  1.1210  0.9888  1.2799
 3308TIP3    H2 9931   1.972   2.636   4.398  1.1626 -0.2726  0.9348
 3309TIP3   OH2 9932   2.394   5.197   4.624 -0.2318  0.6970 -0.6159
 3309TIP3    H1 9933   2.302   5.184   4.646  0.4583 -2.0564  1.1913
 3309TIP3    H2 9934   2.432   5.235   4.704  0.4235  0.6251 -0.8884
 3310TIP3   OH2 9935   3.677   4.323   3.135 -0.3894 -0.2721  0.2723
 3310TIP3    H1 9936   3.657   4.260   3.204 -3.3574  0.2406  0.0146
 3310TIP3    H2 9937   3.708   4.269   3.062  0.7278 -1.0160  1.2531
 3311TIP3   OH2 9938   0.069   1.765   1.812  0.1484 -0.0621  0.8362
 3311TIP3    H1 9939   0.125   1.822   1.865 -0.2461  1.2629 -0.0911
 3311TIP3    H2 9940  -0.004   1.822   1.787 -1.3463 -1.5986  1.5821
 3312TIP3   OH2 9941   4.468   4.316   0.578  0.2945  0.7350 -0.7204
 3312TIP3    H1 9942   4.479   4.250   0.510  0.8918 -0.8435  0.8435
 3312TIP3    H2 9943   4.398   4.372   0.545 -0.8986 -1.2174 -1.7063
 3313TIP3   OH2 9944   2.270   3.435   3.785  0.0703 -0.1328  0.4731
 3313TIP3    H1 9945   2.273   3.471   3.873 -0.8179 -1.1864  0.9507
 3313TIP3    H2 9946   2.363   3.425   3.761  0.3496 -1.2974  1.9084
 3314TIP3   OH2 9947   0.715   0.546   1.237  0.3963 -0.3161  0.5217
 3314TIP3    H1 9948   0.633   0.595   1.250 -0.2586 -1.7099  1.9768
 3314TIP3    H2 9949   0.707   0.470   1.294  1.2699 -2.2795 -1.7606
 3315TIP3   OH2 9950   2.319   2.516   5.059 -0.0703 -0.5399  0.0306
 3315TIP3    H1 9951   2.374   2.593   5.071 -0.2688  0.1310 -2.7456
 3315TIP3    H2 9952   2.243   2.547   5.011  0.1115 -2.5202 -1.6816
 3316TIP3   OH2 9953   2.861   2.559   0.310  0.0426  0.0613  0.0449
 3316TIP3    H1 9954   2.890   2.530   0.396  0.6261 -1.3722 -0.5925
 3316TIP3    H2 9955   2.783   2.507   0.291 -1.2233  1.7403  0.4810
 3317TIP3   OH2 9956   5.940   2.528   4.684  0.2538 -0.3028  0.0281
 3317TIP3    H1 9957   5.929   2.507   4.776 -1.1950  0.9652  0.1911
 3317TIP3    H2 9958   6.032   2.549   4.674  0.5348 -0.9781  1.0623
 3318TIP3   OH2 9959   2.352   0.607   0.833 -0.4140 -0.5160  0.6578
 3318TIP3    H1 9960   2.307   0.581   0.913 -1.7773 -2.8524 -0.7416
 3318TIP3    H2 9961   2.285   0.599   0.764  0.3680  2.5634 -0.6138
 3319TIP3   OH2 9962   3.054   2.835   4.651 -0.6254 -0.5608 -0.5403
 3319TIP3    H1 9963   3.048   2.920   4.694  0.1621 -1.4744  1.4552
 3319TIP3    H2 9964   3.049   2.771   4.722 -1.3248 -2.2140 -1.9981
 3320TIP3   OH2 9965   2.293   0.402   3.469 -0.0013  0.0270  0.4808
 3320TIP3    H1 9966   2.355   0.329   3.468 -0.6110 -0.5217 -1.9276
 3320TIP3    H2 9967   2.207   0.361   3.477 -0.4182  0.3468 -1.7028
 3321TIP3   OH2 9968   5.453   0.719   0.598  0.4111  0.0685 -0.3279
 3321TIP3    H1 9969   5.460   0.706   0.692 -1.0321 -0.7727 -0.3149
 3321TIP3    H2 9970   5.525   0.667   0.561  1.3271  0.8492  0.3126
 3322TIP3   OH2 9971   4.940   0.305   3.026  0.4955  0.5718  0.0906
 3322TIP3    H1 9972   4.996   0.247   2.974 -0.4537  0.6551 -1.0600
 3322TIP3    H2 9973   4.960   0.393   2.994  1.0102  0.7812  0.9545
 3323TIP3   OH2 9974   1.460   2.694   3.518 -0.3039  0.2735 -0.5143
 3323TIP3    H1 9975   1.390   2.738   3.471  0.1121 -2.0293 -3.5968
 3323TIP3    H2 9976   1.427   2.686   3.608 -2.8061  1.6190 -1.2220
 3324TIP3   OH2 9977   4.878   4.603   3.606 -0.1570 -0.1737  0.3498
 3324TIP3    H1 9978   4.896   4.649   3.524  1.9373 -0.3524  0.6663
 3324TIP3    H2 9979   4.902   4.666   3.674 -0.5586 -0.5215  0.8196
 3325TIP3   OH2 9980   1.563   5.094   0.614 -0.7334  0.1682 -0.1310
 3325TIP3    H1 9981   1.572   5.001   0.593  0.8206 -0.3184  2.2821
 3325TIP3    H2 9982   1.616   5.139   0.549  1.3499 -0.9717  0.6754
 3326TIP3   OH2 9983   2.484   5.232   1.297 -1.1240 -0.5159 -0.2055
 3326TIP3    H1 9984   2.567   5.197   1.329  0.4260  0.8174 -2.4494
 3326TIP3    H2 9985   2.505   5.268   1.211 -4.1214 -0.3421 -0.9765
 3327TIP3   OH2 9986   0.770   4.555   1.453 -0.4792 -0.1018  0.2480
 3327TIP3    H1 9987   0.709   4.623   1.482 -1.6353 -0.9477 -0.1463
 3327TIP3    H2 9988   0.852   4.577   1.497 -1.5403  0.0087  2.2901
 3328TIP3   OH2 9989   0.921   1.174   0.972 -0.0889  0.1447 -0.4262
 3328TIP3    H1 9990   0.928   1.085   1.007 -1.9002  0.4216  0.7659
 3328TIP3    H2 9991   0.922   1.231   1.049  1.3475  1.2079 -1.1885
 3329TIP3   OH2 9992   2.665   5.524   2.701 -0.5066  0.1345  0.2503
 3329TIP3    H1 9993   2.618   5.533   2.784 -0.1245  0.9477  0.3932
 3329TIP3    H2 9994   2.638   5.600   2.650  1.5180  1.2866  0.7870
 3330TIP3   OH2 9995   3.781   4.018   0.976  0.3958 -0.2660 -0.2848
 3330TIP3    H1 9996   3.840   4.092   0.968  0.0521  0.0052 -0.3562
 3330TIP3    H2 9997   3.694   4.058   0.980  0.1336 -0.6995 -1.2343
 3331TIP3   OH2 9998   5.531   5.874   2.590 -0.3240  0.1122 -0.4286
 3331TIP3    H1 9999   5.466   5.939   2.616 -2.1401 -1.5711 -0.4841
 3331TIP3    H210000   5.528   5.808   2.660  1.7108  0.1955 -0.1907
 3332TIP3   OH210001   0.934   5.743   4.109 -0.0206  0.2798  0.0250
 3332TIP3    H110002   0.844   5.734   4.141 -0.0511  1.0148  0.1536
 3332TIP3    H210003   0.936   5.828   4.066  0.7426  0.4718  0.4259
 3333TIP3   OH210004   3.595   3.063   4.179  0.3033 -0.0511  0.5135
 3333TIP3    H110005   3.579   3.009   4.257 -0.9892 -0.4140  0.0225
 3333TIP3    H210006   3.571   3.006   4.105 -1.8194  1.3574  0.0056
 3334TIP3   OH210007   2.812   2.331   2.293  0.1513  0.3573 -0.4555
 3334TIP3    H110008   2.760   2.346   2.214  0.5530  0.5113 -0.6951
 3334TIP3    H210009   2.748   2.325   2.363 -0.1292  2.1856 -0.4971
 3335TIP3   OH210010   5.944   1.467   1.634 -0.0800 -0.3676  0.7288
 3335TIP3    H110011   5.921   1.414   1.711  0.9216 -1.1208  0.5344
 3335TIP3    H210012   6.028   1.431   1.605 -0.0505  0.4473 -0.2339
 3336TIP3   OH210013   4.099   0.445   3.298 -0.3514 -0.3999  0.3360
 3336TIP3    H110014   4.155   0.465   3.374  0.4502 -2.4585  0.3637
 3336TIP3    H210015   4.110   0.351   3.285 -0.6709 -0.1525 -2.2055
 3337TIP3   OH210016   0.710   0.820  -0.009 -0.3769 -0.1111 -0.1844
 3337TIP3    H110017   0.700   0.771   0.072  1.1038  1.7414  1.2166
 3337TIP3    H210018   0.800   0.805  -0.036  0.2224  1.9668  0.4568
 3338TIP3   OH210019   0.947   4.665   4.800  0.5969  0.5759 -0.1262
 3338TIP3    H110020   1.040   4.655   4.820 -0.0829 -2.1483  2.3966
 3338TIP3    H210021   0.909   4.703   4.879 -0.6984 -0.1732 -0.3530
 3339TIP3   OH210022   1.282   0.294   1.556 -0.3342  0.5086 -0.5295
 3339TIP3    H110023   1.344   0.226   1.529  1.3219  2.4280 -1.8754
 3339TIP3    H210024   1.224   0.304   1.480  1.7836  3.0697 -2.0001
 3340TIP3   OH210025   4.294   5.575   1.896  0.4238 -0.0997  0.0439
 3340TIP3    H110026   4.373   5.532   1.862  0.0875 -1.7798  1.2550
 3340TIP3    H210027   4.326   5.630   1.968  0.6252  0.1230 -0.2151
 3341TIP3   OH210028   4.625   4.890   2.062 -0.0385  0.2084 -0.1706
 3341TIP3    H110029   4.675   4.966   2.032 -0.8224  0.7476 -0.1396
 3341TIP3    H210030   4.596   4.913   2.150 -1.9689  0.7519 -0.8864
 3342TIP3   OH210031   1.573   3.723   4.045  0.7003  0.1375  0.3638
 3342TIP3    H110032   1.622   3.663   3.989  0.1765 -0.5663  0.6552
 3342TIP3    H210033   1.502   3.670   4.082  0.5387  0.8017  1.0343
 3343TIP3   OH210034   5.670   4.447   2.048  0.0803 -0.0958 -1.2060
 3343TIP3    H110035   5.659   4.516   2.114 -0.9255 -1.3142 -0.0614
 3343TIP3    H210036   5.706   4.493   1.972  1.5510  1.3085  0.2565
 3344TIP3   OH210037   3.133   2.938   0.446  0.1429  0.0352  0.4579
 3344TIP3    H110038   3.097   2.918   0.360 -0.9130 -0.2019  0.9336
 3344TIP3    H210039   3.129   3.033   0.452  1.5238  0.1636 -0.2822
 3345TIP3   OH210040   6.280   5.711   1.048 -0.2686 -0.1804 -0.2205
 3345TIP3    H110041   6.345   5.671   1.105  0.5277  0.7959 -0.4291
 3345TIP3    H210042   6.324   5.787   1.010 -1.6409  0.7250 -0.0688
 3346TIP3   OH210043   3.839   4.350   4.931 -0.3756 -0.6259 -0.5052
 3346TIP3    H110044   3.882   4.327   5.013  0.3859  1.6121 -0.1947
 3346TIP3    H210045   3.895   4.312   4.863 -0.6682 -1.9618 -0.0146
 3347TIP3   OH210046   3.175   3.425   0.061 -0.6338  0.3362  0.4098
 3347TIP3    H110047   3.255   3.400   0.015 -1.1843 -0.9079  0.0612
 3347TIP3    H210048   3.200   3.500   0.114  0.5055  0.5923 -0.4517
 3348TIP3   OH210049   4.984   0.327   4.629 -0.0734 -0.4496  0.2278
 3348TIP3    H110050   5.026   0.412   4.642 -2.2898  0.6652  0.6555
 3348TIP3    H210051   5.011   0.276   4.705  0.2702  0.3098  0.6335
 3349TIP3   OH210052   6.250   2.549   4.074 -0.3822 -0.1685  0.4503
 3349TIP3    H110053   6.176   2.608   4.067 -0.4745 -0.0805  2.0297
 3349TIP3    H210054   6.250   2.519   4.164  2.3090  0.9109  0.9263
 3350TIP3   OH210055   0.805   3.300   4.127 -0.2037  0.2967 -0.4788
 3350TIP3    H110056   0.858   3.371   4.093  2.1922 -1.7710 -1.3726
 3350TIP3    H210057   0.866   3.243   4.174 -2.3577 -0.1862  2.0325
 3351TIP3   OH210058   0.648   1.799   1.337 -0.2529 -0.3610 -0.0823
 3351TIP3    H110059   0.609   1.813   1.424 -2.3319  0.1042 -1.0183
 3351TIP3    H210060   0.719   1.863   1.332 -2.9565  2.9123 -0.3192
 3352TIP3   OH210061   4.861   3.664   2.902  0.7713  0.2179 -0.5022
 3352TIP3    H110062   4.867   3.749   2.946 -0.3165 -0.0175  0.1645
 3352TIP3    H210063   4.827   3.605   2.970 -1.1915 -0.1101 -1.6805
 3353TIP3   OH210064   5.715   0.849   2.955  0.2758  0.6032  0.4666
 3353TIP3    H110065   5.752   0.769   2.991 -1.1914 -1.0697 -1.5438
 3353TIP3    H210066   5.698   0.904   3.032  4.0556  0.3088  1.6751
 3354TIP3   OH210067   2.710   4.099   1.392 -0.0326 -0.1057 -0.0103
 3354TIP3    H110068   2.705   4.037   1.320  0.7285 -2.4003  1.7911
 3354TIP3    H210069   2.624   4.094   1.434  0.2906 -0.6043  0.6178
 3355TIP3   OH210070   3.811   3.448   2.083  0.1315 -0.3377 -0.1137
 3355TIP3    H110071   3.804   3.505   2.007 -0.6603 -0.7564 -0.3693
 3355TIP3    H210072   3.754   3.373   2.062  0.6877 -0.9323  0.4591
 3356TIP3   OH210073   2.001   0.866   3.866  0.9084  0.5865 -0.0003
 3356TIP3    H110074   1.944   0.802   3.907  2.1803 -0.0497  0.8413
 3356TIP3    H210075   1.959   0.886   3.782 -0.6641  0.3609  0.7060
 3357TIP3   OH210076   4.691   4.979   4.048  0.1377  0.3184  0.4060
 3357TIP3    H110077   4.612   5.030   4.062 -0.1394  0.0194 -0.0461
 3357TIP3    H210078   4.664   4.907   3.990  0.8017  0.3937 -0.0107
 3358TIP3   OH210079   0.200   5.279   1.940  0.4015 -0.1786 -0.3242
 3358TIP3    H110080   0.167   5.242   1.858 -0.3910 -1.2114  0.4362
 3358TIP3    H210081   0.131   5.261   2.004  1.0874  0.4481  0.6194
 3359TIP3   OH210082   2.596   1.367   2.184  0.3468 -0.2339 -0.2530
 3359TIP3    H110083   2.651   1.445   2.184 -0.0722  0.0733  0.3233
 3359TIP3    H210084   2.637   1.309   2.247  0.5858 -0.4317 -0.5866
 3360TIP3   OH210085   1.269   5.716   2.068  0.0507 -0.2316 -0.2314
 3360TIP3    H110086   1.272   5.811   2.070 -0.6123 -0.1131 -2.4111
 3360TIP3    H210087   1.347   5.690   2.019  0.8261 -0.9244  1.2710
 3361TIP3   OH210088   4.105   5.559   3.574  0.0497  0.8946  0.4010
 3361TIP3    H110089   4.144   5.608   3.502 -0.5626 -2.0892 -2.2077
 3361TIP3    H210090   4.014   5.589   3.578 -0.4044 -0.0895 -1.3735
 3362TIP3   OH210091   3.572   0.790   2.197 -0.3654 -0.0378  0.7746
 3362TIP3    H110092   3.499   0.730   2.183 -1.1130  1.0491 -0.1392
 3362TIP3    H210093   3.544   0.872   2.157  1.2663  0.4830  0.6197
 3363TIP3   OH210094   0.355   3.294   2.436  0.3990 -0.6537 -0.0387
 3363TIP3    H110095   0.424   3.282   2.500  1.4475 -0.9505 -1.1827
 3363TIP3    H210096   0.326   3.205   2.415 -1.0574 -0.5003  1.1577
 3364TIP3   OH210097   1.406   5.486   4.693 -0.3601  0.3709  0.2990
 3364TIP3    H110098   1.397   5.400   4.732 -1.3248  0.5038  0.3840
 3364TIP3    H210099   1.444   5.469   4.607  1.1626  0.0260  1.0031
 3365TIP3   OH210100   4.156   4.744   2.611  0.2375  0.2544  0.1015
 3365TIP3    H110101   4.246   4.742   2.645  0.3243  0.7203 -0.1040
 3365TIP3    H210102   4.102   4.769   2.686  0.5151  2.0908 -0.2653
 3366TIP3   OH210103   0.882   1.914   1.485 -0.2179  0.2678  0.3088
 3366TIP3    H110104   0.976   1.898   1.478 -0.2069 -0.6978  2.0141
 3366TIP3    H210105   0.876   1.997   1.533 -0.2494  0.7722 -0.5566
 3367TIP3   OH210106   6.316   3.641   0.639 -0.6962  0.7716 -0.2458
 3367TIP3    H110107   6.271   3.613   0.718 -3.4384  2.9053 -0.9270
 3367TIP3    H210108   6.326   3.560   0.588 -2.5963 -0.0173  0.5325
 3368TIP3   OH210109   6.270   2.703   5.022  0.7383  0.1052  0.2651
 3368TIP3    H110110   6.331   2.714   4.949  1.2741 -2.2029  0.2681
 3368TIP3    H210111   6.202   2.768   5.006  3.0793  2.7283  0.2168
 3369TIP3   OH210112   2.117   4.630   1.200 -0.0711 -0.3915  0.2677
 3369TIP3    H110113   2.205   4.654   1.170  0.1660 -2.0642 -0.4603
 3369TIP3    H210114   2.129   4.604   1.291  0.0116  0.2548  0.4492
 3370TIP3   OH210115   5.919   3.940   1.355  0.2191 -0.4530  0.3134
 3370TIP3    H110116   5.949   4.028   1.380 -0.5331  0.0684 -0.5597
 3370TIP3    H210117   5.965   3.922   1.273  0.7281 -1.0855  0.7289
 3371TIP3   OH210118   3.537   5.828   2.006 -0.1571 -0.2399  0.0235
 3371TIP3    H110119   3.497   5.776   2.076  2.7994 -1.3937  1.0464
 3371TIP3    H210120   3.488   5.805   1.927 -0.9011 -2.2587  0.9975
 3372TIP3   OH210121   5.428   2.128   2.329  0.1901  0.0138 -0.3144
 3372TIP3    H110122   5.348   2.148   2.378  0.1370  0.3495 -0.5367
 3372TIP3    H210123   5.494   2.187   2.365  1.0520 -2.0302  1.7177
 3373TIP3   OH210124   3.281   1.727   3.899  0.0118  1.3535  0.6318
 3373TIP3    H110125   3.253   1.648   3.946  1.8890  1.0489  1.3387
 3373TIP3    H210126   3.342   1.695   3.833  0.1102  2.1366  0.3307
 3374TIP3   OH210127   1.812   2.419   3.566  0.4550  0.3075 -0.9346
 3374TIP3    H110128   1.804   2.447   3.658  0.6570  0.9600 -1.1114
 3374TIP3    H210129   1.723   2.426   3.532  0.4866  0.6627 -0.9527
 3375TIP3   OH210130   4.194   3.001   2.529  0.7112 -0.2354 -0.2160
 3375TIP3    H110131   4.201   2.995   2.433 -0.2109  3.4558 -0.6835
 3375TIP3    H210132   4.179   3.094   2.545  0.0529 -0.8571  3.5094
 3376TIP3   OH210133   0.773   5.902   2.009 -0.4344  0.5464  0.0406
 3376TIP3    H110134   0.855   5.853   2.013 -1.5266 -1.2856  1.3342
 3376TIP3    H210135   0.791   5.981   2.060  0.4186 -0.0094  0.6317
 3377TIP3   OH210136   1.378   0.670   3.414  0.0909 -0.2440  0.1540
 3377TIP3    H110137   1.394   0.576   3.428  0.5563 -0.3691 -1.1347
 3377TIP3    H210138   1.325   0.674   3.335 -1.6724  0.5001  1.3054
 3378TIP3   OH210139   0.999   0.317   1.476  0.6619  0.2093 -0.1917
 3378TIP3    H110140   0.961   0.368   1.548 -2.8827 -0.4621 -1.3575
 3378TIP3    H210141   1.008   0.229   1.511 -0.4029  0.0374 -0.3110
 3379TIP3   OH210142   2.158   5.412   2.167 -0.5521 -0.0727 -0.5828
 3379TIP3    H110143   2.152   5.318   2.150  0.7621 -0.6192  1.6386
 3379TIP3    H210144   2.111   5.425   2.250 -0.8840  1.2877 -0.9504
 3380TIP3   OH210145   5.233   2.727   3.230 -0.0203 -0.0174  0.1797
 3380TIP3    H110146   5.179   2.766   3.299  0.6112  1.3797 -0.0661
 3380TIP3    H210147   5.316   2.706   3.274 -0.3781 -1.1847  0.3226
 3381TIP3   OH210148   3.622   2.498   0.265 -0.3050  0.0769  0.5196
 3381TIP3    H110149   3.544   2.496   0.321  0.5347  0.2342  1.7481
 3381TIP3    H210150   3.648   2.589   0.264 -0.2015  0.0453 -0.0045
 3382TIP3   OH210151   1.617   2.577   4.676 -0.4012 -0.1085  0.4364
 3382TIP3    H110152   1.704   2.537   4.674 -0.6838 -0.7216  0.2402
 3382TIP3    H210153   1.634   2.670   4.696  0.3265 -0.1268 -0.0454
 3383TIP3   OH210154   0.986   5.918   3.142 -0.6111  0.3053 -0.0842
 3383TIP3    H110155   1.053   5.887   3.204 -1.2633 -0.2790  0.3478
 3383TIP3    H210156   1.032   5.982   3.088  0.2308  0.1170  0.3764
 3384TIP3   OH210157   4.783   3.439   2.507  0.7819 -0.6219  0.2518
 3384TIP3    H110158   4.758   3.348   2.522 -0.2690 -0.3760  0.0699
 3384TIP3    H210159   4.854   3.434   2.442 -0.5900 -1.2142 -1.2554
 3385TIP3   OH210160   2.796   5.429   1.739  0.1700 -0.6034  0.1815
 3385TIP3    H110161   2.706   5.441   1.770 -0.0999  1.7694 -1.2800
 3385TIP3    H210162   2.787   5.411   1.645  1.2162 -0.1286 -0.0304
 3386TIP3   OH210163   4.581   2.462   3.470  0.5675 -0.0317 -1.1143
 3386TIP3    H110164   4.550   2.416   3.392 -1.4374  1.5385 -1.3057
 3386TIP3    H210165   4.519   2.437   3.539 -0.3709  2.0567 -1.1467
 3387TIP3   OH210166   2.273   1.110   0.792 -0.0722  0.2128 -0.1418
 3387TIP3    H110167   2.304   1.179   0.732  2.1184 -0.8178 -0.3147
 3387TIP3    H210168   2.275   1.151   0.879  1.4320  0.3473 -0.2116
 3388TIP3   OH210169   2.790   5.946   0.498  0.0026 -0.0948  0.2464
 3388TIP3    H110170   2.776   5.852   0.508 -3.6267  0.4272  1.7221
 3388TIP3    H210171   2.738   5.970   0.421  0.5301  0.8021  0.1535
 3389TIP3   OH210172   4.690   4.274   3.952  0.2343  0.2569 -0.2836
 3389TIP3    H110173   4.680   4.179   3.942 -0.5280  0.2626  0.3754
 3389TIP3    H210174   4.743   4.284   4.031  1.6635  0.3593 -1.2063
 3390TIP3   OH210175   1.473   1.662   1.279  0.4404  0.1725 -0.2151
 3390TIP3    H110176   1.552   1.687   1.230  0.6600  1.9242  0.9457
 3390TIP3    H210177   1.497   1.675   1.371 -1.5675  2.0772  0.1209
 3391TIP3   OH210178   0.542   2.552   4.883  0.3917 -0.4981 -0.4899
 3391TIP3    H110179   0.449   2.571   4.872  0.6242  1.0814  0.0823
 3391TIP3    H210180   0.550   2.519   4.973  0.6355  1.2194  0.1422
 3392TIP3   OH210181   3.067   5.933   0.501 -0.0502  0.4126  0.4651
 3392TIP3    H110182   2.979   5.969   0.509 -0.7150 -0.7435 -1.1987
 3392TIP3    H210183   3.077   5.879   0.579 -0.8536  0.4651  0.6173
 3393TIP3   OH210184   3.031   1.297   0.233 -0.1303 -0.2910  0.4164
 3393TIP3    H110185   3.001   1.292   0.323 -2.2781  1.8877 -0.0818
 3393TIP3    H210186   2.980   1.230   0.187 -1.3606  0.7221  0.2833
 3394TIP3   OH210187   0.245   5.751   4.907 -0.9035 -0.6433 -0.3452
 3394TIP3    H110188   0.315   5.763   4.971 -1.4807 -1.2622  0.4308
 3394TIP3    H210189   0.249   5.829   4.852 -0.3063 -0.1563  0.3668
 3395TIP3   OH210190   1.878   3.157   3.191  0.1595  0.4049 -0.5360
 3395TIP3    H110191   1.853   3.185   3.279 -0.4749 -0.9007 -0.2706
 3395TIP3    H210192   1.885   3.238   3.141 -1.4889  1.0447  0.1983
 3396TIP3   OH210193   3.318   3.032   4.119  0.4086  0.1970  0.0079
 3396TIP3    H110194   3.351   3.070   4.037 -1.9559  0.2640 -0.9909
 3396TIP3    H210195   3.264   2.958   4.090 -0.9842  0.6063  1.4562
 3397TIP3   OH210196   1.521   2.862   4.959 -0.2186  0.0997 -0.4276
 3397TIP3    H110197   1.513   2.798   4.888 -0.6069  0.0487 -0.3365
 3397TIP3    H210198   1.444   2.848   5.014 -0.1225  0.4052 -0.2097
 3398TIP3   OH210199   0.784   3.859   2.882  0.3831  0.4978  0.0410
 3398TIP3    H110200   0.798   3.809   2.962  0.5051 -0.8072 -0.7632
 3398TIP3    H210201   0.690   3.858   2.869  0.4955 -0.9839 -0.8445
 3399TIP3   OH210202   0.451   4.718   0.349  0.2082  0.4111 -0.4270
 3399TIP3    H110203   0.482   4.727   0.439 -0.9636 -1.0566  0.1856
 3399TIP3    H210204   0.375   4.776   0.344  0.2721  0.4913 -0.4711
 3400TIP3   OH210205   5.824   3.539   2.724  0.5722 -0.5929  0.1779
 3400TIP3    H110206   5.858   3.578   2.643 -2.4091  0.4906 -0.6727
 3400TIP3    H210207   5.785   3.456   2.695  0.7959 -0.9196  0.7952
 3401TIP3   OH210208   4.726   5.234   4.481  0.2512  0.2187  0.2286
 3401TIP3    H110209   4.718   5.328   4.464  1.0418  0.3745  0.6962
 3401TIP3    H210210   4.805   5.207   4.434 -0.6578 -0.4932 -0.9854
 3402TIP3   OH210211   5.054   2.963   5.065  0.0488 -0.4754  0.0867
 3402TIP3    H110212   4.973   2.917   5.043 -1.6602  1.2187  2.3619
 3402TIP3    H210213   5.072   2.939   5.156 -0.4107  2.4271  1.0704
 3403TIP3   OH210214   0.214   0.971   3.567  0.7573 -0.0380 -0.2322
 3403TIP3    H110215   0.173   0.975   3.654  1.2636 -1.8766  0.1341
 3403TIP3    H210216   0.148   1.007   3.508 -1.6301 -3.0325  0.3042
 3404TIP3   OH210217   3.964   4.651   0.216 -0.2585  0.2339 -0.4345
 3404TIP3    H110218   3.984   4.701   0.295  2.3165  1.7779 -1.9392
 3404TIP3    H210219   3.956   4.560   0.247  1.6250  0.6475  1.5012
 3405TIP3   OH210220   0.728   1.116   4.821  0.7567 -0.1222 -0.1836
 3405TIP3    H110221   0.803   1.108   4.879  0.5007  0.8875  0.3095
 3405TIP3    H210222   0.730   1.036   4.768  1.8677 -0.3483  0.1717
 3406TIP3   OH210223   0.406   0.030   4.593  0.9302  0.4555  0.1075
 3406TIP3    H110224   0.336   0.010   4.655  0.7398  1.9881  0.4436
 3406TIP3    H210225   0.427   0.122   4.611  0.7242  1.0030 -2.2443
 3407TIP3   OH210226   0.136   1.497   3.165  0.2560 -0.4172 -0.4529
 3407TIP3    H110227   0.057   1.464   3.123  0.0823  0.5704 -0.9331
 3407TIP3    H210228   0.181   1.547   3.096  0.8054 -0.1643  0.0776
 3408TIP3   OH210229   4.252   3.409   0.495  0.7586 -0.0406  0.1560
 3408TIP3    H110230   4.212   3.388   0.579  0.0741  0.3840 -0.0538
 3408TIP3    H210231   4.180   3.405   0.432  1.2434 -0.2567 -0.3969
 3409TIP3   OH210232   5.374   4.144   5.143  0.8675 -0.2209 -0.1960
 3409TIP3    H110233   5.378   4.238   5.161  1.3362  0.2881 -2.6201
 3409TIP3    H210234   5.463   4.113   5.159  0.6307 -0.3556  0.9484
 3410TIP3   OH210235   0.602   3.678   3.531  0.1980  0.3778 -0.3982
 3410TIP3    H110236   0.561   3.597   3.498  1.0672  0.4059 -1.6078
 3410TIP3    H210237   0.665   3.648   3.596 -0.0144  0.1474 -0.2959
 3411TIP3   OH210238   0.911   5.202   4.234 -0.3224  0.0891 -0.1751
 3411TIP3    H110239   0.871   5.251   4.306  1.8347 -0.5243  1.5674
 3411TIP3    H210240   0.892   5.110   4.255 -0.1660 -0.0624 -0.6973
 3412TIP3   OH210241   1.374   4.445   4.442 -0.1347 -0.2496  0.1249
 3412TIP3    H110242   1.421   4.376   4.395 -0.0025 -0.3265  0.3684
 3412TIP3    H210243   1.304   4.399   4.488  0.6848 -0.3990  1.2674
 3413TIP3   OH210244   4.050   1.347   3.906 -0.0756  0.4256 -0.2211
 3413TIP3    H110245   4.000   1.429   3.913 -0.9865  0.0446 -1.7595
 3413TIP3    H210246   4.081   1.346   3.815  1.5654 -0.0430  0.3120
 3414TIP3   OH210247   3.546   2.096   4.581  0.1354 -0.0902 -0.5781
 3414TIP3    H110248   3.581   2.015   4.544  2.0607 -0.2988  1.4734
 3414TIP3    H210249   3.466   2.070   4.626  0.8013 -0.9158  0.1581
 3415TIP3   OH210250   0.613   1.360   3.367 -0.5179 -0.1259 -0.1759
 3415TIP3    H110251   0.596   1.296   3.298 -2.4407 -1.0650  1.0866
 3415TIP3    H210252   0.550   1.429   3.351  0.6454  0.8580 -0.7189
 3416TIP3   OH210253   3.713   3.784   5.113  0.2534 -0.1660  0.3507
 3416TIP3    H110254   3.646   3.841   5.151  0.6211 -0.6555  1.7742
 3416TIP3    H210255   3.705   3.798   5.019 -2.1872 -0.5494  0.4351
 3417TIP3   OH210256   5.465   5.211   4.331 -0.5407  0.1116 -0.4532
 3417TIP3    H110257   5.419   5.241   4.410  0.3672 -1.7608  0.8777
 3417TIP3    H210258   5.507   5.130   4.358  0.9189  0.1066 -2.5294
 3418TIP3   OH210259   5.591   4.532   0.871  0.1962  0.2075 -0.6736
 3418TIP3    H110260   5.584   4.551   0.965 -0.7060  1.0040 -0.8817
 3418TIP3    H210261   5.580   4.617   0.829 -2.1846 -0.4590 -1.5818
 3419TIP3   OH210262   6.171   4.490   0.967 -0.2826  0.0443 -0.3201
 3419TIP3    H110263   6.138   4.431   0.899  1.4119  0.3367 -1.4456
 3419TIP3    H210264   6.266   4.493   0.953 -0.3470  3.8343 -1.0105
 3420TIP3   OH210265   0.086   2.081   3.425 -0.3376 -0.5992 -0.5521
 3420TIP3    H110266   0.080   2.070   3.520 -0.5185 -0.5409 -0.5573
 3420TIP3    H210267   0.173   2.046   3.403 -0.4269 -0.9208 -0.4089
 3421TIP3   OH210268   3.919   4.902   1.711  0.1484 -0.4150 -0.0038
 3421TIP3    H110269   4.003   4.868   1.679  0.2543  0.2257 -0.4373
 3421TIP3    H210270   3.942   4.978   1.765 -0.1798  0.2038 -0.7131
 3422TIP3   OH210271   5.132   4.645   4.341 -0.6482  0.2318  0.0471
 3422TIP3    H110272   5.177   4.603   4.268  1.1583  2.0371  0.0338
 3422TIP3    H210273   5.184   4.724   4.359 -1.4303  0.2142  2.8203
 3423TIP3   OH210274   1.533   0.996   4.961 -0.3516 -0.7200 -0.2396
 3423TIP3    H110275   1.550   1.091   4.961 -0.9762 -0.6041 -0.6684
 3423TIP3    H210276   1.478   0.982   4.884  2.1779 -1.8730 -1.9698
 3424TIP3   OH210277   3.719   5.620   3.840  0.6216  0.6951  0.3640
 3424TIP3    H110278   3.678   5.579   3.916 -0.4152  0.3558 -0.3459
 3424TIP3    H210279   3.645   5.650   3.787  1.3398  1.9053  0.0085
 3425TIP3   OH210280   0.896   3.862   0.472  0.1329  0.8852 -0.1440
 3425TIP3    H110281   0.931   3.919   0.404  0.6940 -0.2365 -0.8355
 3425TIP3    H210282   0.817   3.906   0.503 -0.3304  1.2500 -1.7652
 3426TIP3   OH210283   0.130   0.146   1.809 -0.1911 -0.1952  0.6944
 3426TIP3    H110284   0.067   0.143   1.880 -1.7595  0.6844 -0.6046
 3426TIP3    H210285   0.191   0.216   1.833 -0.7969  0.1910  1.1180
 3427TIP3   OH210286   2.462   4.297   4.559  0.0340 -0.2096 -0.6072
 3427TIP3    H110287   2.483   4.204   4.553  2.6917  0.3446 -1.0155
 3427TIP3    H210288   2.436   4.310   4.650  0.3749 -1.2166 -0.3546
 3428TIP3   OH210289   4.949   5.942   4.878  0.1604  0.5737  0.5077
 3428TIP3    H110290   4.972   5.922   4.787  1.2406 -0.2825  0.9586
 3428TIP3    H210291   4.905   6.027   4.873 -1.3624 -0.2321 -1.0268
 3429TIP3   OH210292   3.871   2.173   4.541 -0.4422 -0.2891  0.1110
 3429TIP3    H110293   3.932   2.150   4.471 -1.0668  0.0576 -0.5802
 3429TIP3    H210294   3.891   2.114   4.613  1.7342  0.8282  0.5057
 3430TIP3   OH210295   1.795   2.128   1.322 -0.5254 -0.5650  0.8250
 3430TIP3    H110296   1.862   2.165   1.380 -0.0268  0.7982 -0.5522
 3430TIP3    H210297   1.754   2.204   1.281 -0.7569 -1.4755 -0.7175
 3431TIP3   OH210298   2.612   2.690   4.831  0.4358  0.1163  0.6613
 3431TIP3    H110299   2.539   2.628   4.827 -0.7336  1.3028  2.2205
 3431TIP3    H210300   2.639   2.702   4.740  0.3990 -2.2905  0.2685
 3432TIP3   OH210301   0.549   1.639   2.778  0.0303  0.2738  0.4828
 3432TIP3    H110302   0.521   1.684   2.698  1.1223  0.4232  0.1671
 3432TIP3    H210303   0.475   1.585   2.803 -0.3812  0.3545 -0.5445
 3433TIP3   OH210304   4.785   5.703   0.898  0.3709 -0.3968 -0.3034
 3433TIP3    H110305   4.814   5.656   0.819  1.9094 -0.6369  0.3683
 3433TIP3    H210306   4.857   5.762   0.917 -0.0325 -0.2787  0.8871
 3434TIP3   OH210307   4.009   1.348   2.231 -0.2159  0.4455  0.5029
 3434TIP3    H110308   3.992   1.341   2.137 -1.8536  0.9127  0.7348
 3434TIP3    H210309   3.924   1.332   2.272  0.5729 -0.2661  1.9446
 3435TIP3   OH210310   4.739   2.454   1.052 -0.1604  0.4679  0.4708
 3435TIP3    H110311   4.646   2.458   1.030 -0.0037 -1.2482 -0.7163
 3435TIP3    H210312   4.777   2.396   0.985  1.9673  1.9574  0.2795
 3436TIP3   OH210313   2.963   2.952   0.237  0.2822  0.1730 -0.2386
 3436TIP3    H110314   2.871   2.927   0.245  0.5876 -1.2578 -0.9112
 3436TIP3    H210315   3.000   2.889   0.175  1.2810  1.9416 -1.5081
 3437TIP3   OH210316   2.926   2.108   2.791 -0.5497 -0.4292 -0.4210
 3437TIP3    H110317   2.991   2.072   2.731 -0.7997  1.1383 -1.6901
 3437TIP3    H210318   2.877   2.171   2.739 -0.0001  1.9153  1.6856
 3438TIP3   OH210319   5.978   0.264   4.560  0.4025  0.1411 -0.2394
 3438TIP3    H110320   6.055   0.264   4.618 -0.8956  1.0755  1.5874
 3438TIP3    H210321   5.975   0.353   4.525  0.7933 -0.2336 -1.2690
 3439TIP3   OH210322   4.163   5.663   0.549 -0.3402  0.0389  0.4461
 3439TIP3    H110323   4.122   5.585   0.512  0.3029  0.5544 -1.4386
 3439TIP3    H210324   4.093   5.705   0.599 -1.0378 -1.0745  0.4357
 3440TIP3   OH210325   5.805   3.049   2.667  0.2209  0.1557  0.0543
 3440TIP3    H110326   5.769   3.137   2.653  1.1696  0.5017 -0.2390
 3440TIP3    H210327   5.899   3.058   2.652  0.2062 -1.1271 -1.0018
 3441TIP3   OH210328   2.073   1.568   2.371 -0.2983  0.3662 -0.4118
 3441TIP3    H110329   2.142   1.633   2.356  1.4570 -0.9321  1.4927
 3441TIP3    H210330   2.092   1.532   2.457 -1.5791 -2.2134 -1.1025
 3442TIP3   OH210331   6.346   1.827   0.671 -0.6655 -0.3189  0.7888
 3442TIP3    H110332   6.375   1.825   0.580 -0.1912  0.6829  0.9032
 3442TIP3    H210333   6.252   1.845   0.665 -0.2477  2.2091  0.4915
 3443TIP3   OH210334   5.480   2.873   0.247  0.5478 -0.4727  0.3409
 3443TIP3    H110335   5.443   2.811   0.185  0.8672  0.1150 -0.4518
 3443TIP3    H210336   5.422   2.869   0.323  0.6177 -1.8023  0.3519
 3444TIP3   OH210337   2.694   5.320   2.993 -0.0973 -0.4376 -0.4556
 3444TIP3    H110338   2.734   5.406   3.001  0.6765 -0.6627 -1.6152
 3444TIP3    H210339   2.767   5.260   2.980 -0.5652 -1.3963  1.1138
 3445TIP3   OH210340   1.043   4.707   2.602  0.4708 -0.2094 -0.4376
 3445TIP3    H110341   1.108   4.748   2.660 -1.0390  1.0033  0.4673
 3445TIP3    H210342   1.092   4.686   2.522  1.8614  1.1235  0.0250
 3446TIP3   OH210343   4.141   5.093   0.944 -0.5267 -0.3093  0.2154
 3446TIP3    H110344   4.150   5.012   0.894  0.2237 -0.0218 -0.1251
 3446TIP3    H210345   4.051   5.121   0.928 -0.9970 -1.3810  0.8225
 3447TIP3   OH210346   5.349   0.157   4.926  0.2253  0.1610  0.2710
 3447TIP3    H110347   5.297   0.137   5.004  0.1584 -0.2191  0.1327
 3447TIP3    H210348   5.314   0.240   4.894 -3.0710 -1.9222 -2.1269
 3448TIP3   OH210349   1.867   3.436   1.903 -0.0140  0.0134  0.5272
 3448TIP3    H110350   1.902   3.520   1.933  0.3230  0.2964 -0.6042
 3448TIP3    H210351   1.927   3.409   1.833 -0.1089 -1.1793  0.8940
 3449TIP3   OH210352   4.958   1.529   2.602  0.3199 -0.2404  0.3160
 3449TIP3    H110353   4.983   1.502   2.513  3.1738 -0.5011  1.0836
 3449TIP3    H210354   4.974   1.451   2.655 -1.6125 -0.1704  1.0912
 3450TIP3   OH210355   5.985   1.849   3.001  0.3474  0.0573 -0.2149
 3450TIP3    H110356   5.998   1.796   3.080  0.8854  0.9315  0.2988
 3450TIP3    H210357   6.025   1.798   2.931 -0.4156 -0.8749  0.0147
 3451TIP3   OH210358   4.964   2.990   3.705  0.0997  0.1221  0.5031
 3451TIP3    H110359   4.978   3.059   3.639 -1.0224 -0.1875 -0.0929
 3451TIP3    H210360   4.943   2.912   3.654  2.9444 -1.1354  1.0992
 3452TIP3   OH210361   3.899   1.987   4.791  0.2516 -0.0071 -0.0159
 3452TIP3    H110362   3.976   1.957   4.839 -0.4151 -0.0594  1.0598
 3452TIP3    H210363   3.843   1.910   4.786 -1.1311  0.7628  2.0804
 3453TIP3   OH210364   4.407   2.040   3.350 -0.1253  0.6751 -0.3951
 3453TIP3    H110365   4.407   2.012   3.259 -1.7623  2.7936 -1.1396
 3453TIP3    H210366   4.499   2.045   3.374  0.3105 -0.9200 -1.5711
 3454TIP3   OH210367   4.322   5.954   3.307 -0.3217 -0.0761  0.2715
 3454TIP3    H110368   4.357   5.937   3.220  2.3894  1.9136  0.8153
 3454TIP3    H210369   4.238   5.996   3.292  0.6688  1.4158 -1.4625
 3455TIP3   OH210370   1.876   1.324   2.860 -0.1795  0.2161  0.0825
 3455TIP3    H110371   1.885   1.267   2.784 -0.2843 -0.9807  0.9283
 3455TIP3    H210372   1.820   1.274   2.920  0.9303  0.5627  1.4592
 3456TIP3   OH210373   5.781   3.142   3.343 -0.0606 -0.4733  0.0767
 3456TIP3    H110374   5.707   3.177   3.392 -0.6583 -0.9690 -0.4615
 3456TIP3    H210375   5.742   3.103   3.265  0.8390  0.0269 -0.6502
 3457TIP3   OH210376   2.259   1.382   4.914 -0.2687 -0.3019  0.0594
 3457TIP3    H110377   2.321   1.448   4.945  0.1698 -0.4557 -0.4777
 3457TIP3    H210378   2.176   1.405   4.957  0.5300 -1.1005  2.1535
 3458TIP3   OH210379   2.384   5.826   0.884  0.0344 -0.3283  0.2178
 3458TIP3    H110380   2.329   5.837   0.962  1.5871 -0.1481  1.3350
 3458TIP3    H210381   2.417   5.914   0.866  0.8460 -0.6155  0.2663
 3459TIP3   OH210382   3.895   1.707   3.175 -0.2627  0.6097  0.2301
 3459TIP3    H110383   3.800   1.708   3.189 -0.6125  0.7572 -1.7976
 3459TIP3    H210384   3.908   1.641   3.107  0.9087  1.6622 -0.6118
 3460TIP3   OH210385   1.433   0.270   2.683 -0.3012  0.3868 -0.1591
 3460TIP3    H110386   1.353   0.322   2.676 -1.2440 -0.9950  0.1248
 3460TIP3    H210387   1.475   0.303   2.763  0.2520  2.1922 -1.1264
 3461TIP3   OH210388   5.906   0.332   0.971 -0.3019  0.0625 -0.1076
 3461TIP3    H110389   5.817   0.317   1.002 -0.5408  0.3676 -0.6325
 3461TIP3    H210390   5.955   0.358   1.049 -1.1653  2.0159 -0.1527
 3462TIP3   OH210391   5.372   2.861   4.534 -0.7940  0.3463 -0.7060
 3462TIP3    H110392   5.292   2.911   4.523 -1.0421  0.0791 -0.1729
 3462TIP3    H210393   5.342   2.773   4.557 -0.3524  0.2047 -0.6650
 3463TIP3   OH210394   5.614   0.628   4.016 -0.7969 -0.1051 -0.3028
 3463TIP3    H110395   5.596   0.535   4.003 -0.9641 -0.3269  1.2650
 3463TIP3    H210396   5.554   0.673   3.957 -1.0046 -0.9861 -0.7761
 3464TIP3   OH210397   2.486   3.040   1.712 -0.0408 -0.4151  0.4394
 3464TIP3    H110398   2.526   3.068   1.794  0.2236  0.1801  0.1218
 3464TIP3    H210399   2.470   3.122   1.665  0.3481 -0.7697 -0.3417
 3465TIP3   OH210400   3.495   5.781   5.012  0.2840 -0.1438  0.1710
 3465TIP3    H110401   3.552   5.744   4.945 -0.3452 -0.2708 -0.3080
 3465TIP3    H210402   3.463   5.863   4.974  0.1065 -0.1014  0.4077
 3466TIP3   OH210403   5.833   4.043   0.864 -0.3837 -0.5835  0.1637
 3466TIP3    H110404   5.778   4.061   0.941  0.5680  1.9740  0.3178
 3466TIP3    H210405   5.771   4.039   0.791 -0.9429  0.9117  0.5229
 3467TIP3   OH210406   5.998   2.645   3.106  0.0772  0.5888 -0.0025
 3467TIP3    H110407   6.087   2.657   3.072 -0.5519 -1.6231 -2.9313
 3467TIP3    H210408   5.969   2.732   3.130  2.1007  1.7891 -1.5603
 3468TIP3   OH210409   0.271   2.605   4.851  0.3632  0.1295  0.3102
 3468TIP3    H110410   0.262   2.604   4.947  1.6237  0.2646  0.4455
 3468TIP3    H210411   0.193   2.651   4.821 -0.3451 -0.4343  1.2304
 3469TIP3   OH210412   4.514   1.151   0.411  0.6389 -0.2325 -0.7139
 3469TIP3    H110413   4.553   1.237   0.397 -0.6458  0.6559  0.8386
 3469TIP3    H210414   4.431   1.153   0.363  0.5166 -0.5335 -0.5226
 3470TIP3   OH210415   1.115   3.437   4.345  0.4797  0.6109 -0.7399
 3470TIP3    H110416   1.171   3.514   4.340  1.0402  0.3510  0.8325
 3470TIP3    H210417   1.050   3.460   4.411  1.2971 -0.6142  0.5484
 3471TIP3   OH210418   3.727   4.622   3.490  0.1081 -0.2337  0.3314
 3471TIP3    H110419   3.665   4.691   3.464 -0.3660 -0.5094  0.7101
 3471TIP3    H210420   3.711   4.551   3.428  0.6235  0.0073 -0.0827
 3472TIP3   OH210421   5.062   2.832   1.621  0.6032  0.3122  0.0063
 3472TIP3    H110422   5.043   2.835   1.527  1.9922  2.4646 -0.2780
 3472TIP3    H210423   5.044   2.921   1.651  0.2853 -0.3173  1.7883
 3473TIP3   OH210424   2.781   1.133   1.484  0.1954  0.3659  0.7911
 3473TIP3    H110425   2.763   1.219   1.445 -0.4092  0.3472  1.0141
 3473TIP3    H210426   2.732   1.134   1.566 -0.6547 -0.5773  0.3206
 3474TIP3   OH210427   4.020   2.736   1.061 -0.3998  0.2822 -0.3090
 3474TIP3    H110428   3.961   2.676   1.016  0.5302 -0.6013 -0.3788
 3474TIP3    H210429   3.962   2.790   1.116 -1.3742  0.2314 -1.2456
 3475TIP3   OH210430   0.222   1.067   4.447  0.3436  0.4546  0.1245
 3475TIP3    H110431   0.289   1.011   4.408 -1.1807  0.4168 -2.7379
 3475TIP3    H210432   0.160   1.005   4.486  0.3363  0.2990 -0.1257
 3476TIP3   OH210433   3.587   1.960   2.661  0.0704  0.0804 -0.4584
 3476TIP3    H110434   3.580   2.053   2.641 -0.3477 -0.2588 -2.0132
 3476TIP3    H210435   3.676   1.936   2.637  0.7210  0.3916  1.4826
 3477TIP3   OH210436   3.423   1.210   1.662  0.0798 -0.1929 -0.0105
 3477TIP3    H110437   3.340   1.205   1.710  0.1084  0.4121  0.1192
 3477TIP3    H210438   3.484   1.161   1.716 -0.5065 -1.9122 -0.8465
 3478TIP3   OH210439   1.553   2.818   2.128 -0.3150 -0.2915 -0.0208
 3478TIP3    H110440   1.643   2.786   2.140 -0.2101 -0.0076 -0.0409
 3478TIP3    H210441   1.504   2.741   2.101 -0.1551 -0.5319  0.3549
 3479TIP3   OH210442   2.623   2.345   1.662  0.2620  0.3546  0.1625
 3479TIP3    H110443   2.691   2.369   1.599  1.0099 -1.8994  0.0307
 3479TIP3    H210444   2.570   2.424   1.672  1.3598  1.3797 -1.7164
 3480TIP3   OH210445   3.311   4.350   0.987 -0.2571  0.1577  0.4538
 3480TIP3    H110446   3.250   4.298   0.933 -0.6572  0.9838  0.0977
 3480TIP3    H210447   3.315   4.303   1.070  2.6625 -2.8931 -1.1403
 3481TIP3   OH210448   4.302   1.145   3.727 -0.1212 -0.5602  0.5134
 3481TIP3    H110449   4.314   1.108   3.814 -0.7846 -2.2130 -0.0664
 3481TIP3    H210450   4.381   1.121   3.679 -0.1639 -0.4530  0.3877
 3482TIP3   OH210451   1.911   1.698   2.147 -0.8330  0.0824 -0.2149
 3482TIP3    H110452   1.824   1.726   2.117  0.5013  3.2291 -1.5641
 3482TIP3    H210453   1.943   1.770   2.201  1.0706 -0.8752  0.0395
 3483TIP3   OH210454   4.991   5.761   4.063  0.0262 -0.7947  0.8428
 3483TIP3    H110455   5.077   5.719   4.065  0.0577 -0.7139  1.1210
 3483TIP3    H210456   4.998   5.827   3.994 -0.4498 -2.1646 -0.5893
 3484TIP3   OH210457   1.345   2.872   4.010  0.5508  0.5326 -0.2440
 3484TIP3    H110458   1.346   2.944   3.948  1.9615 -0.2987 -1.2530
 3484TIP3    H210459   1.366   2.912   4.095  2.3414  1.1943 -0.9630
 3485TIP3   OH210460   1.263   4.417   2.278 -0.7352  0.3460  0.6488
 3485TIP3    H110461   1.321   4.347   2.247 -1.1578  0.9348 -1.6746
 3485TIP3    H210462   1.257   4.403   2.372  0.6826 -1.6036  0.5173
 3486TIP3   OH210463   1.125   5.092   4.619  0.2657  0.2777  0.4164
 3486TIP3    H110464   1.142   5.149   4.545  1.9934  0.0544  0.6037
 3486TIP3    H210465   1.202   5.034   4.623 -0.3775 -0.5335  1.6159
 3487TIP3   OH210466   0.992   3.308   5.107  0.1166  0.1653  0.5198
 3487TIP3    H110467   1.087   3.317   5.106  0.1849 -0.5565  0.1505
 3487TIP3    H210468   0.974   3.231   5.054 -0.7274  0.7038 -0.0018
 3488TIP3   OH210469   3.318   2.762   0.541  0.1559 -0.1444 -0.3232
 3488TIP3    H110470   3.251   2.827   0.521  1.5156  1.2870 -0.4587
 3488TIP3    H210471   3.401   2.809   0.530  1.2006 -1.9078 -0.3911
 3489TIP3   OH210472   3.787   1.569   2.136 -0.0857 -0.3746 -0.0750
 3489TIP3    H110473   3.818   1.534   2.052  0.2832  0.7777 -0.4315
 3489TIP3    H210474   3.747   1.653   2.114 -1.0523 -0.5977  0.7540
 3490TIP3   OH210475   6.004   5.535   2.715 -0.1580 -0.4559 -0.6940
 3490TIP3    H110476   6.019   5.568   2.627  0.5064 -0.5827 -0.6344
 3490TIP3    H210477   6.004   5.439   2.705 -0.4111 -0.4694 -0.6016
 3491TIP3   OH210478   1.283   1.832   3.534  0.2283 -0.4972 -0.2987
 3491TIP3    H110479   1.210   1.894   3.536  1.0663  0.5239  0.0619
 3491TIP3    H210480   1.358   1.885   3.507  0.5787 -1.8255 -2.0701
 3492TIP3   OH210481   1.178   4.100   1.482 -0.2940  0.8656 -0.2337
 3492TIP3    H110482   1.190   4.044   1.558  2.4270  3.0082  1.1056
 3492TIP3    H210483   1.128   4.175   1.515 -0.7438  0.9439 -1.0635
 3493TIP3   OH210484   1.416   2.589   2.067  1.1091  0.3643  0.1740
 3493TIP3    H110485   1.341   2.598   2.125  1.4793  2.7358  0.3967
 3493TIP3    H210486   1.428   2.495   2.056 -1.2372 -0.0734  0.9512
 3494TIP3   OH210487   5.227   1.805   3.336 -0.2193 -0.6132  0.4260
 3494TIP3    H110488   5.258   1.736   3.277  0.6163 -0.8358  1.1033
 3494TIP3    H210489   5.261   1.886   3.298  0.2361 -0.7450  0.5500
 3495TIP3   OH210490   1.832   5.298   0.651 -0.0571  0.3691 -0.3211
 3495TIP3    H110491   1.912   5.333   0.613  0.5326  0.9466  1.3429
 3495TIP3    H210492   1.786   5.258   0.578  1.3589  0.7466 -1.4682
 3496TIP3   OH210493   3.433   5.099   3.679 -0.1349 -0.0893 -0.2435
 3496TIP3    H110494   3.399   5.187   3.668  1.3573  0.6535  0.6989
 3496TIP3    H210495   3.521   5.102   3.641 -0.0135 -1.1419 -0.0916
 3497TIP3   OH210496   5.973   2.571   1.294 -0.1567 -0.3218  0.1134
 3497TIP3    H110497   6.013   2.514   1.228 -0.3402  1.0575 -1.2371
 3497TIP3    H210498   5.907   2.516   1.336  1.7029 -2.0322  0.9988
 3498TIP3   OH210499   3.828   1.960   2.485  0.0899  0.3664  0.7376
 3498TIP3    H110500   3.835   2.051   2.456 -0.8010  0.3908  0.5710
 3498TIP3    H210501   3.902   1.916   2.444  0.0499  0.8435  0.1427
 3499TIP3   OH210502   5.116   0.631   0.878  0.3336 -0.2073 -0.4028
 3499TIP3    H110503   5.025   0.658   0.891  1.0817  1.6943  1.6372
 3499TIP3    H210504   5.148   0.690   0.810  0.6464  0.8479  0.6163
 3500TIP3   OH210505   0.931   3.101   4.365 -0.4032  0.4425  0.4839
 3500TIP3    H110506   0.953   3.185   4.405  1.5640  0.2659 -0.0931
 3500TIP3    H210507   0.877   3.056   4.430  1.7828  0.5889  2.5650
 3501TIP3   OH210508   3.931   5.086   0.563 -0.0575 -0.3531  0.1750
 3501TIP3    H110509   3.936   5.182   0.572 -0.5815 -0.3216  0.1963
 3501TIP3    H210510   3.843   5.065   0.593 -0.4464 -0.6923 -1.1615
 3502TIP3   OH210511   6.070   3.669   4.592 -0.4363 -0.2927 -0.1213
 3502TIP3    H110512   6.067   3.754   4.548  1.2201 -0.3012 -0.3415
 3502TIP3    H210513   6.123   3.684   4.670 -0.9365 -0.9096  0.3443
 3503TIP3   OH210514   2.245   5.990   2.881 -0.1245 -0.4504 -0.5401
 3503TIP3    H110515   2.171   5.943   2.920  0.6315 -1.8603 -0.7569
 3503TIP3    H210516   2.254   5.952   2.794 -0.4894  1.2365 -1.3568
 3504TIP3   OH210517   4.742   4.450   0.066  0.2745 -0.5519 -0.1920
 3504TIP3    H110518   4.713   4.525   0.119 -0.4787 -1.6063  0.9436
 3504TIP3    H210519   4.806   4.406   0.121  2.3514  0.3876 -1.7109
 3505TIP3   OH210520   2.733   3.646   4.886  0.5433  0.0943  0.1267
 3505TIP3    H110521   2.707   3.738   4.896 -0.6270 -0.2460  0.3693
 3505TIP3    H210522   2.684   3.600   4.954  3.3642 -0.3543  2.0393
 3506TIP3   OH210523   6.332   2.106   4.228 -0.4895  0.0431  0.0632
 3506TIP3    H110524   6.304   2.093   4.137 -0.7979 -1.3847  0.3404
 3506TIP3    H210525   6.297   2.030   4.275  0.9454 -0.0349  1.0865
 3507TIP3   OH210526   3.812   3.438   5.018 -0.0210 -0.2687 -0.0348
 3507TIP3    H110527   3.817   3.347   4.989  0.2480 -0.6338  1.1142
 3507TIP3    H210528   3.903   3.461   5.037  0.0608  0.5951 -1.3087
 3508TIP3   OH210529   2.636   4.857   1.939  0.1348  0.3549 -0.8452
 3508TIP3    H110530   2.596   4.851   2.026 -0.2614 -0.1503 -1.0531
 3508TIP3    H210531   2.723   4.818   1.950 -0.9095 -2.3516 -1.2556
 3509TIP3   OH210532   5.266   5.587   1.954  0.0916  0.0083  0.0840
 3509TIP3    H110533   5.295   5.498   1.934  0.1039  0.5497 -2.7316
 3509TIP3    H210534   5.185   5.597   1.903 -0.0378  1.5414  0.5530
 3510TIP3   OH210535   0.071   2.189   2.605 -0.2780 -0.5623 -0.5018
 3510TIP3    H110536   0.003   2.128   2.576 -0.2686 -0.7662 -0.1090
 3510TIP3    H210537   0.094   2.239   2.527 -2.2436  0.8635 -0.2381
 3511TIP3   OH210538   4.758   4.879   0.830 -0.0492  0.0242 -0.2126
 3511TIP3    H110539   4.723   4.892   0.742  2.0638 -2.6425 -1.5956
 3511TIP3    H210540   4.713   4.944   0.883 -3.8163 -0.3427 -2.5831
 3512TIP3   OH210541   4.818   3.772   4.203  0.2972  0.5785 -0.0160
 3512TIP3    H110542   4.892   3.711   4.199  0.2102  0.5406 -2.1716
 3512TIP3    H210543   4.859   3.858   4.212  0.5682  0.4889 -0.3693
 3513TIP3   OH210544   4.808   2.327   2.121  0.2872 -0.6804 -0.1997
 3513TIP3    H110545   4.838   2.366   2.039  1.3880  2.1225  1.3668
 3513TIP3    H210546   4.862   2.249   2.132  2.4725  0.6753 -0.6505
 3514TIP3   OH210547   4.239   0.871   1.548  0.0568  0.1019 -0.7425
 3514TIP3    H110548   4.205   0.784   1.569  0.5944 -0.0557 -0.5010
 3514TIP3    H210549   4.295   0.894   1.622  0.0114  0.6066 -0.8574
 3515TIP3   OH210550   4.013   0.697   0.658  0.2066  0.0333 -0.1280
 3515TIP3    H110551   4.077   0.641   0.702 -0.4496 -0.7361 -0.1387
 3515TIP3    H210552   4.065   0.749   0.597  1.1372  1.1129  1.5135
 3516TIP3   OH210553   2.152   2.931   1.016 -1.0327  0.0958 -0.0825
 3516TIP3    H110554   2.236   2.963   0.985 -0.4010 -0.3892  1.0476
 3516TIP3    H210555   2.171   2.843   1.050 -1.9188  0.1148  0.4934
 3517TIP3   OH210556   5.391   5.122   0.387  0.1771 -0.0994 -0.1617
 3517TIP3    H110557   5.421   5.154   0.302 -1.0348  1.5022 -0.0487
 3517TIP3    H210558   5.300   5.094   0.371 -1.0361  2.7516  1.0712
 3518TIP3   OH210559   3.663   1.095   1.765  0.2947  0.1538  0.1785
 3518TIP3    H110560   3.703   1.160   1.708  1.6278  0.4088  1.3621
 3518TIP3    H210561   3.662   1.136   1.852 -0.2874 -0.8029  0.6438
 3519TIP3   OH210562   5.175   3.986   0.539  0.1926  0.5103  0.1024
 3519TIP3    H110563   5.222   3.914   0.495  1.1731  1.5173 -0.5438
 3519TIP3    H210564   5.100   4.003   0.483 -0.0935 -0.0573  0.3034
 3520TIP3   OH210565   2.640   3.273   3.926 -0.4940 -0.7436 -0.2045
 3520TIP3    H110566   2.593   3.353   3.904  0.6648 -0.1370 -0.5360
 3520TIP3    H210567   2.571   3.207   3.937 -1.4779  0.3210  0.2382
 3521TIP3   OH210568   2.545   5.670   5.050  0.0349  0.6580 -0.3697
 3521TIP3    H110569   2.600   5.611   4.997  1.0137 -0.1606  1.4779
 3521TIP3    H210570   2.495   5.611   5.107  0.0024  1.5619  0.5641
 3522TIP3   OH210571   0.840   5.376   1.875 -0.4310  0.5022 -0.1451
 3522TIP3    H110572   0.864   5.378   1.968 -0.7458 -0.0560 -0.0476
 3522TIP3    H210573   0.796   5.292   1.864 -1.2976  1.0106 -0.5804
 3523TIP3   OH210574   2.792   5.997   3.747  0.2139  0.4951 -0.3471
 3523TIP3    H110575   2.766   5.906   3.762 -2.2515  1.1477 -0.2853
 3523TIP3    H210576   2.738   6.026   3.673  1.5679  1.6909 -0.9230
 3524TIP3   OH210577   5.000   3.458   1.080  0.0429  0.0207  0.2503
 3524TIP3    H110578   4.983   3.552   1.079  1.3321  0.2736  0.3211
 3524TIP3    H210579   5.026   3.437   0.990  0.1061 -0.2001  0.3191
 3525TIP3   OH210580   1.067   0.629   4.919  0.2827 -0.1430 -0.4161
 3525TIP3    H110581   1.081   0.711   4.967  1.6879 -0.4719 -0.1986
 3525TIP3    H210582   1.133   0.632   4.849  1.0402 -1.5059  0.1984
 3526TIP3   OH210583   0.157   5.445   5.013  0.6927  0.0422  0.2429
 3526TIP3    H110584   0.189   5.485   4.932 -1.3993  1.0109 -0.1631
 3526TIP3    H210585   0.072   5.486   5.028 -0.6885 -2.8659  0.8972
 3527TIP3   OH210586   2.014   5.425   3.552  0.6259 -0.0445 -0.3517
 3527TIP3    H110587   2.008   5.339   3.509  0.4569  0.3525 -1.1372
 3527TIP3    H210588   2.072   5.410   3.627  0.1457 -0.9761 -0.1437
 3528TIP3   OH210589   4.201   3.634   2.822  0.0136  0.3547 -0.1780
 3528TIP3    H110590   4.275   3.595   2.775  0.2149  0.3836  0.1178
 3528TIP3    H210591   4.134   3.646   2.754  0.5101  0.9298 -0.5834
 3529TIP3   OH210592   3.203   4.423   1.491 -0.2665  0.0302 -0.1259
 3529TIP3    H110593   3.167   4.454   1.575 -1.4846  1.1911 -1.0229
 3529TIP3    H210594   3.234   4.503   1.448  1.0306 -0.6475 -0.4955
 3530TIP3   OH210595   1.167   3.441   2.504 -0.2194  0.3226  0.0427
 3530TIP3    H110596   1.244   3.425   2.558 -1.0067  1.0117  1.4134
 3530TIP3    H210597   1.154   3.359   2.456  0.4699 -0.3259  0.9309
 3531TIP3   OH210598   3.068   4.157   3.097 -0.3850 -0.0689  0.3422
 3531TIP3    H110599   3.064   4.245   3.059  3.3996 -0.0740 -0.5137
 3531TIP3    H210600   3.084   4.172   3.190 -2.4614  0.0373  0.7237
 3532TIP3   OH210601   2.851   3.493   2.115 -0.0435 -0.2765  0.0526
 3532TIP3    H110602   2.930   3.497   2.169  1.1008  1.9901 -1.6076
 3532TIP3    H210603   2.882   3.512   2.027 -2.5407  1.5052 -0.5335
 3533TIP3   OH210604   3.099   0.459   2.645  0.1921  0.3397 -0.0816
 3533TIP3    H110605   3.058   0.536   2.606  1.1166  0.6413 -0.4667
 3533TIP3    H210606   3.100   0.477   2.739 -2.4980 -0.6011  0.2384
 3534TIP3   OH210607   0.162   2.837   3.862  0.3985  0.2764 -0.3720
 3534TIP3    H110608   0.208   2.779   3.922 -1.0587 -2.6208 -1.8488
 3534TIP3    H210609   0.206   2.824   3.778 -1.1402 -0.2022 -1.1333
 3535TIP3   OH210610   3.004   2.250   0.466  0.2744 -0.4368  0.4215
 3535TIP3    H110611   3.053   2.173   0.437  1.4624 -0.2213  1.6989
 3535TIP3    H210612   2.970   2.226   0.552  0.8763  0.5368  0.9513
 3536TIP3   OH210613   0.998   0.173   3.169  0.4110 -0.3334 -0.5076
 3536TIP3    H110614   0.956   0.251   3.133  0.8703 -0.4886 -1.4218
 3536TIP3    H210615   1.053   0.140   3.097  1.3933 -0.6428  0.3640
 3537TIP3   OH210616   5.279   3.745   1.236 -0.0587 -0.1582 -0.4741
 3537TIP3    H110617   5.309   3.836   1.238 -0.1193 -0.0794 -1.9406
 3537TIP3    H210618   5.229   3.738   1.154 -1.1075 -1.1980  0.2139
 3538TIP3   OH210619   4.490   2.783   2.334  0.2629 -0.3038 -0.2271
 3538TIP3    H110620   4.551   2.827   2.274 -1.8294  0.9748 -1.5198
 3538TIP3    H210621   4.404   2.819   2.313 -0.8150 -0.9943  2.4911
 3539TIP3   OH210622   0.080   3.081   4.255  0.2043 -0.1485 -0.6024
 3539TIP3    H110623   0.138   3.059   4.328  0.0218 -1.1259 -0.7438
 3539TIP3    H210624   0.064   3.175   4.265 -0.6486 -0.4528  1.2254
 3540TIP3   OH210625   3.021   2.692   0.131  0.0469 -0.1668 -0.1867
 3540TIP3    H110626   2.962   2.652   0.195  0.2185  0.4348  0.3498
 3540TIP3    H210627   2.967   2.701   0.052 -0.6530  0.5746  0.3613
 3541TIP3   OH210628   1.810   4.658   1.383 -0.9928  0.0655 -0.0698
 3541TIP3    H110629   1.734   4.612   1.347 -0.2868 -0.0828 -1.4336
 3541TIP3    H210630   1.869   4.588   1.411 -0.5824  0.1462 -0.7152
 3542TIP3   OH210631   3.769   1.117   3.234  0.1763 -0.1017 -0.0388
 3542TIP3    H110632   3.818   1.036   3.219 -0.0845 -0.3376  0.3787
 3542TIP3    H210633   3.692   1.110   3.178  0.0006 -0.2775  0.2247
 3543TIP3   OH210634   5.697   3.696   4.762  0.0838  0.0549  0.1158
 3543TIP3    H110635   5.746   3.628   4.714  1.0219  0.6896  0.1318
 3543TIP3    H210636   5.633   3.728   4.699 -1.1100 -1.5577  0.4416
 3544TIP3   OH210637   0.767   0.167   2.572  0.3657 -0.5056 -0.1444
 3544TIP3    H110638   0.851   0.131   2.599  0.8164 -0.3294 -1.2693
 3544TIP3    H210639   0.713   0.091   2.551  0.6143 -0.5906 -0.4831
 3545TIP3   OH210640   4.473   2.377   3.248 -0.7385  0.2491  0.1957
 3545TIP3    H110641   4.473   2.286   3.219 -0.7356  0.2494  0.1942
 3545TIP3    H210642   4.392   2.414   3.213 -1.0393  0.0835  0.7131
 3546TIP3   OH210643   2.377   3.648   1.627  0.3437 -0.3360  0.3411
 3546TIP3    H110644   2.424   3.564   1.628 -1.2084 -1.2451  0.1554
 3546TIP3    H210645   2.299   3.632   1.680  0.7404  1.4679  1.5521
 3547TIP3   OH210646   5.897   3.341   0.473  0.0568 -0.1201 -0.4315
 3547TIP3    H110647   5.805   3.356   0.453 -0.2861  0.1452  1.1387
 3547TIP3    H210648   5.939   3.329   0.388 -1.4385 -0.3700 -1.1693
 3548TIP3   OH210649   2.263   5.342   2.901 -0.1914  0.2005 -0.0572
 3548TIP3    H110650   2.348   5.310   2.871  0.4558  2.4455 -0.8552
 3548TIP3    H210651   2.214   5.263   2.922  1.7409 -1.2104 -0.5069
 3549TIP3   OH210652   5.321   1.196   0.383  0.1799  0.3373 -0.2366
 3549TIP3    H110653   5.397   1.233   0.337  2.5960 -4.8086 -1.0300
 3549TIP3    H210654   5.274   1.147   0.316 -1.0469 -0.5937  1.2327
 3550TIP3   OH210655   1.412   1.160   2.731  0.3449 -0.2573  0.5690
 3550TIP3    H110656   1.507   1.151   2.723  0.7057  2.5182  0.8602
 3550TIP3    H210657   1.380   1.157   2.641  0.6918 -1.0043  0.4572
 3551TIP3   OH210658   4.817   0.059   1.073  0.1321  0.3341 -0.0149
 3551TIP3    H110659   4.838   0.100   1.157 -0.5475  0.4771  0.0907
 3551TIP3    H210660   4.732   0.018   1.086 -0.5904  1.4551 -1.0069
 3552TIP3   OH210661   0.479   3.381   1.953 -0.1278 -0.1913  0.2273
 3552TIP3    H110662   0.392   3.390   1.993 -0.7931 -1.0079 -0.9833
 3552TIP3    H210663   0.520   3.466   1.967 -0.3326 -0.4083  2.5693
 3553TIP3   OH210664   2.608   3.671   3.572  0.4283 -0.3017  0.1154
 3553TIP3    H110665   2.580   3.638   3.487 -2.2419 -0.8540  1.1067
 3553TIP3    H210666   2.540   3.733   3.597  1.1721 -0.1320  1.8321
 3554TIP3   OH210667   3.928   2.802   2.063  0.3052 -0.8200  0.0596
 3554TIP3    H110668   3.943   2.707   2.068 -0.9171 -1.0420 -0.2979
 3554TIP3    H210669   3.968   2.836   2.143  0.3979 -1.6852  0.3994
 3555TIP3   OH210670   5.906   2.984   0.271  0.2944  0.0952  0.1790
 3555TIP3    H110671   5.901   2.977   0.366 -0.6128  0.0440  0.1336
 3555TIP3    H210672   5.911   3.078   0.253  0.5090  0.1026  0.2781
 3556TIP3   OH210673   2.968   1.111   4.058  0.1921  0.5585  0.2744
 3556TIP3    H110674   3.062   1.128   4.063  0.3377  0.2799 -1.0743
 3556TIP3    H210675   2.931   1.159   4.131  1.2924  1.4029  0.3011
 3557TIP3   OH210676   1.054   0.202   2.398 -0.4486  0.4521  0.2023
 3557TIP3    H110677   0.979   0.262   2.397 -1.2809 -0.5765  0.2222
 3557TIP3    H210678   1.044   0.152   2.479  0.8982  1.0636  0.7897
 3558TIP3   OH210679   4.990   5.572   1.893  0.4711 -0.1087 -0.0101
 3558TIP3    H110680   5.019   5.614   1.813  1.0688 -0.8374 -0.1791
 3558TIP3    H210681   4.900   5.543   1.874  0.7479 -0.6214 -0.5470
 3559TIP3   OH210682   0.606   3.576   3.167 -0.2306  0.1687 -0.2964
 3559TIP3    H110683   0.597   3.610   3.077 -0.9716 -0.9452 -0.6627
 3559TIP3    H210684   0.573   3.647   3.222  0.4523  0.9620 -0.8741
 3560TIP3   OH210685   4.955   5.562   3.369 -0.3287  0.2019  0.1316
 3560TIP3    H110686   4.910   5.502   3.429  0.5915 -0.7866 -0.1324
 3560TIP3    H210687   5.042   5.574   3.408  0.1197 -0.0862 -0.7706
 3561TIP3   OH210688   3.837   0.556   1.596 -0.0515  0.0157  0.5748
 3561TIP3    H110689   3.828   0.507   1.677  1.3505 -0.5482  0.4228
 3561TIP3    H210690   3.846   0.488   1.528 -0.8507  0.4779 -0.0042
 3562TIP3   OH210691   1.543   3.142   0.011  0.0790  0.7252  0.0923
 3562TIP3    H110692   1.606   3.194  -0.039  2.1067  0.9977  2.6760
 3562TIP3    H210693   1.594   3.069   0.046 -1.6923 -0.5256  0.2154
 3563TIP3   OH210694   3.875   0.348   1.437  0.2642  0.3370  0.4698
 3563TIP3    H110695   3.937   0.347   1.364 -1.2013  2.1156 -0.8855
 3563TIP3    H210696   3.883   0.261   1.475  2.9031  0.1818 -0.2005
 3564TIP3   OH210697   4.706   1.854   3.543 -0.2578  0.0031 -0.3224
 3564TIP3    H110698   4.680   1.946   3.550  0.9490  0.2492  2.6560
 3564TIP3    H210699   4.626   1.805   3.563 -0.3776  0.5300  0.5726
 3565TIP3   OH210700   1.158   2.211   1.535  0.2216  0.1438  0.0301
 3565TIP3    H110701   1.169   2.254   1.451 -1.0675 -0.1882 -0.3230
 3565TIP3    H210702   1.172   2.118   1.517 -1.6901 -0.1415 -0.1887
 3566TIP3   OH210703   4.910   4.960   1.706  0.0332  0.1726 -0.4743
 3566TIP3    H110704   4.864   5.043   1.700  2.3548  1.4584 -1.8048
 3566TIP3    H210705   4.910   4.926   1.616  0.5296 -0.4504 -0.2483
 3567TIP3   OH210706   3.664   5.256   1.813  0.1508 -0.2041 -0.1823
 3567TIP3    H110707   3.602   5.190   1.841  0.7682 -0.5354  0.4403
 3567TIP3    H210708   3.701   5.222   1.731  2.6536 -2.1464  1.6057
 3568TIP3   OH210709   2.728   5.896   4.247  0.0920 -0.3124  0.4011
 3568TIP3    H110710   2.693   5.952   4.178 -0.9882 -0.1051  1.1031
 3568TIP3    H210711   2.672   5.819   4.246  0.1711 -0.3808  0.9442
 3569TIP3   OH210712   5.943   2.670   4.413 -0.1070  0.0975  0.2139
 3569TIP3    H110713   5.902   2.606   4.355  0.8029  0.7866 -1.2573
 3569TIP3    H210714   5.933   2.632   4.501  1.1702 -2.5520 -0.6524
 3570TIP3   OH210715   5.617   5.760   2.177 -0.1783  0.5372  0.5112
 3570TIP3    H110716   5.586   5.749   2.087 -0.4524 -0.2318  0.6890
 3570TIP3    H210717   5.558   5.825   2.215 -1.5674 -0.8277  0.8123
 3571TIP3   OH210718   6.072   1.103   1.316 -0.6783 -0.4711 -0.2315
 3571TIP3    H110719   6.094   1.049   1.240 -1.4880 -1.1289 -0.0048
 3571TIP3    H210720   6.148   1.095   1.374 -0.5580 -0.9229 -0.4456
 3572TIP3   OH210721   1.226   4.276   1.098 -0.0246 -0.0564 -0.4210
 3572TIP3    H110722   1.266   4.269   1.184 -2.8905 -1.5803  0.9382
 3572TIP3    H210723   1.161   4.346   1.107  1.2227  1.4302 -2.1404
 3573TIP3   OH210724   3.953   3.037   0.213  0.2092 -0.4018  0.1234
 3573TIP3    H110725   3.872   3.021   0.164  0.1354 -1.5457  0.6010
 3573TIP3    H210726   3.932   3.013   0.303  1.0743 -0.6732  0.2618
 3574TIP3   OH210727   2.579   5.313   2.112 -0.8254  0.3481 -0.0544
 3574TIP3    H110728   2.571   5.251   2.185 -1.5797  0.0431 -0.3927
 3574TIP3    H210729   2.578   5.399   2.154 -2.6236  0.2286  0.2007
 3575TIP3   OH210730   4.425   2.722   0.571 -0.5374 -0.1791 -0.1349
 3575TIP3    H110731   4.349   2.757   0.617 -0.5339 -0.4591  0.0902
 3575TIP3    H210732   4.404   2.733   0.479 -0.1648  1.1924 -0.0708
 3576TIP3   OH210733   5.603   5.324   3.673 -0.1469 -0.3295 -0.5709
 3576TIP3    H110734   5.545   5.250   3.695  0.0591 -0.3319 -0.0083
 3576TIP3    H210735   5.546   5.385   3.627 -0.3483 -0.7918 -0.9497
 3577TIP3   OH210736   2.429   3.379   3.158  0.1002  0.1791  0.7655
 3577TIP3    H110737   2.361   3.316   3.182  0.5554 -0.1410  1.2292
 3577TIP3    H210738   2.447   3.360   3.066  0.4155 -0.5444  0.9710
 3578TIP3   OH210739   5.564   4.806   3.533  0.1665 -0.2846 -0.1659
 3578TIP3    H110740   5.557   4.900   3.516  0.1851  0.1939  2.2407
 3578TIP3    H210741   5.639   4.797   3.590  0.2861 -1.8216 -0.5225
 3579TIP3   OH210742   1.895   5.657   4.027  0.0415  0.1165 -0.0867
 3579TIP3    H110743   1.846   5.688   4.102  1.5296  0.5103  0.7662
 3579TIP3    H210744   1.830   5.616   3.970 -1.3480  1.2482  0.6447
 3580TIP3   OH210745   3.176   5.451   2.886  0.2378 -0.1133  0.7256
 3580TIP3    H110746   3.262   5.456   2.843 -0.0114  0.3168  0.2783
 3580TIP3    H210747   3.140   5.368   2.856 -0.0647  0.3215 -0.1568
 3581TIP3   OH210748   2.416   4.124   2.428 -0.4531  0.3624  0.1659
 3581TIP3    H110749   2.364   4.196   2.393 -0.3671 -0.7069 -2.3731
 3581TIP3    H210750   2.357   4.049   2.429 -0.0616  0.0448  1.1219
 3582TIP3   OH210751   3.457   2.805   1.474 -0.1650 -0.3145  0.3587
 3582TIP3    H110752   3.408   2.772   1.549 -0.3858 -0.5195  0.1273
 3582TIP3    H210753   3.409   2.773   1.398 -0.4822  0.6744  0.1230
 3583TIP3   OH210754   5.728   3.309   2.572 -0.3945  0.3298 -0.2572
 3583TIP3    H110755   5.647   3.360   2.577 -1.4703 -1.3225 -0.1414
 3583TIP3    H210756   5.750   3.307   2.479 -0.8209  0.2992 -0.3600
 3584TIP3   OH210757   3.363   2.504   0.412  0.4868 -0.0789  0.5248
 3584TIP3    H110758   3.358   2.595   0.441  0.9305  0.2919 -0.5185
 3584TIP3    H210759   3.293   2.496   0.348  1.3817 -0.0382 -0.4895
 3585TIP3   OH210760   5.714   1.824   3.395 -0.1959  0.3009  0.1534
 3585TIP3    H110761   5.680   1.860   3.477  0.5053 -2.3710  1.7150
 3585TIP3    H210762   5.758   1.898   3.353 -0.4208  1.7171  2.2534
 3586TIP3   OH210763   4.045   4.357   3.212 -0.1326 -0.2278 -0.0582
 3586TIP3    H110764   4.131   4.397   3.197 -0.5451  0.1844 -1.4919
 3586TIP3    H210765   4.065   4.271   3.248  0.9531 -0.6786 -1.6373
 3587TIP3   OH210766   4.148   0.656   0.058 -0.1699 -0.1508  0.3853
 3587TIP3    H110767   4.133   0.738   0.010  1.0738  0.7795  1.5084
 3587TIP3    H210768   4.238   0.663   0.089 -0.7056 -1.0148  2.2585
 3588TIP3   OH210769   5.695   4.911   3.753  0.9506  0.6601  0.2107
 3588TIP3    H110770   5.772   4.863   3.783  0.1955 -1.1131 -0.5233
 3588TIP3    H210771   5.714   5.003   3.773  3.4601  0.3459 -0.4099
 3589TIP3   OH210772   5.059   3.829   2.659 -0.3157  0.2625  0.5863
 3589TIP3    H110773   4.989   3.843   2.723 -1.9879 -1.0217 -0.8533
 3589TIP3    H210774   5.037   3.887   2.587 -1.1533 -1.6609 -0.7738
 3590TIP3   OH210775   4.295   4.731   3.072  0.0802 -0.6563 -0.3226
 3590TIP3    H110776   4.280   4.806   3.016 -0.6263  0.4316  1.2376
 3590TIP3    H210777   4.213   4.721   3.121  1.3837 -0.0623  2.1471
 3591TIP3   OH210778   3.696   4.291   3.665  0.2236  0.0360  0.0796
 3591TIP3    H110779   3.757   4.325   3.599 -0.5730  0.1324 -0.6231
 3591TIP3    H210780   3.735   4.209   3.694 -0.1912 -0.8320 -1.7028
 3592TIP3   OH210781   1.636   2.627   0.527  0.1505 -0.3104  0.0844
 3592TIP3    H110782   1.643   2.640   0.622 -0.3237  0.3595  0.0319
 3592TIP3    H210783   1.650   2.533   0.515 -2.2579 -0.8682  1.0558
 3593TIP3   OH210784   1.099   1.435   1.953 -0.5763  0.5591  0.3283
 3593TIP3    H110785   1.129   1.345   1.963 -0.8647  0.4245 -0.0269
 3593TIP3    H210786   1.172   1.480   1.910 -0.3187  0.5643  0.7627
 3594TIP3   OH210787   5.948   2.785   3.788 -0.1085  0.4944 -0.2648
 3594TIP3    H110788   5.879   2.778   3.722  1.5354 -1.7883 -1.9043
 3594TIP3    H210789   6.025   2.815   3.739  0.7341  0.4448  0.9741
 3595TIP3   OH210790   2.467   4.421   3.764  0.0303  0.2036 -0.6517
 3595TIP3    H110791   2.539   4.361   3.740 -0.9179 -1.2494 -0.0241
 3595TIP3    H210792   2.462   4.415   3.859 -0.8023  0.4192 -0.6795
 3596TIP3   OH210793   6.300   0.912   3.994  0.0566 -0.4190 -0.0405
 3596TIP3    H110794   6.211   0.892   4.024 -0.1193  0.5647  0.1044
 3596TIP3    H210795   6.346   0.942   4.072 -0.0281  0.8806 -0.4677
 3597TIP3   OH210796   2.411   5.010   5.099 -0.6268 -0.0656  0.4873
 3597TIP3    H110797   2.361   5.089   5.079 -1.0292  0.0744  1.9553
 3597TIP3    H210798   2.490   5.042   5.143  0.0906 -0.3878 -0.5053
 3598TIP3   OH210799   6.289   5.728   0.768 -0.2655  0.5669  0.0698
 3598TIP3    H110800   6.334   5.807   0.741  1.4882 -0.8193 -1.3407
 3598TIP3    H210801   6.359   5.668   0.794 -1.3946 -1.1123 -0.5675
 3599TIP3   OH210802   1.434   0.058   5.009 -0.0895 -0.7551  0.6264
 3599TIP3    H110803   1.377   0.134   5.013  0.6892 -0.1566  0.4814
 3599TIP3    H210804   1.500   0.073   5.076  1.7820  0.1289 -1.2934
 3600TIP3   OH210805   5.715   5.592   1.130 -0.1422 -0.3202 -0.0432
 3600TIP3    H110806   5.791   5.597   1.073 -0.4741 -0.5640 -0.5192
 3600TIP3    H210807   5.746   5.546   1.208  0.3693  0.2095  0.0708
 3601TIP3   OH210808   0.801   4.354   1.305 -0.1564 -0.0400  0.7786
 3601TIP3    H110809   0.790   4.306   1.387 -2.7459  1.3009  1.3592
 3601TIP3    H210810   0.800   4.446   1.331  2.4085  0.4353 -0.4978
 3602TIP3   OH210811   6.011   1.211   3.972  0.0804 -0.4136 -0.6773
 3602TIP3    H110812   6.012   1.134   4.030 -0.7405  0.3543  0.4085
 3602TIP3    H210813   6.001   1.175   3.884  1.1986 -1.6136 -0.3456
 3603TIP3   OH210814   4.978   3.351   0.426  0.0371 -0.2349 -0.2626
 3603TIP3    H110815   4.936   3.290   0.365 -0.3288 -0.9893  0.7132
 3603TIP3    H210816   4.941   3.328   0.512 -0.9429  2.0816 -0.0029
 3604TIP3   OH210817   5.517   4.026   4.120  0.4729 -0.1355 -0.1280
 3604TIP3    H110818   5.588   3.963   4.132  1.1350 -0.2006 -3.5024
 3604TIP3    H210819   5.556   4.111   4.141  1.2906 -0.2763 -1.0140
 3605TIP3   OH210820   6.276   1.685   3.355  0.3446 -0.8582 -0.2193
 3605TIP3    H110821   6.197   1.736   3.369  1.2966  0.8443 -0.8192
 3605TIP3    H210822   6.275   1.662   3.262  1.2231  0.3746 -0.5505
 3606TIP3   OH210823   2.354   0.858   4.749 -0.5581 -0.4615  0.6275
 3606TIP3    H110824   2.419   0.827   4.812 -0.2365 -1.1381 -0.0144
 3606TIP3    H210825   2.405   0.903   4.682 -0.5422 -2.1528 -0.5939
 3607TIP3   OH210826   3.480   1.434   3.845  0.4867  0.2273  0.3339
 3607TIP3    H110827   3.478   1.506   3.783  3.4993 -1.0535 -1.4402
 3607TIP3    H210828   3.553   1.454   3.904  0.1991 -0.4911  0.9604
 3608TIP3   OH210829   4.671   3.752   3.966  0.2025 -0.5271 -0.2271
 3608TIP3    H110830   4.703   3.777   4.053  1.7256  1.4466 -1.2524
 3608TIP3    H210831   4.715   3.669   3.947  0.3961 -0.6259  0.6040
 3609TIP3   OH210832   0.016   2.743   2.837 -0.3267  0.4713  0.2442
 3609TIP3    H110833   0.029   2.811   2.771 -1.7758  0.3838 -0.1601
 3609TIP3    H210834   0.048   2.662   2.796  0.6888  0.7504  0.4456
 3610TIP3   OH210835   5.122   1.220   1.089  0.1762 -0.2375  0.0333
 3610TIP3    H110836   5.138   1.297   1.142 -0.2231 -0.1295 -0.0049
 3610TIP3    H210837   5.116   1.148   1.152 -1.8510  0.1101  0.2855
 3611TIP3   OH210838   1.576   1.866   4.110  0.0501 -0.5551 -0.1680
 3611TIP3    H110839   1.485   1.861   4.081  0.6495 -3.1516 -1.9727
 3611TIP3    H210840   1.617   1.929   4.051 -0.3314 -0.1454 -0.0047
 3612TIP3   OH210841   1.096   3.580   0.741  0.2950 -0.2734 -0.1344
 3612TIP3    H110842   1.035   3.573   0.815  0.9010 -0.4017  0.3589
 3612TIP3    H210843   1.176   3.618   0.778  1.2452 -1.9969 -0.3339
 3613TIP3   OH210844   0.750   2.330   0.489 -0.1118  0.0648  0.1801
 3613TIP3    H110845   0.746   2.384   0.410 -1.6039  1.6379  1.2345
 3613TIP3    H210846   0.662   2.339   0.527 -0.5048 -3.3098  0.3549
 3614TIP3   OH210847   6.095   3.082   2.428 -0.1516 -0.1849  0.2517
 3614TIP3    H110848   6.051   3.164   2.450  0.1945  0.6222 -1.8016
 3614TIP3    H210849   6.188   3.106   2.421 -0.0717 -0.6794 -0.5589
 3615TIP3   OH210850   2.499   5.611   1.641 -0.1215  0.3358 -0.8432
 3615TIP3    H110851   2.535   5.580   1.725 -2.4444  0.8674  0.4198
 3615TIP3    H210852   2.473   5.530   1.596 -1.1343  0.1392  0.0543
 3616TIP3   OH210853   0.703   0.642   4.802  0.3883  0.0663  0.3805
 3616TIP3    H110854   0.708   0.573   4.736  3.1157  1.3219 -0.9028
 3616TIP3    H210855   0.610   0.657   4.815 -0.2743 -3.0785 -0.0714
 3617TIP3   OH210856   2.916   3.452   3.063 -0.4957 -0.0822  0.3395
 3617TIP3    H110857   2.837   3.451   3.117  0.4745  1.1494  1.8756
 3617TIP3    H210858   2.951   3.540   3.073  0.9809 -0.5397 -0.4558
 3618TIP3   OH210859   0.747   2.072   4.960 -0.8086  0.5440 -0.1980
 3618TIP3    H110860   0.793   2.065   5.044 -1.7286  1.3410  0.3958
 3618TIP3    H210861   0.815   2.062   4.894 -0.1474 -0.7301  0.6298
 3619TIP3   OH210862   0.760   3.465   0.531  0.2079 -0.6462 -0.0690
 3619TIP3    H110863   0.781   3.442   0.440  0.0793 -1.9753  0.2209
 3619TIP3    H210864   0.819   3.411   0.583 -0.1654 -0.3642  0.6528
 3620TIP3   OH210865   5.036   5.181   0.681 -0.0667 -0.2318 -0.0686
 3620TIP3    H110866   4.941   5.174   0.669 -0.1954  2.0418 -0.7636
 3620TIP3    H210867   5.047   5.251   0.746  1.1547  0.9221 -1.4567
 3621TIP3   OH210868   0.449   5.179   0.448 -0.2764 -0.1175  0.0854
 3621TIP3    H110869   0.521   5.133   0.491  1.0089  1.4897 -0.2257
 3621TIP3    H210870   0.413   5.237   0.516 -0.2623  0.1915 -0.1675
 3622TIP3   OH210871   0.447   5.004   1.599 -0.3841 -0.0223 -0.2134
 3622TIP3    H110872   0.486   5.070   1.656  0.2193 -1.5978  1.3038
 3622TIP3    H210873   0.390   4.953   1.657  0.7538 -2.1078 -0.8123
 3623TIP3   OH210874   6.244   5.779   3.766 -0.1264 -0.1292  0.0141
 3623TIP3    H110875   6.238   5.874   3.756  1.5059 -0.0233 -0.2439
 3623TIP3    H210876   6.298   5.767   3.844  0.4599 -0.8243 -0.4865
 3624TIP3   OH210877   0.006   4.940   2.281 -0.1447 -0.2255 -0.4937
 3624TIP3    H110878  -0.069   4.882   2.268  0.4614 -0.8638 -1.3037
 3624TIP3    H210879   0.074   4.905   2.222  0.4022  1.0179 -0.6430
 3625TIP3   OH210880   0.152   4.925   1.648 -0.0585  0.1596 -0.0495
 3625TIP3    H110881   0.127   4.845   1.601  1.0339 -0.4144  0.3039
 3625TIP3    H210882   0.110   4.917   1.734 -1.0618  0.6328 -0.4766
 3626TIP3   OH210883   6.247   5.787   2.829  0.7882  0.2677 -0.1953
 3626TIP3    H110884   6.331   5.833   2.830  0.6569  0.5040  0.7041
 3626TIP3    H210885   6.269   5.697   2.855  1.3073 -0.7452 -3.5236
 3627TIP3   OH210886   5.339   4.557   4.587  0.2056  0.1523 -0.4132
 3627TIP3    H110887   5.310   4.547   4.497 -1.7227  0.5392  0.1077
 3627TIP3    H210888   5.278   4.620   4.625  2.0000  1.3248  0.7255
 3628TIP3   OH210889   1.574   4.522   2.920  0.2251  0.0301 -0.5074
 3628TIP3    H110890   1.552   4.604   2.965  0.9442 -0.6446  1.1605
 3628TIP3    H210891   1.513   4.518   2.846 -0.5752  1.5137  0.0284
 3629TIP3   OH210892   3.627   4.900   2.679  0.8713  0.0178 -0.9205
 3629TIP3    H110893   3.589   4.823   2.636 -2.6310  0.5905  0.8004
 3629TIP3    H210894   3.602   4.973   2.623  3.5351  0.1077 -2.1452
 3630TIP3   OH210895   5.014   0.164   4.853  0.0376  0.7466  0.3133
 3630TIP3    H110896   4.949   0.150   4.923  0.3065  0.8112  0.5757
 3630TIP3    H210897   4.997   0.093   4.791  0.9300 -0.3475  1.2915
 3631TIP3   OH210898   0.201   0.377   1.463  0.0018 -0.2875 -0.1632
 3631TIP3    H110899   0.289   0.372   1.501  0.7304  0.7260 -1.6408
 3631TIP3    H210900   0.147   0.414   1.533  1.6064  2.9569 -0.4929
 3632TIP3   OH210901   0.545   3.038   1.545  0.5988  0.1117 -0.0457
 3632TIP3    H110902   0.518   2.991   1.467  0.9293  1.9362 -1.3067
 3632TIP3    H210903   0.632   3.003   1.565  0.8038  0.1166 -0.9014
 3633TIP3   OH210904   1.375   2.900   0.563 -0.6724 -0.2563 -0.4265
 3633TIP3    H110905   1.281   2.900   0.577 -0.6667  0.2381 -0.3943
 3633TIP3    H210906   1.390   2.825   0.505 -0.8955 -1.2761  0.8057
 3634TIP3   OH210907   2.359   4.220   0.543 -0.1143  0.3662  0.2549
 3634TIP3    H110908   2.290   4.165   0.508  0.0748  0.5851 -0.4803
 3634TIP3    H210909   2.324   4.255   0.625 -0.8999  0.5395 -0.1522
 3635TIP3   OH210910   2.648   2.094   0.533 -0.2767  0.3458  0.2256
 3635TIP3    H110911   2.678   2.097   0.442 -0.5371 -0.3969  0.1055
 3635TIP3    H210912   2.728   2.089   0.585 -0.1632 -1.2098 -0.0663
 3636TIP3   OH210913   6.103   2.324   3.002 -0.1911 -0.2386 -0.1749
 3636TIP3    H110914   6.083   2.415   2.981  0.8729  0.0494  0.0014
 3636TIP3    H210915   6.197   2.316   2.984 -0.2490 -1.2595 -0.0386
 3637TIP3   OH210916   5.950   3.221   1.914  0.3658  0.2993  0.6987
 3637TIP3    H110917   6.032   3.191   1.874  1.4312  1.2698  2.0707
 3637TIP3    H210918   5.967   3.311   1.940 -1.9989  1.4084 -1.2342
 3638TIP3   OH210919   6.166   2.993   5.053 -0.0235  0.7566  0.1366
 3638TIP3    H110920   6.096   2.942   5.012 -0.0209 -0.8961  2.0793
 3638TIP3    H210921   6.149   2.987   5.147  1.4574  2.2296  0.5422
 3639TIP3   OH210922   4.798   1.942   1.951  0.2322 -0.4559  0.0859
 3639TIP3    H110923   4.711   1.947   1.912 -0.4332  0.1715  1.5452
 3639TIP3    H210924   4.857   1.972   1.882 -0.6664 -1.1840 -1.0268
 3640TIP3   OH210925   2.631   2.764   2.982 -0.2551  0.2785 -0.3612
 3640TIP3    H110926   2.622   2.813   2.901 -0.5505 -0.5049 -0.8165
 3640TIP3    H210927   2.725   2.744   2.988 -0.1282  0.9255 -0.1510
 3641TIP3   OH210928   2.039   2.506   2.160 -0.1218 -0.2042 -0.6318
 3641TIP3    H110929   2.033   2.524   2.066  0.7728  1.3843 -0.4308
 3641TIP3    H210930   2.098   2.574   2.193 -2.0024  0.5681  1.4134
 3642TIP3   OH210931   0.344   5.145   0.945 -0.0923  0.3184 -0.7110
 3642TIP3    H110932   0.377   5.056   0.935  0.9543  0.7167 -0.9367
 3642TIP3    H210933   0.400   5.197   0.888 -0.0979  1.2578  0.1244
 3643TIP3   OH210934   2.603   0.241   4.967  0.0308 -0.1482 -0.1308
 3643TIP3    H110935   2.618   0.159   4.919  1.7598  1.1498 -1.9954
 3643TIP3    H210936   2.684   0.255   5.015 -0.3105  0.4044  0.2822
 3644TIP3   OH210937   3.595   4.847   3.854  0.2500 -0.5678  0.0204
 3644TIP3    H110938   3.558   4.759   3.845  1.3865 -1.2064  1.2220
 3644TIP3    H210939   3.592   4.865   3.948 -2.3527  1.8025 -0.3927
 3645TIP3   OH210940   3.211   4.221   5.059 -0.1210 -0.2759 -0.0696
 3645TIP3    H110941   3.175   4.135   5.079 -2.7535  1.0460  1.3906
 3645TIP3    H210942   3.212   4.266   5.143  0.9296  1.2221 -0.8509
 3646TIP3   OH210943   2.424   4.251   3.473 -0.1608 -0.1967 -0.3281
 3646TIP3    H110944   2.489   4.322   3.470 -0.5783  0.1680 -0.9817
 3646TIP3    H210945   2.467   4.182   3.523  0.6703  0.1068 -0.5981
 3647TIP3   OH210946   1.372   2.749   1.394  0.7548 -0.6666 -0.1589
 3647TIP3    H110947   1.355   2.788   1.308 -1.0260  2.8856  1.5819
 3647TIP3    H210948   1.460   2.713   1.387  0.9063  0.0375 -3.2659
 3648TIP3   OH210949   1.995   0.539   3.037 -0.2481 -0.3378 -0.5511
 3648TIP3    H110950   1.989   0.444   3.028 -0.4755 -0.1888 -2.3183
 3648TIP3    H210951   2.085   0.555   3.067 -0.4940 -1.1365  0.6811
 3649TIP3   OH210952   0.887   3.274   3.578  0.9537  0.0096 -0.1015
 3649TIP3    H110953   0.826   3.276   3.504  2.4098 -1.3488 -1.4069
 3649TIP3    H210954   0.865   3.194   3.625  1.4126 -0.2278 -0.2918
 3650TIP3   OH210955   0.982   0.264   2.101  0.3525 -0.1908  0.3697
 3650TIP3    H110956   0.899   0.222   2.079 -0.0112  1.5767 -2.0714
 3650TIP3    H210957   0.993   0.248   2.195 -2.9208 -0.2379  0.8627
 3651TIP3   OH210958   0.206   3.339   0.248  0.2431  0.2969  0.3729
 3651TIP3    H110959   0.268   3.321   0.177 -1.3397 -0.4957 -0.8806
 3651TIP3    H210960   0.140   3.396   0.208 -1.0875 -0.7861  0.9495
 3652TIP3   OH210961   2.824   1.493   0.221  0.0466  0.0319 -0.1352
 3652TIP3    H110962   2.829   1.561   0.153  0.3411  0.9846  0.8199
 3652TIP3    H210963   2.908   1.449   0.217  1.5158  2.3802  1.8952
 3653TIP3   OH210964   1.232   0.601  -0.003  0.2103 -0.5591  0.1076
 3653TIP3    H110965   1.196   0.526   0.044 -1.8549 -1.6191 -2.9483
 3653TIP3    H210966   1.314   0.569  -0.041  2.1358  0.4321  3.0206
 3654TIP3   OH210967   2.071   3.095   5.156  0.0237  0.3615 -0.1793
 3654TIP3    H110968   2.043   3.043   5.080 -1.6513 -0.5491  0.9963
 3654TIP3    H210969   2.034   3.182   5.141 -0.5242  0.1117 -0.2966
 3655TIP3   OH210970   6.278   4.957   1.248 -0.7690 -0.2082 -0.1111
 3655TIP3    H110971   6.257   4.881   1.194  0.0586 -0.3485 -0.2540
 3655TIP3    H210972   6.365   4.985   1.217  0.4739 -1.2382  2.1845
 3656TIP3   OH210973   5.874   1.076   3.181  0.1649  0.1169  0.1060
 3656TIP3    H110974   5.953   1.128   3.189  0.5403 -0.3483 -0.5150
 3656TIP3    H210975   5.835   1.078   3.268  0.9247  0.2451  0.4497
 3657TIP3   OH210976   3.936   1.116   0.759  0.3345  0.2698 -0.2793
 3657TIP3    H110977   3.938   1.101   0.664 -0.7168  0.8677 -0.4083
 3657TIP3    H210978   4.020   1.158   0.778  0.2693  0.7656 -1.0585
 3658TIP3   OH210979   3.825   5.615   4.235  0.1042  0.6322 -0.0118
 3658TIP3    H110980   3.737   5.590   4.262  0.0453  0.3588 -0.4491
 3658TIP3    H210981   3.814   5.701   4.195  0.1803  1.0063  0.7532
 3659TIP3   OH210982   5.398   1.210   3.650  0.0537  0.1526  0.6879
 3659TIP3    H110983   5.455   1.166   3.587  2.7275 -1.2853  3.7594
 3659TIP3    H210984   5.406   1.303   3.629  0.0673 -0.2951 -1.5597
 3660TIP3   OH210985   1.332   2.184   3.127 -0.6580 -0.0802  0.4687
 3660TIP3    H110986   1.256   2.154   3.176 -0.4195 -2.1914 -0.3612
 3660TIP3    H210987   1.327   2.137   3.043  1.0565  0.4501  0.0302
 3661TIP3   OH210988   2.100   0.283   3.045 -0.4122  0.3767 -0.3292
 3661TIP3    H110989   2.048   0.207   3.017 -1.1722  1.4593 -1.9985
 3661TIP3    H210990   2.171   0.245   3.099 -2.1100 -1.2606  0.8849
 3662TIP3   OH210991   1.497   3.682   4.864 -0.3763 -0.0780 -0.0723
 3662TIP3    H110992   1.447   3.645   4.936 -0.5425 -0.7721 -0.5312
 3662TIP3    H210993   1.589   3.676   4.892 -0.5700  2.1919  1.2287
 3663TIP3   OH210994   5.652   2.707   1.501 -0.1684 -0.2070 -0.1992
 3663TIP3    H110995   5.582   2.675   1.445  1.0194  0.1082 -1.9303
 3663TIP3    H210996   5.653   2.802   1.487  0.9488 -0.2726 -0.6355
 3664TIP3   OH210997   1.732   4.507   4.229 -0.3492 -0.0391  0.7433
 3664TIP3    H110998   1.774   4.577   4.279  0.4706  0.4587 -0.5839
 3664TIP3    H210999   1.653   4.548   4.192 -0.0635  0.0838  0.2661
 3665TIP3   OH211000   0.583   1.679   1.931 -0.3674 -0.4134 -0.5380
 3665TIP3    H111001   0.639   1.672   1.853 -0.7885  1.7659 -1.1041
 3665TIP3    H211002   0.502   1.634   1.907 -0.1050 -0.6716 -0.9557
 3666TIP3   OH211003   1.994   0.805   3.239 -0.3057 -0.0913  0.0423
 3666TIP3    H111004   2.021   0.722   3.278 -1.4037 -0.1983  0.6110
 3666TIP3    H211005   2.057   0.819   3.168  2.1442  0.4235  2.1517
 3667TIP3   OH211006   5.717   2.451   1.607 -0.3861  0.2677  0.6386
 3667TIP3    H111007   5.707   2.544   1.588 -0.3559  0.3779  1.1504
 3667TIP3    H211008   5.758   2.448   1.693 -1.9815 -0.2244  1.4096
 3668TIP3   OH211009   4.983   5.574   2.928 -0.5729  0.8885  0.7996
 3668TIP3    H111010   4.937   5.567   2.845 -1.4012  0.3224  1.2839
 3668TIP3    H211011   4.918   5.549   2.994 -0.0846  1.7955  1.6646
 3669TIP3   OH211012   3.833   3.642   1.574  0.3009 -0.0457  0.0784
 3669TIP3    H111013   3.891   3.714   1.545 -0.2230  0.5768  0.5460
 3669TIP3    H211014   3.753   3.654   1.524  0.4267 -0.6799 -0.2861
 3670TIP3   OH211015   2.765   2.380   3.438  0.1327  0.4311 -0.3746
 3670TIP3    H111016   2.745   2.436   3.513 -0.1017  0.6723 -0.6154
 3670TIP3    H211017   2.787   2.441   3.368  0.8996  0.1855 -0.3460
 3671TIP3   OH211018   1.386   2.092   1.752  0.0391 -0.0900  0.5456
 3671TIP3    H111019   1.325   2.115   1.682  0.0037 -1.4446  0.1137
 3671TIP3    H211020   1.342   2.121   1.832 -0.7534 -0.2057  0.1628
 3672TIP3   OH211021   5.714   2.581   3.132  0.2709  0.2180  0.3420
 3672TIP3    H111022   5.748   2.614   3.048 -0.7631  2.3221  0.6955
 3672TIP3    H211023   5.765   2.628   3.198  0.4469 -0.7516  0.9151
 3673TIP3   OH211024   5.419   5.586   1.081  0.0085  0.1057  0.0003
 3673TIP3    H111025   5.402   5.674   1.048  0.0550  0.0420 -0.1978
 3673TIP3    H211026   5.514   5.580   1.087 -0.0303  0.6383  1.5944
 3674TIP3   OH211027   2.462   3.790   2.620 -0.0659 -0.4240 -0.0027
 3674TIP3    H111028   2.384   3.812   2.568  1.5142 -0.4608 -2.5363
 3674TIP3    H211029   2.429   3.784   2.710 -2.5580  1.9104 -0.5988
 3675TIP3   OH211030   0.534   3.338   5.116  0.0874  0.1935 -0.4134
 3675TIP3    H111031   0.582   3.309   5.038  1.1855  0.3811  0.1705
 3675TIP3    H211032   0.598   3.390   5.165 -0.9983  1.2228 -0.0572
 3676TIP3   OH211033   0.384   0.813   3.159 -0.1350 -0.2424  0.4596
 3676TIP3    H111034   0.403   0.726   3.194 -2.1548 -0.0544  2.1880
 3676TIP3    H211035   0.345   0.797   3.073 -0.1667 -1.0213  0.6171
 3677TIP3   OH211036   1.601   5.215   2.321  0.0677  0.5618  0.7965
 3677TIP3    H111037   1.571   5.184   2.406 -0.7675  0.4420  0.4640
 3677TIP3    H211038   1.525   5.207   2.264  1.0779 -0.9978 -0.4068
 3678TIP3   OH211039   0.172   2.284   3.244 -0.5489 -0.1461 -0.6992
 3678TIP3    H111040   0.125   2.339   3.182 -1.7216 -0.9268 -0.5425
 3678TIP3    H211041   0.107   2.263   3.311  0.4676  0.0299  0.3798
 3679TIP3   OH211042   3.199   5.081   2.158  0.6014 -0.1151 -0.0252
 3679TIP3    H111043   3.114   5.103   2.121  0.7327  1.6299  0.5746
 3679TIP3    H211044   3.237   5.018   2.097 -0.7328 -0.2112 -0.7918
 3680TIP3   OH211045   5.739   5.410   2.933  0.3431  0.1171 -0.3088
 3680TIP3    H111046   5.741   5.417   2.837 -0.4999  0.7313 -0.2890
 3680TIP3    H211047   5.800   5.339   2.952 -0.3624 -0.8310 -1.3938
 3681TIP3   OH211048   1.343   0.606   4.184  0.4092  0.0036 -0.0762
 3681TIP3    H111049   1.423   0.556   4.201 -0.3029 -1.6695 -1.4130
 3681TIP3    H211050   1.317   0.581   4.095 -1.3453  0.8768  0.1455
 3682TIP3   OH211051   1.232   3.173   0.558 -0.1180  0.4621  0.2975
 3682TIP3    H111052   1.272   3.108   0.501  2.4335 -0.1424  2.5221
 3682TIP3    H211053   1.201   3.242   0.500  0.1386 -1.2035 -1.9087
 3683TIP3   OH211054   3.874   5.967   0.080 -0.1604  0.0458 -0.2745
 3683TIP3    H111055   3.880   5.880   0.041  0.0923  0.4436 -1.1575
 3683TIP3    H211056   3.808   6.013   0.028 -1.8325 -0.2467  1.4675
 3684TIP3   OH211057   3.515   2.389   0.879  0.4148  0.1619 -0.3637
 3684TIP3    H111058   3.457   2.407   0.953  1.6114 -0.9535  0.8950
 3684TIP3    H211059   3.549   2.474   0.853  0.7614  0.4749  1.0544
 3685TIP3   OH211060   3.166   3.087   3.741 -0.4303  0.0566  0.4294
 3685TIP3    H111061   3.173   3.134   3.658  1.9354 -1.9880 -0.6739
 3685TIP3    H211062   3.241   3.116   3.792  0.0228 -1.1287  0.4652
 3686TIP3   OH211063   1.935   2.713   3.714 -0.7523  0.2831  0.5120
 3686TIP3    H111064   1.987   2.734   3.636 -0.7855 -0.9017  0.1526
 3686TIP3    H211065   1.850   2.755   3.698 -0.9300 -0.3738 -0.3408
 3687TIP3   OH211066   3.817   0.756   2.097  0.5018 -0.4693  0.4482
 3687TIP3    H111067   3.734   0.769   2.143 -0.3346 -0.5102 -0.9790
 3687TIP3    H211068   3.802   0.794   2.011  2.2860  0.3398  0.4525
 3688TIP3   OH211069   2.874   5.637   3.568 -0.2430  0.4257 -0.2235
 3688TIP3    H111070   2.804   5.688   3.608  0.9103  1.9585 -0.0509
 3688TIP3    H211071   2.861   5.649   3.474  1.0263  2.6319 -0.2023
 3689TIP3   OH211072   5.293   0.801   0.396 -0.0569  0.0894  0.6130
 3689TIP3    H111073   5.355   0.790   0.468 -1.1334 -1.7327  1.3219
 3689TIP3    H211074   5.263   0.712   0.377 -0.1102  0.5720 -1.8335
 3690TIP3   OH211075   4.584   2.573   0.759 -0.0696  0.0872 -0.4514
 3690TIP3    H111076   4.603   2.517   0.684 -0.4714 -0.2500 -0.3083
 3690TIP3    H211077   4.522   2.638   0.725 -0.6425 -0.3707 -0.2930
 3691TIP3   OH211078   1.787   3.460   0.659  0.3633 -0.3144  0.9682
 3691TIP3    H111079   1.842   3.535   0.683 -1.2204  0.3326  2.8887
 3691TIP3    H211080   1.731   3.493   0.589 -1.5787  0.9916  3.0127
 3692TIP3   OH211081   6.259   5.129   1.922 -0.1807  0.4947 -0.1711
 3692TIP3    H111082   6.169   5.137   1.889  0.4131  2.3531 -1.5031
 3692TIP3    H211083   6.288   5.042   1.893 -0.1024  1.5607 -3.6869
 3693TIP3   OH211084   4.797   5.101   3.084  0.1034  0.4447 -0.6240
 3693TIP3    H111085   4.736   5.129   3.153 -0.4093  1.0933 -1.3059
 3693TIP3    H211086   4.871   5.161   3.092  2.1685 -2.2388  2.1644
 3694TIP3   OH211087   1.047   5.291   1.674 -0.3364 -0.1579  0.6329
 3694TIP3    H111088   1.102   5.342   1.615 -2.2446  0.0233 -1.1121
 3694TIP3    H211089   0.957   5.317   1.652 -1.2304 -1.9353  1.9020
 3695TIP3   OH211090   5.458   5.860   3.447 -0.0166 -0.4349  0.2109
 3695TIP3    H111091   5.366   5.880   3.431 -0.0930 -1.1922 -0.3399
 3695TIP3    H211092   5.505   5.914   3.384 -0.0842 -0.0668  0.4744
 3696TIP3   OH211093   3.601   0.392   2.199 -0.1287  0.1359 -0.5267
 3696TIP3    H111094   3.697   0.393   2.206 -0.1850  2.1530  0.5769
 3696TIP3    H211095   3.584   0.423   2.110  0.2217 -2.5678 -1.6255
 3697TIP3   OH211096   1.392   4.424   0.524 -0.0106  0.1345 -0.1868
 3697TIP3    H111097   1.353   4.345   0.486 -0.4229  0.3296 -0.1721
 3697TIP3    H211098   1.344   4.437   0.606  2.1563 -1.4322  1.4812
 3698TIP3   OH211099   0.752   2.201   2.748 -0.0707 -0.0301  0.0285
 3698TIP3    H111100   0.715   2.119   2.715 -0.3254  0.0517  0.1163
 3698TIP3    H211101   0.763   2.255   2.669 -0.8241  0.2234  0.0968
 3699TIP3   OH211102   3.317   4.825   2.483 -0.2338  0.7358  0.4769
 3699TIP3    H111103   3.257   4.805   2.411  0.0982 -2.7405  1.0065
 3699TIP3    H211104   3.265   4.879   2.543 -0.3793  4.1716 -2.3809
 3700TIP3   OH211105   0.030   1.526   0.679 -0.3303  0.1412  0.9122
 3700TIP3    H111106  -0.029   1.601   0.676 -1.2310 -0.4834  2.1982
 3700TIP3    H211107   0.045   1.504   0.587  0.3092  2.1357  0.4743
 3701TIP3   OH211108   5.718   1.769   0.441  0.1402 -0.1365  0.2917
 3701TIP3    H111109   5.623   1.780   0.440  0.2315  0.6890 -0.2262
 3701TIP3    H211110   5.752   1.854   0.412  1.0154 -0.6524 -0.2201
 3702TIP3   OH211111   1.238   4.541   1.584 -0.0049 -0.5394  0.2413
 3702TIP3    H111112   1.239   4.633   1.610  0.7579  0.0615 -1.7124
 3702TIP3    H211113   1.293   4.497   1.648  0.7955  0.6169  0.3841
 3703TIP3   OH211114   2.039   1.135   1.939  0.5343  0.1288  0.2110
 3703TIP3    H111115   1.967   1.072   1.942  2.0063 -1.8435 -2.1750
 3703TIP3    H211116   2.077   1.131   2.027 -1.6754  0.6005  1.2611
 3704TIP3   OH211117   2.746   5.035   4.138  0.6097  0.3349 -0.4459
 3704TIP3    H111118   2.698   4.981   4.076  0.9553  0.4350 -0.8089
 3704TIP3    H211119   2.838   5.017   4.119  0.9231  3.7869 -3.1757
 3705TIP3   OH211120   6.045   3.920   1.123 -0.0168  0.0930 -0.3611
 3705TIP3    H111121   6.096   3.839   1.122  0.1688  0.1281  1.5193
 3705TIP3    H211122   6.110   3.989   1.114 -0.0256  0.0629 -0.6474
 3706TIP3   OH211123   2.003   2.386   1.248  0.8949 -0.1276  0.7822
 3706TIP3    H111124   1.915   2.420   1.237  1.3788  1.1474  0.7093
 3706TIP3    H211125   2.009   2.365   1.341  0.0326 -1.6695  0.5237
 3707TIP3   OH211126   4.837   3.155   0.270 -0.3515  0.3377  0.2329
 3707TIP3    H111127   4.743   3.170   0.257 -0.2229 -0.4504 -2.2492
 3707TIP3    H211128   4.841   3.069   0.313 -0.8214 -1.0867 -2.3384
 3708TIP3   OH211129   0.555   5.490   3.352 -0.4372  0.6404  0.2041
 3708TIP3    H111130   0.634   5.501   3.299 -0.7593  1.0444 -0.2011
 3708TIP3    H211131   0.483   5.495   3.289 -0.7653 -0.3345  0.4785
 3709TIP3   OH211132   1.533   3.905   2.740 -0.4785  0.0885  0.5627
 3709TIP3    H111133   1.463   3.872   2.797 -1.1916 -1.2908 -1.0432
 3709TIP3    H211134   1.518   3.999   2.737 -2.1409 -0.1384  0.4612
 3710TIP3   OH211135   1.272   0.312   3.273  0.2892  0.4571  0.3658
 3710TIP3    H111136   1.242   0.391   3.228 -0.0355  1.3155  2.0202
 3710TIP3    H211137   1.197   0.253   3.271  0.0796  0.7226  0.3149
 3711TIP3   OH211138   2.397   4.766   1.817  0.1570 -0.2278 -0.3257
 3711TIP3    H111139   2.307   4.753   1.787  0.5736 -0.2940 -1.6061
 3711TIP3    H211140   2.424   4.680   1.847 -0.8339  0.1872  1.9623
 3712TIP3   OH211141   5.727   4.494   3.589 -0.2867  0.1972 -0.4378
 3712TIP3    H111142   5.667   4.426   3.619  0.1812  0.2496  0.6871
 3712TIP3    H211143   5.805   4.483   3.645  0.3633  0.7284 -1.2223
 3713TIP3   OH211144   0.010   3.325   1.542 -0.0413 -0.0758  0.1287
 3713TIP3    H111145   0.055   3.405   1.569  2.2031 -0.5941 -1.7803
 3713TIP3    H211146   0.014   3.326   1.447 -2.5770 -1.0851 -0.0481
 3714TIP3   OH211147   3.470   4.808   1.270 -0.0821 -0.2903 -0.3524
 3714TIP3    H111148   3.564   4.787   1.270  0.1570  0.4964 -2.6657
 3714TIP3    H211149   3.465   4.893   1.313  0.3794  0.0603 -0.9842
 3715TIP3   OH211150   1.528   3.265   4.401  0.2957  0.0188  0.1351
 3715TIP3    H111151   1.521   3.258   4.496  0.6384 -1.6522  0.0613
 3715TIP3    H211152   1.621   3.248   4.382  0.4603  1.4175 -0.4319
 3716TIP3   OH211153   3.273   1.408   1.316 -0.8356  0.3501  0.0437
 3716TIP3    H111154   3.282   1.313   1.317 -2.3520  0.1093 -2.0859
 3716TIP3    H211155   3.198   1.425   1.374 -0.4911  0.2908  0.5184
 3717TIP3   OH211156   3.928   3.497   2.947 -0.0856 -0.4151 -0.0136
 3717TIP3    H111157   3.889   3.579   2.977 -0.0208 -1.1107  2.2066
 3717TIP3    H211158   4.010   3.490   2.997  0.5039 -1.2558 -1.0649
 3718TIP3   OH211159   0.597   5.346   4.982 -0.0183 -0.5583 -0.1676
 3718TIP3    H111160   0.572   5.417   4.922  0.6681 -1.1304 -1.1715
 3718TIP3    H211161   0.608   5.270   4.925 -0.0412 -1.2956  0.7977
 3719TIP3   OH211162   1.177   4.535   4.233 -0.8110 -0.2307 -0.0673
 3719TIP3    H111163   1.092   4.554   4.194 -1.1787  0.0058  0.8243
 3719TIP3    H211164   1.189   4.441   4.221 -0.1977  0.0543 -2.1214
 3720TIP3   OH211165   0.193   3.988   2.340  0.4689  0.8525 -0.5687
 3720TIP3    H111166   0.232   3.902   2.324 -0.5091  0.3842 -0.5545
 3720TIP3    H211167   0.159   4.015   2.255 -0.1204  0.7491 -0.3736
 3721TIP3   OH211168   4.747   4.944   2.484  0.5794 -0.7346  0.5918
 3721TIP3    H111169   4.705   4.994   2.554  1.0825 -1.0928  1.1561
 3721TIP3    H211170   4.813   5.004   2.448 -0.1300 -0.3107 -0.0360
 3722TIP3   OH211171   1.453   5.714   4.831  0.0538  0.0430 -0.0909
 3722TIP3    H111172   1.430   5.629   4.793 -0.3092  0.4295 -0.7582
 3722TIP3    H211173   1.545   5.727   4.806  0.7801 -1.0703  1.7710
 3723TIP3   OH211174   3.615   1.864   4.402  0.0170 -0.7412 -0.5502
 3723TIP3    H111175   3.708   1.881   4.417 -0.0380 -0.5407 -0.4214
 3723TIP3    H211176   3.605   1.864   4.307  0.2976 -1.6105 -0.5815
 3724TIP3   OH211177   0.994   5.100   0.266  0.3422  0.3699  0.4367
 3724TIP3    H111178   0.939   5.066   0.195 -0.9542  0.7956  1.2016
 3724TIP3    H211179   1.056   5.158   0.223  1.9332 -2.0492 -0.7882
 3725TIP3   OH211180   4.651   1.643   1.461  0.0439 -0.8382  0.0717
 3725TIP3    H111181   4.611   1.675   1.542 -0.4461  1.0712 -0.8717
 3725TIP3    H211182   4.591   1.672   1.392  0.4202 -2.4784 -0.9998
 3726TIP3   OH211183   0.396   3.758   0.342 -0.4890 -0.1120  0.1046
 3726TIP3    H111184   0.429   3.706   0.269 -0.4972  0.4325 -0.2946
 3726TIP3    H211185   0.458   3.743   0.412 -0.2717 -0.3474 -0.1353
 3727TIP3   OH211186   1.596   3.566   3.524 -0.5602  0.6062  0.3262
 3727TIP3    H111187   1.537   3.641   3.515  0.4322  1.3306 -0.2876
 3727TIP3    H211188   1.553   3.510   3.589 -2.8419  0.1862 -1.4258
 3728TIP3   OH211189   0.161   1.286   4.263  0.1383  0.0840  0.6185
 3728TIP3    H111190   0.186   1.243   4.344 -0.3062 -0.8520  0.2642
 3728TIP3    H211191   0.065   1.288   4.265  0.1397  0.8530  0.5149
 3729TIP3   OH211192   0.621   4.345   3.747  0.0754  0.0632 -0.6041
 3729TIP3    H111193   0.657   4.256   3.749  0.5312  0.2400  1.7975
 3729TIP3    H211194   0.667   4.392   3.816 -2.3564  1.2815  0.3231
 3730TIP3   OH211195   4.981   0.254   4.158  0.3504 -0.0303  0.5497
 3730TIP3    H111196   5.035   0.226   4.084  0.9847 -0.9741  1.3414
 3730TIP3    H211197   4.896   0.214   4.142  0.3392  0.1719  0.0883
 3731TIP3   OH211198   3.738   0.845   4.872 -0.0195 -0.0438 -0.2443
 3731TIP3    H111199   3.810   0.850   4.809  0.1231 -1.4118 -0.2249
 3731TIP3    H211200   3.659   0.849   4.819  0.0982 -1.0541 -0.5129
 3732TIP3   OH211201   0.073   5.684   0.294 -0.3896  0.3760  0.0734
 3732TIP3    H111202  -0.005   5.714   0.248 -0.7586  0.9005  1.0223
 3732TIP3    H211203   0.109   5.763   0.334  0.1895 -0.0002  0.3048
 3733TIP3   OH211204   6.097   1.621   1.958  0.1072 -0.3375 -0.4717
 3733TIP3    H111205   6.140   1.653   2.037  0.4057 -0.0219 -0.7622
 3733TIP3    H211206   6.134   1.534   1.944 -1.8418 -1.5483  1.2130
 3734TIP3   OH211207   1.072   1.053   4.691 -0.6828 -0.3887 -0.1849
 3734TIP3    H111208   1.111   1.140   4.688  1.9330 -1.4609  0.7007
 3734TIP3    H211209   1.035   1.041   4.604 -0.9082  1.4980 -0.3940
 3735TIP3   OH211210   4.928   0.661   1.420 -0.1378 -0.5167  0.0882
 3735TIP3    H111211   5.008   0.707   1.445  0.2281 -0.8340 -0.4762
 3735TIP3    H211212   4.871   0.669   1.496 -0.6882  2.1657 -0.4964
 3736TIP3   OH211213   1.569   5.665   4.404 -0.1117 -0.4017 -0.0132
 3736TIP3    H111214   1.601   5.579   4.428  0.8615 -1.0420 -3.1132
 3736TIP3    H211215   1.584   5.719   4.481  2.3271 -2.2269  0.9087
 3737TIP3   OH211216   4.842   2.247   0.885  0.2069  0.9626  0.0882
 3737TIP3    H111217   4.850   2.218   0.794 -1.3876 -0.0902  0.2480
 3737TIP3    H211218   4.751   2.226   0.909  1.1691 -0.7745  2.5985
 3738TIP3   OH211219   4.474   1.330   3.417 -0.1503  0.1439  0.0187
 3738TIP3    H111220   4.405   1.397   3.410 -0.3888 -0.2451 -2.8032
 3738TIP3    H211221   4.432   1.249   3.388  0.8687 -0.6317  0.6570
 3739TIP3   OH211222   5.658   3.209   4.442  0.2640  0.1302 -0.1605
 3739TIP3    H111223   5.613   3.293   4.449 -0.3746 -0.3149  1.5664
 3739TIP3    H211224   5.751   3.231   4.449  0.0594  0.6277  1.2848
 3740TIP3   OH211225   1.618   2.863   0.997 -0.2532  0.0004  0.0114
 3740TIP3    H111226   1.561   2.903   0.932 -0.4213 -0.6666 -0.2695
 3740TIP3    H211227   1.633   2.931   1.062 -1.7777  0.0404  0.3522
 3741TIP3   OH211228   0.511   2.278   4.400  0.5937  0.1916  0.1284
 3741TIP3    H111229   0.603   2.260   4.380  0.0125 -1.3903 -1.3199
 3741TIP3    H211230   0.514   2.348   4.465  2.8921 -1.6581  2.1761
 3742TIP3   OH211231   1.097   1.591   4.017 -0.2922 -0.4894 -0.0064
 3742TIP3    H111232   1.124   1.621   3.930  0.2901  0.6983  0.5710
 3742TIP3    H211233   1.157   1.519   4.037  1.2456  0.8815  0.4534
 3743TIP3   OH211234   2.764   4.580   2.487  0.1603  0.8428 -0.0380
 3743TIP3    H111235   2.704   4.534   2.428  1.5484 -0.7320 -0.3114
 3743TIP3    H211236   2.708   4.612   2.558 -1.0845 -0.0276 -0.5807
 3744TIP3   OH211237   3.399   1.853   3.158 -0.4333  0.3552 -0.2358
 3744TIP3    H111238   3.351   1.783   3.203 -0.6650  1.0837  0.6886
 3744TIP3    H211239   3.334   1.923   3.147  0.1173  0.9065 -0.0103
 3745TIP3   OH211240   5.145   4.945   2.840 -1.0031 -0.3434  0.4075
 3745TIP3    H111241   5.209   4.875   2.832  1.6229  1.9132  0.3302
 3745TIP3    H211242   5.132   4.977   2.750  0.8156  1.6703  0.7794
 3746TIP3   OH211243   6.342   5.386   0.618 -0.0332 -0.1754 -0.3020
 3746TIP3    H111244   6.281   5.321   0.583 -0.9232  0.7350 -0.5161
 3746TIP3    H211245   6.314   5.400   0.708  0.7671 -0.7903  0.0463
 3747TIP3   OH211246   1.642   3.200   2.383 -0.4269  0.4756 -0.2278
 3747TIP3    H111247   1.571   3.244   2.430 -0.8515 -0.1956 -0.2225
 3747TIP3    H211248   1.650   3.248   2.301 -2.3502 -0.6835 -1.1854
 3748TIP3   OH211249   4.590   5.017   4.343  0.0182  0.3206 -0.3349
 3748TIP3    H111250   4.608   5.086   4.407  0.3515  0.3397 -0.4490
 3748TIP3    H211251   4.508   5.043   4.302  0.0876  0.5944 -0.3016
 3749TIP3   OH211252   2.355   4.805   4.949  0.6365  0.3381 -0.0277
 3749TIP3    H111253   2.436   4.806   4.896  0.0827 -0.1385 -0.9178
 3749TIP3    H211254   2.361   4.884   5.003  2.6883 -0.7421  1.4754
 3750TIP3   OH211255   4.118   5.016   0.014 -0.1875 -0.3530 -0.1209
 3750TIP3    H111256   4.125   4.923  -0.007  0.5662 -0.7098  1.5631
 3750TIP3    H211257   4.072   5.019   0.098  0.6118  0.7227  0.3131
 3751TIP3   OH211258   0.182   3.567   3.869  0.2178  0.4725 -0.3754
 3751TIP3    H111259   0.097   3.605   3.892  0.5848  2.0247 -1.4055
 3751TIP3    H211260   0.210   3.616   3.792 -0.2590 -3.3374 -3.2930
 3752TIP3   OH211261   0.038   3.338   2.695 -0.2459  0.3993 -0.9118
 3752TIP3    H111262   0.020   3.294   2.612  1.6681  1.5634 -2.0234
 3752TIP3    H211263   0.133   3.335   2.704 -0.4765 -1.1393  2.1349
 3753TIP3   OH211264   1.217   1.560   3.106  0.2622  0.6761 -0.4013
 3753TIP3    H111265   1.217   1.543   3.012 -0.2551  0.7657 -0.4242
 3753TIP3    H211266   1.203   1.474   3.146 -1.5892  0.8932 -0.4904
 3754TIP3   OH211267   4.227   0.984   4.374 -0.0837 -0.3130  0.3187
 3754TIP3    H111268   4.302   0.978   4.432 -0.6298 -0.0529  1.0656
 3754TIP3    H211269   4.218   0.896   4.337  0.8064 -0.2492 -0.0632
 3755TIP3   OH211270   4.406   0.904   2.946  0.2443  0.4275  0.4082
 3755TIP3    H111271   4.469   0.897   3.017  0.5532  0.7598  0.1733
 3755TIP3    H211272   4.331   0.853   2.975  1.7233 -2.5005 -0.5188
 3756TIP3   OH211273   2.034   2.774   1.346  0.2161  0.0082 -1.2911
 3756TIP3    H111274   2.078   2.759   1.262 -1.7619 -0.1798 -2.3624
 3756TIP3    H211275   1.941   2.764   1.326 -0.4614  1.9274  0.5205
 3757TIP3   OH211276   3.198   0.437   3.587 -0.2923 -0.5303  0.1921
 3757TIP3    H111277   3.128   0.375   3.562 -1.8739  1.5610 -0.8706
 3757TIP3    H211278   3.232   0.469   3.504  0.1703  0.3934  0.7287
 3758TIP3   OH211279   0.869   3.739   3.103  0.0912  0.4668  0.1469
 3758TIP3    H111280   0.825   3.734   3.188  0.1053 -2.0197  0.0824
 3758TIP3    H211281   0.960   3.713   3.122  0.2610  0.5427 -0.5391
 3759TIP3   OH211282   5.394   0.846   3.559  0.4442  0.5694 -0.4503
 3759TIP3    H111283   5.313   0.845   3.609  1.1032  1.0740  0.6571
 3759TIP3    H211284   5.366   0.837   3.468 -0.7458 -1.0112  0.0196
 3760TIP3   OH211285   2.588   1.419   4.906 -0.7603  0.0396  0.1395
 3760TIP3    H111286   2.532   1.482   4.952 -3.2258  0.0178 -2.5269
 3760TIP3    H211287   2.587   1.342   4.963 -2.9105  0.3220  0.6033
 3761TIP3   OH211288   0.222   3.813   2.810 -0.1941 -0.4397 -0.9241
 3761TIP3    H111289   0.218   3.875   2.883  1.4463  0.5611 -1.6150
 3761TIP3    H211290   0.140   3.826   2.763 -0.3480  0.4567 -0.4431
 3762TIP3   OH211291   5.335   2.179   4.004 -0.1994  0.2855 -0.6528
 3762TIP3    H111292   5.348   2.086   4.025 -0.7032 -0.2541 -2.4606
 3762TIP3    H211293   5.267   2.178   3.936 -1.7691  2.1510  0.7572
 3763TIP3   OH211294   2.673   5.316   1.110 -0.0565 -0.2460 -0.3870
 3763TIP3    H111295   2.754   5.287   1.152 -0.0176  1.4163  0.8026
 3763TIP3    H211296   2.682   5.288   1.019  1.6783 -0.4503 -0.1965
 3764TIP3   OH211297   5.249   4.710   2.748 -0.4049  0.4247  0.0016
 3764TIP3    H111298   5.283   4.728   2.661 -0.4212 -0.0889 -0.1161
 3764TIP3    H211299   5.327   4.693   2.802 -0.4648 -1.5234 -0.4444
 3765TIP3   OH211300   5.510   2.691   1.992  0.1562  0.0607  0.2577
 3765TIP3    H111301   5.500   2.785   1.980  0.6852  0.3380  1.8274
 3765TIP3    H211302   5.431   2.664   2.038  0.5545 -0.0547  0.8729
 3766TIP3   OH211303   0.829   4.596   0.215 -0.4508  0.1396  0.0980
 3766TIP3    H111304   0.745   4.565   0.181 -1.2734  1.8343  0.4793
 3766TIP3    H211305   0.807   4.673   0.267  1.4571  1.3370 -0.7595
 3767TIP3   OH211306   2.140   5.741   4.132  0.1629 -0.3073  0.2219
 3767TIP3    H111307   2.066   5.701   4.088  0.5665 -0.1629 -0.6068
 3767TIP3    H211308   2.135   5.709   4.222 -1.9381  1.1216  0.6757
 3768TIP3   OH211309   0.761   2.826   0.475 -0.3385 -0.2484  0.3151
 3768TIP3    H111310   0.771   2.914   0.511 -0.5107  0.0031 -0.2240
 3768TIP3    H211311   0.729   2.773   0.548  0.0714  0.0661  0.7239
 3769TIP3   OH211312   1.524   5.088   3.486  0.1446  0.5768  0.0251
 3769TIP3    H111313   1.454   5.039   3.442  0.7813  0.4285 -0.8411
 3769TIP3    H211314   1.478   5.144   3.549 -0.8700  1.4079 -1.3915
 3770TIP3   OH211315   4.278   2.020   4.365 -0.1896 -0.3664 -0.6913
 3770TIP3    H111316   4.213   1.961   4.403 -0.3686 -0.7038 -1.5224
 3770TIP3    H211317   4.297   2.082   4.436  1.2726 -2.3989  0.8215
 3771TIP3   OH211318   6.255   2.579   3.559 -0.1271 -0.2576 -0.7624
 3771TIP3    H111319   6.167   2.559   3.529 -0.6554  0.1296  0.4799
 3771TIP3    H211320   6.299   2.615   3.481 -1.6293  1.2540 -0.9681
 3772TIP3   OH211321   4.672   0.561   3.702  0.0159  0.1616 -0.1950
 3772TIP3    H111322   4.624   0.497   3.650 -0.3414 -0.1095  0.4563
 3772TIP3    H211323   4.606   0.603   3.756 -0.0247  2.2296 -1.7105
 3773TIP3   OH211324   0.681   5.745   4.186  0.5640  0.2641 -0.8786
 3773TIP3    H111325   0.613   5.685   4.217  1.9847 -1.4430 -0.8576
 3773TIP3    H211326   0.659   5.829   4.227  0.2600 -0.9880  1.7932
 3774TIP3   OH211327   5.080   1.312   4.547 -0.2156 -0.5181 -0.0939
 3774TIP3    H111328   5.085   1.343   4.457 -3.1249 -0.4285 -0.3075
 3774TIP3    H211329   5.098   1.218   4.541  0.3772 -0.3813 -0.6131
 3775TIP3   OH211330   2.580   0.748   0.768 -0.3660  0.5727 -1.0386
 3775TIP3    H111331   2.667   0.722   0.799  1.2734  2.6927 -3.4898
 3775TIP3    H211332   2.522   0.678   0.799  1.8255 -0.0244  2.2616
 3776TIP3   OH211333   5.448   2.228   3.185 -0.2036 -1.1119 -0.2775
 3776TIP3    H111334   5.521   2.188   3.234 -1.2502 -1.5103  1.0168
 3776TIP3    H211335   5.385   2.252   3.253 -1.7723 -1.7879 -1.4489
 3777TIP3   OH211336   4.911   5.274   4.032 -0.2127  0.9174  0.3896
 3777TIP3    H111337   4.938   5.365   4.018 -0.1918  0.6728 -1.4193
 3777TIP3    H211338   4.823   5.269   3.994 -0.2004  0.1743  0.4500
 3778TIP3   OH211339   1.130   5.753   5.196  0.1780 -0.6956  0.5077
 3778TIP3    H111340   1.172   5.806   5.127 -0.2047  0.4040  1.0945
 3778TIP3    H211341   1.047   5.726   5.158 -0.5832  0.9279  0.9253
 3779TIP3   OH211342   5.743   0.586   0.137  0.4659  0.1369  0.3212
 3779TIP3    H111343   5.676   0.587   0.069 -0.6321 -0.1839  1.3542
 3779TIP3    H211344   5.753   0.493   0.159  0.9259  0.2230  0.4834
 3780TIP3   OH211345   2.375   5.602   2.909 -0.1183  0.0068  0.2633
 3780TIP3    H111346   2.302   5.657   2.938  0.1354  0.8770 -0.6976
 3780TIP3    H211347   2.337   5.515   2.899 -1.1253  0.5195 -0.5694
 3781TIP3   OH211348   1.957   4.063   4.164 -0.0755  0.3778  0.9896
 3781TIP3    H111349   1.872   4.037   4.130  0.3223 -0.0410  0.3138
 3781TIP3    H211350   2.008   3.983   4.167  0.8685  0.8973 -0.2790
 3782TIP3   OH211351   5.263   5.376   2.198 -0.5656  0.4232 -0.2725
 3782TIP3    H111352   5.289   5.432   2.126  0.2593 -0.1387 -0.4227
 3782TIP3    H211353   5.192   5.322   2.162  0.1703 -0.1951 -0.8212
 3783TIP3   OH211354   5.980   5.936   1.973 -0.0269 -0.2879 -0.3438
 3783TIP3    H111355   5.928   5.893   1.905 -0.1353 -2.8339  1.2254
 3783TIP3    H211356   5.922   6.003   2.009 -1.0691 -0.9716 -0.7099
 3784TIP3   OH211357   0.264   0.055   3.987  0.3489 -0.3064 -0.2330
 3784TIP3    H111358   0.181   0.092   3.957  0.3158 -0.5920 -0.4893
 3784TIP3    H211359   0.239  -0.024   4.035  0.4183  0.0081  0.3417
 3785TIP3   OH211360   5.689   4.548   4.169 -0.2510 -0.4336 -0.1671
 3785TIP3    H111361   5.774   4.581   4.198  0.7313 -1.0726 -2.1447
 3785TIP3    H211362   5.672   4.595   4.087 -0.2135 -2.5807 -1.4834
 3786TIP3   OH211363   0.455   0.885   4.655  0.2777 -0.6300 -0.5060
 3786TIP3    H111364   0.520   0.924   4.596  1.8970 -0.8350  1.0593
 3786TIP3    H211365   0.390   0.846   4.597  0.3199  1.5427 -2.1429
 3787TIP3   OH211366   2.982   3.975   1.188 -0.8222 -0.5317 -0.3884
 3787TIP3    H111367   2.969   3.969   1.283  0.5114 -1.7154 -0.2357
 3787TIP3    H211368   2.914   3.918   1.151 -0.5901 -1.0357 -0.0543
 3788TIP3   OH211369   3.251   5.577   3.117  0.2270 -0.3160 -0.2439
 3788TIP3    H111370   3.183   5.644   3.108 -0.1036 -0.1612  2.6685
 3788TIP3    H211371   3.221   5.506   3.061 -0.6711  0.9792 -1.4930
 3789TIP3   OH211372   4.673   3.177   0.632 -0.0513  0.4165 -0.3998
 3789TIP3    H111373   4.738   3.219   0.689  0.0800 -0.4782  0.1264
 3789TIP3    H211374   4.646   3.246   0.572  2.2955  0.5254 -1.4468
 3790TIP3   OH211375   5.161   1.412   0.698  0.8435  0.4096 -0.3980
 3790TIP3    H111376   5.157   1.327   0.655  1.1579  0.7571 -1.1335
 3790TIP3    H211377   5.224   1.462   0.647 -0.6752  1.6943 -1.0808
 3791TIP3   OH211378   0.593   3.948   5.169  0.2881 -0.0610  0.0928
 3791TIP3    H111379   0.665   3.892   5.199  0.6546  1.1468  1.5807
 3791TIP3    H211380   0.635   4.011   5.111 -0.1167 -1.2197 -1.5383
 3792TIP3   OH211381   2.479   4.185   1.175  0.3331 -0.4839  0.1503
 3792TIP3    H111382   2.425   4.118   1.215 -0.6192 -0.3923 -0.9429
 3792TIP3    H211383   2.558   4.139   1.146 -0.4503 -1.2103 -0.8810
 3793TIP3   OH211384   4.797   3.530   0.801 -0.3601  0.5788  0.2370
 3793TIP3    H111385   4.757   3.609   0.838  1.0198  0.7123  1.5577
 3793TIP3    H211386   4.877   3.561   0.759  0.1022 -0.0692  0.6100
 3794TIP3   OH211387   0.921   1.455   4.900 -0.1227 -0.0654  0.1490
 3794TIP3    H111388   0.883   1.418   4.820 -0.6685  1.3967 -0.2910
 3794TIP3    H211389   0.856   1.517   4.931  1.4746  1.8576 -0.1428
 3795TIP3   OH211390   3.296   2.193   4.433  0.4004  0.2000  1.1531
 3795TIP3    H111391   3.267   2.129   4.498 -0.2651 -0.8204 -0.0903
 3795TIP3    H211392   3.351   2.255   4.482  0.2339 -0.7415  2.5843
 3796TIP3   OH211393   6.049   0.588   0.821 -0.2756  0.3806  0.3026
 3796TIP3    H111394   5.986   0.569   0.890 -0.9291 -0.3408 -0.4763
 3796TIP3    H211395   6.005   0.564   0.740  0.6633  0.7292 -0.3388
 3797TIP3   OH211396   0.592   5.447   0.909  0.1107 -0.4703  0.2564
 3797TIP3    H111397   0.554   5.370   0.867  0.4206 -0.6512  0.3090
 3797TIP3    H211398   0.663   5.413   0.964  1.5679  0.0141 -1.2265
 3798TIP3   OH211399   0.531   3.931   2.639 -0.0565 -0.3754  0.1297
 3798TIP3    H111400   0.506   4.023   2.649 -0.2617 -0.4609  0.4088
 3798TIP3    H211401   0.450   3.883   2.653  0.0109 -0.5922 -0.2014
 3799TIP3   OH211402   2.617   1.200   1.695  0.1263 -0.0673  0.1444
 3799TIP3    H111403   2.678   1.251   1.747  2.2135 -1.5390 -0.7371
 3799TIP3    H211404   2.541   1.258   1.683  1.7607  2.2442  0.4005
 3800TIP3   OH211405   1.249   0.471   1.855  0.4552  0.0316 -0.0483
 3800TIP3    H111406   1.189   0.407   1.819  0.5233 -0.5261  0.8144
 3800TIP3    H211407   1.280   0.520   1.778 -0.7803  0.0757 -0.5442
 3801TIP3   OH211408   3.824   5.009   3.990  0.0572  0.2781  0.6173
 3801TIP3    H111409   3.790   5.002   3.901  1.2864  0.9530  0.0658
 3801TIP3    H211410   3.890   4.940   3.996  0.8487  1.0234  0.5807
 3802TIP3   OH211411   4.724   1.636   4.848  0.6780 -0.3754 -0.2347
 3802TIP3    H111412   4.769   1.579   4.786 -0.8287 -0.9236 -0.8938
 3802TIP3    H211413   4.772   1.626   4.929  0.3781 -2.8017 -0.2693
 3803TIP3   OH211414   1.804   4.424   3.009  0.0662  0.8244 -0.0515
 3803TIP3    H111415   1.832   4.501   3.058 -0.0427  2.8370 -2.9074
 3803TIP3    H211416   1.724   4.452   2.964 -0.2202 -1.1011 -0.8463
 3804TIP3   OH211417   0.740   1.215   0.145 -0.0141  0.5069  0.8477
 3804TIP3    H111418   0.677   1.143   0.144  0.5705 -0.0222  1.1032
 3804TIP3    H211419   0.738   1.249   0.056  0.4055 -0.4662  0.4498
 3805TIP3   OH211420   5.056   0.200   2.575  0.1730  0.7949 -0.2036
 3805TIP3    H111421   4.995   0.239   2.512  0.4891  0.4361 -0.7432
 3805TIP3    H211422   5.020   0.223   2.661 -1.6050 -0.6938 -0.4793
 3806TIP3   OH211423   0.431   5.102   4.862 -0.0782  0.3129 -0.6538
 3806TIP3    H111424   0.425   5.022   4.915  1.2001  0.3857 -0.3759
 3806TIP3    H211425   0.519   5.099   4.824 -0.0967  1.4920 -0.8096
 3807TIP3   OH211426   3.915   2.590   2.417 -0.1565 -0.3313 -0.4703
 3807TIP3    H111427   4.004   2.591   2.383  0.0334  0.5866  0.0196
 3807TIP3    H211428   3.920   2.539   2.498  0.0794  0.3318 -0.0607
 3808TIP3   OH211429   2.348   2.981   0.677 -0.2835  0.1628 -0.1019
 3808TIP3    H111430   2.253   2.980   0.690 -0.3949 -0.6910 -0.8529
 3808TIP3    H211431   2.374   3.071   0.696 -0.9268 -0.0804  2.1686
 3809TIP3   OH211432   4.467   2.512   1.003  0.1925  0.1079  0.0885
 3809TIP3    H111433   4.426   2.592   1.034 -1.3119  0.0131 -1.5287
 3809TIP3    H211434   4.520   2.539   0.928  1.1629 -0.1459  0.6681
 3810TIP3   OH211435   0.416   5.477   5.155 -0.4180 -0.2738  0.0753
 3810TIP3    H111436   0.479   5.455   5.086 -1.2015 -0.8678 -0.4543
 3810TIP3    H211437   0.331   5.469   5.114 -0.8957 -0.4971  1.0798
 3811TIP3   OH211438   0.990   5.738   0.339  0.4367  0.2932 -0.2121
 3811TIP3    H111439   0.900   5.721   0.311  1.1148 -1.0578 -1.6624
 3811TIP3    H211440   1.000   5.686   0.419  0.3509 -0.7047 -0.8337
 3812TIP3   OH211441   4.638   3.835   3.562  0.0210 -0.2626  0.0453
 3812TIP3    H111442   4.599   3.768   3.506  0.8464 -0.7551  0.0470
 3812TIP3    H211443   4.592   3.826   3.646 -1.2775  0.5332 -0.5508
 3813TIP3   OH211444   5.634   1.474   4.192  0.2442 -0.6727  0.8707
 3813TIP3    H111445   5.707   1.451   4.135 -0.0734 -1.5696  0.8027
 3813TIP3    H211446   5.611   1.391   4.236  0.2662 -0.0827  2.0444
 3814TIP3   OH211447   0.801   4.817   0.987  0.6727 -0.3118 -0.6152
 3814TIP3    H111448   0.855   4.739   1.003 -1.7621 -2.6278 -2.6796
 3814TIP3    H211449   0.860   4.879   0.945  2.5496 -1.2787  0.4641
 3815TIP3   OH211450   2.520   5.640   4.672  0.0406  0.4464  0.1508
 3815TIP3    H111451   2.442   5.652   4.726  1.4706  0.3915  2.3905
 3815TIP3    H211452   2.550   5.551   4.692  0.6886  0.4726 -0.6378
 3816TIP3   OH211453   5.210   4.110   0.785 -0.8032  0.1427 -0.4080
 3816TIP3    H111454   5.199   4.080   0.695  2.3340 -2.2050 -0.1865
 3816TIP3    H211455   5.273   4.183   0.778 -2.0915  1.3060 -0.2309
 3817TIP3   OH211456   3.177   2.601   1.949 -0.2138  0.4522 -0.1430
 3817TIP3    H111457   3.236   2.607   2.024  2.2594 -1.0134 -1.8432
 3817TIP3    H211458   3.231   2.566   1.878 -2.0491  2.9526 -3.0288
 3818TIP3   OH211459   0.112   0.664   2.458  0.2844 -0.0152 -0.5338
 3818TIP3    H111460   0.023   0.679   2.489 -0.8149 -3.7584 -1.3334
 3818TIP3    H211461   0.162   0.641   2.536  0.0392  0.2323 -0.3062
 3819TIP3   OH211462   0.189   3.686   4.218 -0.0705  0.2656 -0.0234
 3819TIP3    H111463   0.168   3.740   4.294  2.0947 -0.1422  0.9524
 3819TIP3    H211464   0.227   3.747   4.155  0.9703  0.1474  0.4734
 3820TIP3   OH211465   5.139   5.182   0.241 -0.7094  0.5088 -0.0426
 3820TIP3    H111466   5.147   5.277   0.251 -0.2768  0.5886 -1.0903
 3820TIP3    H211467   5.157   5.165   0.149  0.2506 -0.7106  0.3428
 3821TIP3   OH211468   4.522   2.932   3.879  0.4156  0.0744  0.2420
 3821TIP3    H111469   4.510   2.859   3.817  0.4394  0.0958  0.2124
 3821TIP3    H211470   4.469   3.003   3.842 -0.7564 -0.3687  1.0013
 3822TIP3   OH211471   3.070   3.499   2.259 -0.7180  0.0385  0.6251
 3822TIP3    H111472   3.031   3.495   2.346  1.2114 -2.4152  1.4878
 3822TIP3    H211473   3.088   3.592   2.245 -0.4261  0.4332  3.1685
 3823TIP3   OH211474   3.638   0.456   3.122  0.0574 -0.1322  0.0352
 3823TIP3    H111475   3.598   0.496   3.045 -0.2437  1.3127  0.8899
 3823TIP3    H211476   3.653   0.529   3.182  2.2127 -0.9142  0.5340
 3824TIP3   OH211477   2.341   2.020   0.978  0.2285  0.2699 -0.0170
 3824TIP3    H111478   2.374   2.082   0.913 -0.3521  0.7326  0.1317
 3824TIP3    H211479   2.415   1.961   0.993 -0.4102 -1.5747 -3.1461
 3825TIP3   OH211480   3.056   3.911   0.781 -0.1639 -0.0850 -0.2214
 3825TIP3    H111481   3.041   3.960   0.700  2.6681  2.1344  0.4479
 3825TIP3    H211482   3.062   3.978   0.849 -0.2558 -1.7239  1.5002
 3826TIP3   OH211483   6.115   1.946   3.409 -0.0972  0.1672  0.4552
 3826TIP3    H111484   6.192   1.957   3.464  0.5549 -0.5829 -0.2774
 3826TIP3    H211485   6.127   2.009   3.338  0.6734 -1.0625 -0.5362
 3827TIP3   OH211486   0.647   4.673   3.496  0.2242 -0.3420  0.1542
 3827TIP3    H111487   0.586   4.742   3.523  0.9688  0.2248  0.3982
 3827TIP3    H211488   0.719   4.678   3.558  0.0641 -1.6716  0.4726
 3828TIP3   OH211489   3.500   4.426   0.406  0.2125 -0.5678  0.5601
 3828TIP3    H111490   3.457   4.351   0.446  0.8134 -1.8837 -1.1437
 3828TIP3    H211491   3.441   4.452   0.335  0.7262 -0.3956  0.1931
 3829TIP3   OH211492   1.057   2.816   5.089  0.1370  0.1467 -0.4037
 3829TIP3    H111493   1.047   2.799   5.183 -0.4960  1.9224 -0.1056
 3829TIP3    H211494   0.968   2.814   5.055  0.3604 -0.4112 -0.9519
 3830TIP3   OH211495   5.365   3.990   1.065  0.2278 -0.3001  0.3897
 3830TIP3    H111496   5.418   3.918   1.032 -0.9674 -1.0333  0.0117
 3830TIP3    H211497   5.287   3.990   1.010  0.2614  1.3790  0.3048
 3831TIP3   OH211498   5.415   1.973   1.452  0.4593 -0.8034  0.0072
 3831TIP3    H111499   5.496   1.932   1.483  1.8817  0.4936 -1.8270
 3831TIP3    H211500   5.423   1.974   1.357 -2.0085 -1.1383 -0.2807
 3832TIP3   OH211501   4.927   5.155   2.350  0.1125 -0.4383 -0.6685
 3832TIP3    H111502   4.908   5.233   2.402  0.7818 -1.2029  0.7803
 3832TIP3    H211503   5.001   5.181   2.295 -0.1240  0.1629 -0.7123
 3833TIP3   OH211504   0.862   4.004   2.685 -0.4667 -0.3378 -0.5586
 3833TIP3    H111505   0.818   4.082   2.718  0.5464 -0.0160  0.0840
 3833TIP3    H211506   0.837   3.934   2.746 -1.3783 -0.5405 -1.1374
 3834TIP3   OH211507   2.176   2.385   3.082  0.1873  0.4017  0.1554
 3834TIP3    H111508   2.246   2.320   3.084  0.5453  0.8057  0.7760
 3834TIP3    H211509   2.155   2.401   3.174 -2.1032 -1.1888  0.0044
 3835TIP3   OH211510   3.463   0.181   2.298 -0.1376 -0.1562  0.0888
 3835TIP3    H111511   3.493   0.271   2.283 -1.0990  0.3502  1.0862
 3835TIP3    H211512   3.539   0.138   2.337 -0.4177  0.9102  1.9162
 3836TIP3   OH211513   0.210   5.897   2.357 -0.2127  0.2051 -0.2634
 3836TIP3    H111514   0.282   5.893   2.294  0.6280 -1.9903  0.7246
 3836TIP3    H211515   0.141   5.842   2.319 -0.8056  1.1111 -0.5235
 3837TIP3   OH211516   3.628   5.420   4.485 -0.1405 -0.0556 -0.6914
 3837TIP3    H111517   3.618   5.514   4.470  0.0257  0.3273  1.2837
 3837TIP3    H211518   3.720   5.408   4.508 -0.7296 -0.1653  1.9729
 3838TIP3   OH211519   0.239   5.767   3.434  0.6999  0.2806 -0.1989
 3838TIP3    H111520   0.295   5.711   3.487  0.7473  1.5533  1.1737
 3838TIP3    H211521   0.171   5.708   3.400  0.5333 -0.5507  1.4919
 3839TIP3   OH211522   6.093   5.197   0.176  0.0625 -0.0415 -0.4082
 3839TIP3    H111523   6.168   5.233   0.128 -0.7927  0.6682 -1.2381
 3839TIP3    H211524   6.025   5.186   0.110 -0.8487  0.1025  0.4910
 3840TIP3   OH211525   1.781   5.193   4.112 -0.1317  0.1597 -0.6060
 3840TIP3    H111526   1.856   5.212   4.056 -1.6072  2.1414 -2.0652
 3840TIP3    H211527   1.798   5.244   4.192  1.1173 -1.2328  0.0522
 3841TIP3   OH211528   1.554   0.270   4.329 -0.2025  0.2360  0.0549
 3841TIP3    H111529   1.556   0.365   4.318  0.8808  0.2451  0.2076
 3841TIP3    H211530   1.635   0.249   4.375 -1.1662 -0.6028  1.4274
 3842TIP3   OH211531   2.233   2.229   5.070  0.1064 -0.1844  0.0940
 3842TIP3    H111532   2.307   2.169   5.073  0.2040 -0.2073  4.7548
 3842TIP3    H211533   2.271   2.315   5.088 -0.8050 -0.0326  1.4620
 3843TIP3   OH211534   6.233   3.416   3.355 -0.5015 -0.4084  0.4929
 3843TIP3    H111535   6.251   3.456   3.270  0.6730 -0.2847  0.7767
 3843TIP3    H211536   6.142   3.387   3.349 -0.4692 -0.3226 -0.7690
 3844TIP3   OH211537   3.823   2.338   2.116  0.1423 -0.0155  0.0676
 3844TIP3    H111538   3.728   2.347   2.115  0.1101 -0.1470  1.0492
 3844TIP3    H211539   3.838   2.245   2.098 -0.0010 -0.3825  1.7331
 3845TIP3   OH211540   5.741   2.252   3.613 -0.2262 -0.2214 -0.2613
 3845TIP3    H111541   5.702   2.167   3.634 -1.7209 -0.5997 -3.7553
 3845TIP3    H211542   5.821   2.231   3.564  0.0884  0.4026 -0.0282
 3846TIP3   OH211543   2.730   1.741   4.923  0.9166  0.0374 -0.2163
 3846TIP3    H111544   2.648   1.755   4.876  1.1803 -0.1970 -0.7616
 3846TIP3    H211545   2.776   1.674   4.872  1.4759  0.2126  0.0423
 3847TIP3   OH211546   4.606   1.440   0.393  0.1917 -0.5566 -0.1507
 3847TIP3    H111547   4.692   1.483   0.401  0.8374 -1.8492  0.1454
 3847TIP3    H211548   4.550   1.506   0.354  1.7216 -0.1767 -1.8479
 3848TIP3   OH211549   2.556   5.521   4.207  0.1571 -0.1486 -0.0835
 3848TIP3    H111550   2.540   5.511   4.301  0.4597 -2.5249 -0.2207
 3848TIP3    H211551   2.591   5.609   4.198 -1.4229  0.7508  1.7999
 3849TIP3   OH211552   4.251   2.310   2.886  0.1646  0.4829 -0.1274
 3849TIP3    H111553   4.340   2.284   2.864  0.6035  0.9237  1.0319
 3849TIP3    H211554   4.201   2.296   2.806  1.0826 -0.6503 -0.5371
 3850TIP3   OH211555   4.989   2.478   4.521 -0.2404  0.3846 -1.0002
 3850TIP3    H111556   5.012   2.497   4.612 -3.7274  1.1681 -0.1444
 3850TIP3    H211557   5.047   2.405   4.496  2.0561  1.3184  1.1552
 3851TIP3   OH211558   3.286   1.648   0.236  0.0874  0.1589 -0.3781
 3851TIP3    H111559   3.198   1.687   0.237  0.4436  0.9802 -0.2414
 3851TIP3    H211560   3.301   1.620   0.326 -1.0762 -2.4610 -0.8903
 3852TIP3   OH211561   0.519   3.870   2.981 -0.2773 -0.4953  0.0607
 3852TIP3    H111562   0.499   3.867   3.074  0.1421 -2.0193  0.1328
 3852TIP3    H211563   0.440   3.836   2.938 -0.7041  0.7717 -0.2068
 3853TIP3   OH211564   3.979   0.342   0.500 -0.7622 -0.0585  0.1145
 3853TIP3    H111565   3.976   0.355   0.405  0.3194 -1.0943 -0.0787
 3853TIP3    H211566   4.049   0.401   0.530 -1.2942  0.4766  0.3075
 3854TIP3   OH211567   3.296   2.491   4.749 -0.2307  0.6968 -0.3034
 3854TIP3    H111568   3.288   2.583   4.722  0.5803  1.6900  2.5287
 3854TIP3    H211569   3.209   2.454   4.734 -0.5305  1.8406 -1.6281
 3855TIP3   OH211570   2.937   1.572   0.508 -0.1371 -0.3484  0.2956
 3855TIP3    H111571   2.979   1.658   0.500 -0.0089 -0.2874  1.4683
 3855TIP3    H211572   2.884   1.564   0.429 -2.1015  1.8855  1.2615
 3856TIP3   OH211573   3.151   3.681   0.231 -0.0484  0.0592 -0.7405
 3856TIP3    H111574   3.164   3.759   0.178 -0.3025  0.4699 -0.2082
 3856TIP3    H211575   3.056   3.676   0.242 -0.0429 -0.4024 -0.8847
 3857TIP3   OH211576   0.045   2.008   1.289  0.1808  0.3382 -0.0062
 3857TIP3    H111577  -0.012   1.933   1.275 -0.5952  1.3756 -3.2954
 3857TIP3    H211578  -0.010   2.072   1.335  0.5064 -0.6262  1.7993
 3858TIP3   OH211579   3.575   4.572   1.616  0.1932 -0.1561  0.3762
 3858TIP3    H111580   3.653   4.621   1.592  0.7407 -0.7528  0.8992
 3858TIP3    H211581   3.569   4.502   1.551  1.3708 -1.4451  1.5791
 3859TIP3   OH211582   0.665   2.692   1.762  0.1052 -0.0532 -0.0895
 3859TIP3    H111583   0.624   2.746   1.829 -0.8009  0.2105 -0.8285
 3859TIP3    H211584   0.593   2.664   1.706  0.8399 -0.2492 -0.9696
 3860TIP3   OH211585   1.966   3.615   1.176 -0.4005 -0.2832 -0.2567
 3860TIP3    H111586   1.973   3.520   1.162  0.4158 -0.1839 -0.5860
 3860TIP3    H211587   1.908   3.645   1.106  0.9051 -0.2795 -1.3895
 3861TIP3   OH211588   0.928   0.818   3.638  0.5529  0.1517  0.2371
 3861TIP3    H111589   0.896   0.735   3.602  0.4182 -0.3334  1.4338
 3861TIP3    H211590   0.863   0.883   3.609 -0.3747 -0.4759  0.8585
 3862TIP3   OH211591   5.624   2.645   2.456  0.3716  0.2204 -0.2562
 3862TIP3    H111592   5.679   2.723   2.447 -0.2136  0.5548 -0.9953
 3862TIP3    H211593   5.655   2.603   2.537  0.1470  1.6494  0.6080
 3863TIP3   OH211594   2.905   4.060   0.176 -0.7014 -0.1126  0.2704
 3863TIP3    H111595   2.908   4.108   0.093  0.8778  0.1456  0.4398
 3863TIP3    H211596   2.882   3.970   0.151 -0.7629  0.0795 -0.3854
 3864TIP3   OH211597   5.345   0.586   2.587 -0.1547 -0.4396  0.0553
 3864TIP3    H111598   5.326   0.519   2.653  0.7288  0.9306  1.7749
 3864TIP3    H211599   5.438   0.605   2.598 -0.3083  0.8066 -0.6370
 3865TIP3   OH211600   2.660   3.915   1.916 -0.2712  0.7410 -0.0334
 3865TIP3    H111601   2.670   3.998   1.870 -1.6843  0.6116 -0.6165
 3865TIP3    H211602   2.583   3.927   1.971  0.1009  0.1366  0.6443
 3866TIP3   OH211603   5.570   1.218   5.039  0.0163 -0.5715 -0.1050
 3866TIP3    H111604   5.559   1.138   5.091  0.7968  0.4165  1.6734
 3866TIP3    H211605   5.594   1.285   5.103 -3.2560  1.7941 -1.0745
 3867TIP3   OH211606   6.233   3.856   4.132  0.8159 -0.2537 -0.4424
 3867TIP3    H111607   6.242   3.763   4.155 -2.3736 -1.0681 -1.8184
 3867TIP3    H211608   6.274   3.864   4.046  1.5383 -0.2561 -0.1007
 3868TIP3   OH211609   1.057   4.116   0.037 -0.3159 -0.0754  0.8904
 3868TIP3    H111610   1.086   4.207   0.040  1.6498 -0.3769 -2.7269
 3868TIP3    H211611   0.980   4.117  -0.020  1.0483 -0.7905 -1.0943
 3869TIP3   OH211612   1.850   1.822   2.849 -0.2025  0.1739  0.4385
 3869TIP3    H111613   1.877   1.739   2.889 -0.8978 -0.3599 -0.1724
 3869TIP3    H211614   1.880   1.889   2.910  0.4262 -0.5228  0.9097
 3870TIP3   OH211615   4.560   5.182   0.420 -0.1275  0.4335  0.1589
 3870TIP3    H111616   4.480   5.221   0.453  0.4451 -0.0891  2.2837
 3870TIP3    H211617   4.608   5.255   0.380 -1.0680  0.9787  0.0182
 3871TIP3   OH211618   3.600   5.127   3.139 -0.0317  0.1835  0.2472
 3871TIP3    H111619   3.643   5.042   3.152 -0.8528 -0.5068 -1.2846
 3871TIP3    H211620   3.511   5.114   3.172 -0.0727  0.5536  0.2828
 3872TIP3   OH211621   4.235   0.531   3.564 -0.6183 -0.1157 -0.4160
 3872TIP3    H111622   4.267   0.469   3.629 -0.6421 -0.7735 -1.0214
 3872TIP3    H211623   4.160   0.573   3.606 -1.0801 -1.0567 -0.2810
 3873TIP3   OH211624   2.164   4.056   4.973  0.1006 -0.2483 -0.1673
 3873TIP3    H111625   2.183   4.057   5.067  0.8004 -0.5756 -0.2941
 3873TIP3    H211626   2.069   4.045   4.967  0.0977 -0.6365  0.4984
 3874TIP3   OH211627   2.283   0.288   0.622  0.0497  0.0946  0.0125
 3874TIP3    H111628   2.322   0.356   0.567  0.2485 -0.5536 -0.6590
 3874TIP3    H211629   2.189   0.306   0.620  0.0002 -0.2038 -0.9403
 3875TIP3   OH211630   4.549   5.044   1.223 -0.2565  0.3206 -0.2921
 3875TIP3    H111631   4.592   5.026   1.306 -2.5531 -1.1766  0.6810
 3875TIP3    H211632   4.490   5.116   1.241 -1.0616 -0.2734 -0.4861
 3876TIP3   OH211633   4.381   3.942   1.129 -0.1248  0.1651 -0.2237
 3876TIP3    H111634   4.456   3.999   1.110 -0.5718  1.3048  1.2703
 3876TIP3    H211635   4.313   4.001   1.159 -0.5331 -1.1671  1.6346
 3877TIP3   OH211636   5.233   0.003   2.601  0.3601  0.4592 -0.4398
 3877TIP3    H111637   5.236  -0.059   2.528 -0.4567  0.1534 -0.2260
 3877TIP3    H211638   5.177   0.074   2.568  0.7527  0.7742 -0.4425
 3878TIP3   OH211639   4.626   2.232   1.705  1.2173 -0.1057  0.1496
 3878TIP3    H111640   4.652   2.324   1.713  0.0985  0.4319 -1.6755
 3878TIP3    H211641   4.532   2.233   1.724  0.8209 -0.5304 -1.6022
 3879TIP3   OH211642   1.917   4.189   3.314 -0.0912 -0.2175  0.0123
 3879TIP3    H111643   1.985   4.153   3.371  0.8589  2.3801  0.6639
 3879TIP3    H211644   1.838   4.185   3.366  0.2215 -0.3272  0.4862
 3880TIP3   OH211645   3.976   2.977   4.921  0.0367 -0.0255  0.5486
 3880TIP3    H111646   3.935   2.988   4.836  0.0007  0.4038  0.6154
 3880TIP3    H211647   4.063   2.943   4.902  1.0946  2.6352  0.1051
 3881TIP3   OH211648   2.389   1.290   1.834  0.2659 -0.1471  1.2879
 3881TIP3    H111649   2.378   1.293   1.739 -0.6348 -3.5925  1.1298
 3881TIP3    H211650   2.470   1.338   1.850 -0.0813  1.4041 -1.0708
 3882TIP3   OH211651   2.667   3.277   3.441 -0.3308 -0.1800 -0.1145
 3882TIP3    H111652   2.756   3.302   3.465  0.2664 -3.1541  1.0983
 3882TIP3    H211653   2.677   3.196   3.391 -2.4087 -1.2858  1.1400
 3883TIP3   OH211654   4.962   5.714   3.718 -0.0994  0.0515  0.2881
 3883TIP3    H111655   5.042   5.719   3.771 -0.0129  1.2272  0.0669
 3883TIP3    H211656   4.895   5.683   3.779  0.3131 -0.0190  0.7125
 3884TIP3   OH211657   0.191   5.496   1.367 -0.6796 -0.1225 -0.0114
 3884TIP3    H111658   0.229   5.554   1.432 -1.3539  0.6280 -0.2623
 3884TIP3    H211659   0.175   5.552   1.291  0.1312 -0.9878 -0.8437
 3885TIP3   OH211660   2.415   2.832   3.646  0.4917 -0.3786  0.2348
 3885TIP3    H111661   2.476   2.832   3.720  2.8410  1.4031 -1.5428
 3885TIP3    H211662   2.367   2.914   3.655 -1.3684 -1.5129  1.3077
 3886TIP3   OH211663   5.906   0.286   3.231  0.0986 -0.4316 -0.1312
 3886TIP3    H111664   5.938   0.261   3.318  1.3839  0.8843 -0.1771
 3886TIP3    H211665   5.950   0.226   3.172  2.3183  1.0611 -0.1495
 3887TIP3   OH211666   0.440   3.477   1.394  0.0702 -0.1659 -0.0596
 3887TIP3    H111667   0.463   3.454   1.304 -0.5804 -2.1794  0.2345
 3887TIP3    H211668   0.354   3.519   1.388  0.8078  1.3457 -0.5142
 3888TIP3   OH211669   2.889   3.678   1.614 -0.8180 -0.8234 -0.8509
 3888TIP3    H111670   2.942   3.612   1.569  1.0720 -0.0215  0.0570
 3888TIP3    H211671   2.853   3.633   1.690  0.8923 -0.7815  0.0586
 3889TIP3   OH211672   1.712   1.503   2.228  0.6831 -0.1971  0.1055
 3889TIP3    H111673   1.779   1.471   2.289 -1.0743 -0.9156  1.7704
 3889TIP3    H211674   1.657   1.560   2.282  0.4249  1.0885 -1.4322
 3890TIP3   OH211675   4.985   5.159   1.003 -0.5831 -0.0416 -0.5693
 3890TIP3    H111676   4.889   5.158   0.997 -0.5874  0.3098 -0.6042
 3890TIP3    H211677   5.009   5.069   1.025 -0.9261 -0.1188 -0.5063
 3891TIP3   OH211678   1.744   3.864   1.774 -0.2013  0.0227  0.2750
 3891TIP3    H111679   1.650   3.882   1.778 -0.1134  0.5410  0.0532
 3891TIP3    H211680   1.777   3.890   1.861 -0.3162 -0.4787  0.4701
 3892TIP3   OH211681   3.504   0.369   4.604 -0.1983 -0.4359 -0.1081
 3892TIP3    H111682   3.527   0.344   4.514  1.1975  2.4068 -0.6619
 3892TIP3    H211683   3.588   0.373   4.650 -0.3896  2.0268  0.1555
 3893TIP3   OH211684   2.818   5.572   3.295 -0.1282 -0.3623 -0.1942
 3893TIP3    H111685   2.851   5.482   3.295  0.0870 -0.3492  1.9656
 3893TIP3    H211686   2.731   5.566   3.255 -1.1730 -2.0619  2.0670
 3894TIP3   OH211687   0.033   0.869   4.487  0.3618  0.1451 -0.0919
 3894TIP3    H111688  -0.009   0.789   4.455  3.3181 -1.1501 -1.0551
 3894TIP3    H211689   0.093   0.839   4.555  1.8015  1.4634 -0.7176
 3895TIP3   OH211690   4.764   3.212   1.176 -0.1967 -0.5502  0.5006
 3895TIP3    H111691   4.713   3.255   1.107 -0.3314  1.0504  1.5421
 3895TIP3    H211692   4.846   3.261   1.180  0.4818 -1.6278  0.4353
 3896TIP3   OH211693   2.863   1.426   3.663  0.1664 -0.0896  0.3499
 3896TIP3    H111694   2.844   1.365   3.734 -1.6361 -0.8046 -0.6681
 3896TIP3    H211695   2.794   1.492   3.668  1.3486  1.1795  0.6363
 3897TIP3   OH211696   3.980   2.346   4.746 -0.4606  0.1813  0.2173
 3897TIP3    H111697   3.964   2.440   4.732  1.1014  0.4367 -0.0924
 3897TIP3    H211698   3.930   2.303   4.677 -0.7732  0.8302  0.0289
 3898TIP3   OH211699   2.516   3.667   4.250  0.3924  0.8338 -0.4360
 3898TIP3    H111700   2.588   3.687   4.191  1.3089  2.1842  1.0565
 3898TIP3    H211701   2.515   3.739   4.313 -1.0103 -0.1502  0.7603
 3899TIP3   OH211702   4.991   5.278   2.789 -0.1000  0.5145  0.1217
 3899TIP3    H111703   4.899   5.285   2.817 -0.2171  0.2488 -0.1992
 3899TIP3    H211704   5.004   5.185   2.773 -0.2943  0.7503 -1.5969
 3900TIP3   OH211705   3.520   4.532   1.129 -0.5506 -0.3961 -0.2436
 3900TIP3    H111706   3.464   4.542   1.052 -1.2570 -1.1729  0.1588
 3900TIP3    H211707   3.576   4.610   1.128 -0.0387 -0.7361 -1.9599
 3901TIP3   OH211708   3.523   5.453   3.135 -0.1349 -0.4507 -0.1920
 3901TIP3    H111709   3.435   5.489   3.121 -0.0349  0.7815  1.9162
 3901TIP3    H211710   3.548   5.417   3.049 -2.4555 -0.3608 -0.9829
 3902TIP3   OH211711   5.295   0.470   0.752 -0.1305 -0.5208 -0.3795
 3902TIP3    H111712   5.239   0.543   0.777  2.1980  1.5736 -0.8907
 3902TIP3    H211713   5.377   0.485   0.799  0.7687 -2.2896 -1.2644
 3903TIP3   OH211714   5.864   4.179   3.693 -0.0535  0.2882  0.5644
 3903TIP3    H111715   5.909   4.150   3.772 -1.0714 -1.0127  0.6960
 3903TIP3    H211716   5.849   4.273   3.706  1.6551  0.5355  0.9600
 3904TIP3   OH211717   1.632   0.308   3.825  0.1366  0.0721  0.4023
 3904TIP3    H111718   1.561   0.284   3.765 -0.6455  2.1242  0.4158
 3904TIP3    H211719   1.701   0.343   3.769  0.2669  0.0471  0.5448
 3905TIP3   OH211720   3.650   4.066   4.523  0.4139  0.3484 -0.0466
 3905TIP3    H111721   3.572   4.058   4.467  0.1106 -1.3662  0.5677
 3905TIP3    H211722   3.626   4.132   4.587 -0.2012  0.4793 -0.4000
 3906TIP3   OH211723   4.024   4.175   2.940  0.1299 -0.2567 -0.4064
 3906TIP3    H111724   4.037   4.209   3.028  2.1605 -0.2371 -0.6614
 3906TIP3    H211725   4.076   4.233   2.884 -1.0243 -0.3359 -1.6200
 3907TIP3   OH211726   0.077   2.817   4.813  0.3331  0.2804 -0.2128
 3907TIP3    H111727   0.095   2.828   4.720 -1.4895  1.3685 -0.4899
 3907TIP3    H211728   0.062   2.906   4.846  0.5937 -0.1152  1.0396
 3908TIP3   OH211729   2.072   1.614   3.790 -0.5270 -0.6828  0.2989
 3908TIP3    H111730   2.013   1.624   3.865  1.1517  0.9968  1.4722
 3908TIP3    H211731   2.160   1.615   3.828  0.5175  2.5459 -1.7746
 3909TIP3   OH211732   1.631   2.845   3.902 -0.6442  0.7095 -0.1192
 3909TIP3    H111733   1.563   2.789   3.938 -0.6753  0.5909 -0.3637
 3909TIP3    H211734   1.606   2.934   3.928 -0.0099  0.5264  1.2360
 3910TIP3   OH211735   3.858   2.014   0.990 -0.0583  0.4362  0.2255
 3910TIP3    H111736   3.857   2.109   1.000  1.7877  0.7805 -1.9057
 3910TIP3    H211737   3.812   1.997   0.907 -1.3930 -0.6714  1.1488
 3911TIP3   OH211738   0.521   1.267   1.692 -0.3636  0.3994  0.3731
 3911TIP3    H111739   0.578   1.344   1.687  0.5166 -0.0730  2.3272
 3911TIP3    H211740   0.462   1.285   1.765 -0.0035 -0.8492  0.9995
 3912TIP3   OH211741   4.135   1.989   3.323  0.0917 -0.0324 -0.2054
 3912TIP3    H111742   4.114   2.033   3.240 -0.4544 -0.6405 -0.3970
 3912TIP3    H211743   4.214   2.033   3.354  0.4341  0.0522 -1.1649
 3913TIP3   OH211744   4.691   0.031   1.720  0.4695  0.1759  0.1839
 3913TIP3    H111745   4.631   0.015   1.793  0.7288  0.7037  0.5242
 3913TIP3    H211746   4.743   0.107   1.748  1.2309 -0.2107 -0.1395
 3914TIP3   OH211747   1.535   3.696   2.531 -0.0565  0.2549  0.3873
 3914TIP3    H111748   1.557   3.764   2.594 -0.7311  0.7220  0.1279
 3914TIP3    H211749   1.620   3.659   2.505  0.3580  1.3488  0.1403
 3915TIP3   OH211750   0.251   2.768   0.695 -0.5965  0.5112 -0.1575
 3915TIP3    H111751   0.212   2.756   0.608 -1.2849  0.0840  0.2045
 3915TIP3    H211752   0.328   2.822   0.678 -0.6835  0.3868 -1.0456
 3916TIP3   OH211753   0.172   3.155   2.962  0.1218 -0.0811 -0.2250
 3916TIP3    H111754   0.107   3.106   2.912 -0.1542  0.5263 -0.4736
 3916TIP3    H211755   0.230   3.193   2.895  1.9559 -2.2197  0.0317
 3917TIP3   OH211756   5.118   2.600   0.101  0.7674 -0.2344 -0.4384
 3917TIP3    H111757   5.108   2.548   0.021 -0.9544  0.5986 -0.8103
 3917TIP3    H211758   5.059   2.674   0.089 -0.7848 -0.9016  2.2768
 3918TIP3   OH211759   3.537   1.095   2.449 -0.3110  0.1297 -0.6535
 3918TIP3    H111760   3.604   1.035   2.417  0.3892  0.6417 -0.1834
 3918TIP3    H211761   3.454   1.052   2.429  0.1624 -0.5968 -1.0805
 3919TIP3   OH211762   4.129   0.179   3.144  0.2846  0.0235 -0.1334
 3919TIP3    H111763   4.120   0.108   3.207 -1.9714  0.2148 -0.1516
 3919TIP3    H211764   4.045   0.226   3.148  0.9461  1.4422 -1.5896
 3920TIP3   OH211765   4.090   5.553   1.361  0.4383  0.3081  0.3878
 3920TIP3    H111766   4.000   5.572   1.333 -0.1722 -1.4833  1.0093
 3920TIP3    H211767   4.116   5.631   1.410 -0.4957  1.1637 -0.4050
 3921TIP3   OH211768   3.012   3.164   2.245 -0.3907  0.4075 -0.1160
 3921TIP3    H111769   3.058   3.223   2.305  1.5300  0.4487 -1.5630
 3921TIP3    H211770   2.999   3.084   2.295  1.6389  0.2579  0.2310
 3922TIP3   OH211771   1.782   4.875   0.414 -0.4310  0.2191  0.6363
 3922TIP3    H111772   1.788   4.823   0.495  0.5874 -0.4958  0.1219
 3922TIP3    H211773   1.689   4.896   0.406 -0.9637 -1.9125  0.6413
 3923TIP3   OH211774   2.005   0.310   0.602  0.4524 -0.1351  0.1669
 3923TIP3    H111775   1.948   0.343   0.671 -0.7008  0.5202 -1.0599
 3923TIP3    H211776   1.965   0.227   0.575  1.2652 -0.7204  0.7047
 3924TIP3   OH211777   1.577   2.122   0.416 -0.2979 -0.1771 -0.0561
 3924TIP3    H111778   1.637   2.059   0.455  1.8957  1.2887 -0.8451
 3924TIP3    H211779   1.527   2.072   0.351  0.5744 -1.3059  0.1199
 3925TIP3   OH211780   0.397   4.279   3.960  0.0585 -0.1038  0.5484
 3925TIP3    H111781   0.334   4.210   3.937 -1.1997  1.0720  0.3234
 3925TIP3    H211782   0.464   4.275   3.893 -0.8187 -0.1322 -0.3487
 3926TIP3   OH211783   0.208   3.653   3.339 -0.8402 -0.3208 -0.2138
 3926TIP3    H111784   0.143   3.594   3.378 -0.6262 -0.4763 -0.0905
 3926TIP3    H211785   0.248   3.601   3.269  0.0265 -0.6635  0.5143
 3927TIP3   OH211786   3.661   3.840   1.899 -0.0237  0.1531 -0.7677
 3927TIP3    H111787   3.687   3.827   1.808  1.1795 -0.0754 -0.4072
 3927TIP3    H211788   3.739   3.873   1.942 -1.0756  2.0170 -0.1632
 3928TIP3   OH211789   0.460   1.311   0.313  0.2905 -0.0480 -0.1385
 3928TIP3    H111790   0.546   1.351   0.304  0.5089 -0.6403 -0.7784
 3928TIP3    H211791   0.455   1.283   0.405  0.8801 -0.2415 -0.1654
 3929TIP3   OH211792   4.155   5.922   4.108  0.0837  0.1458 -0.0826
 3929TIP3    H111793   4.242   5.884   4.096 -0.0343  0.2240 -1.2887
 3929TIP3    H211794   4.100   5.879   4.042 -0.8438 -0.0448  0.7849
 3930TIP3   OH211795   6.109   2.119   2.540 -0.3968  0.3723 -0.1775
 3930TIP3    H111796   6.095   2.032   2.504  0.6792 -0.1681  0.6372
 3930TIP3    H211797   6.080   2.113   2.631 -2.4040  1.5156 -0.6919
 3931TIP3   OH211798   5.607   5.083   2.919 -0.2716 -0.5378  0.2339
 3931TIP3    H111799   5.573   5.173   2.916  0.0158 -0.4225  0.4084
 3931TIP3    H211800   5.603   5.059   3.011  2.1572  0.2750  0.6171
 3932TIP3   OH211801   2.174   3.804   0.606 -0.2912 -0.2950  0.0786
 3932TIP3    H111802   2.214   3.834   0.524  0.1214 -0.8349  0.0722
 3932TIP3    H211803   2.162   3.883   0.658  0.4026 -0.0648 -0.0979
 3933TIP3   OH211804   4.937   2.369   4.067 -1.0193 -0.1331 -0.0666
 3933TIP3    H111805   4.887   2.449   4.084 -0.9229 -0.1426  0.2529
 3933TIP3    H211806   5.010   2.399   4.013 -1.1496 -0.0550 -0.2024
 3934TIP3   OH211807   2.769   2.673   1.363  0.8062 -0.3686  0.1070
 3934TIP3    H111808   2.681   2.645   1.337  1.1842 -1.2179 -0.2868
 3934TIP3    H211809   2.758   2.707   1.452  0.4755 -2.7530  1.0751
 3935TIP3   OH211810   5.892   5.717   2.140 -0.3208 -0.2525 -0.3592
 3935TIP3    H111811   5.935   5.793   2.101 -0.5468  0.4918  0.7968
 3935TIP3    H211812   5.801   5.725   2.113 -0.3196 -0.1782 -0.3417
 3936TIP3   OH211813   1.748   0.515   2.014 -0.0342 -0.5797  0.1322
 3936TIP3    H111814   1.810   0.588   2.010 -0.0208 -0.2648  3.3142
 3936TIP3    H211815   1.754   0.483   2.104 -2.3912 -2.4392 -0.2540
 3937TIP3   OH211816   5.968   2.605   3.500 -0.5637 -0.0763 -0.2153
 3937TIP3    H111817   6.012   2.682   3.462 -0.4909  0.0061  0.0277
 3937TIP3    H211818   5.963   2.542   3.429 -1.0947  0.3496 -0.5612
 3938TIP3   OH211819   0.210   5.031   0.653  0.4114 -0.4774  0.4140
 3938TIP3    H111820   0.219   4.937   0.669  1.4251 -0.8045 -1.7353
 3938TIP3    H211821   0.137   5.038   0.591  0.5780  0.1430  0.2809
 3939TIP3   OH211822   2.406   1.811   1.898 -0.4127 -0.2916  0.1327
 3939TIP3    H111823   2.370   1.770   1.820  2.5389  0.3857 -1.7531
 3939TIP3    H211824   2.400   1.905   1.882 -2.2063 -0.0107  2.0112
 3940TIP3   OH211825   4.092   4.341   2.608  0.2242 -0.1805 -0.0021
 3940TIP3    H111826   4.034   4.276   2.567 -1.1927 -0.5750  2.4085
 3940TIP3    H211827   4.047   4.424   2.596  0.5366 -0.0812 -0.4945
 3941TIP3   OH211828   0.911   0.152   4.578  0.6861 -0.2264 -0.2812
 3941TIP3    H111829   0.860   0.083   4.621  0.8083 -1.2236 -1.6605
 3941TIP3    H211830   0.890   0.143   4.485  1.0931  1.2944 -0.5486
 3942TIP3   OH211831   3.342   5.069   0.284  0.7767 -0.5526 -0.4487
 3942TIP3    H111832   3.367   4.982   0.316  1.5032 -0.3581 -0.4767
 3942TIP3    H211833   3.296   5.109   0.358  2.6655 -0.0067  0.5145
 3943TIP3   OH211834   3.048   4.315   4.019  0.0719  0.4408  0.4800
 3943TIP3    H111835   3.111   4.380   4.050 -1.5578  1.4120  1.8496
 3943TIP3    H211836   3.075   4.234   4.062  1.5000  0.3668 -0.4566
 3944TIP3   OH211837   4.641   3.915   0.733 -0.7668  0.2320 -0.2387
 3944TIP3    H111838   4.619   4.003   0.762 -0.3737  0.2269  0.0951
 3944TIP3    H211839   4.634   3.861   0.812  1.3590  0.4113  0.1465
 3945TIP3   OH211840   4.446   5.436   1.699  0.1606  0.2274  0.0586
 3945TIP3    H111841   4.461   5.470   1.611 -0.4268 -0.2476 -0.2369
 3945TIP3    H211842   4.419   5.345   1.685  2.3650 -0.5994  0.8627
 3946TIP3   OH211843   3.193   2.191   1.198 -0.0367 -0.1000  0.0589
 3946TIP3    H111844   3.218   2.272   1.243  0.9697  0.4475 -1.4297
 3946TIP3    H211845   3.170   2.218   1.109  1.2066 -1.5428 -0.7479
 3947TIP3   OH211846   0.286   1.690   4.079  0.6431 -0.5665  0.1178
 3947TIP3    H111847   0.252   1.637   4.151 -0.3953 -0.4049 -0.2405
 3947TIP3    H211848   0.381   1.689   4.092  0.5504 -1.4298  0.8634
 3948TIP3   OH211849   5.872   1.670   2.757  0.1111 -0.4102 -0.8832
 3948TIP3    H111850   5.877   1.609   2.830  1.2312  0.8471  0.1568
 3948TIP3    H211851   5.778   1.682   2.741 -0.1254 -1.6701 -0.5204
 3949TIP3   OH211852   5.822   2.043   3.271 -0.5382 -0.4320  0.1232
 3949TIP3    H111853   5.815   2.115   3.208 -2.5192  0.0184  0.7963
 3949TIP3    H211854   5.911   2.008   3.257 -0.3143  0.7175 -1.7267
 3950TIP3   OH211855   2.119   2.214   2.029 -0.2068  0.1597 -0.4906
 3950TIP3    H111856   2.215   2.216   2.031 -0.1777 -0.8434  0.0214
 3950TIP3    H211857   2.092   2.294   2.075  0.3777  0.6168 -0.9336
 3951TIP3   OH211858   4.186   5.370   4.662 -0.7526  0.3300 -0.0585
 3951TIP3    H111859   4.161   5.280   4.640 -1.0915  0.3597  0.1886
 3951TIP3    H211860   4.279   5.375   4.643 -0.6168 -0.2368  0.4482
 3952TIP3   OH211861   3.063   1.836   0.132 -0.0592  0.5457 -0.3129
 3952TIP3    H111862   3.061   1.900   0.061  0.9424  0.6206 -0.2802
 3952TIP3    H211863   2.989   1.778   0.113  0.7444  0.0020 -1.9521
 3953TIP3   OH211864   5.651   5.031   3.199  0.2039  0.0429 -0.5452
 3953TIP3    H111865   5.667   5.064   3.287 -0.5431  2.8307 -1.3603
 3953TIP3    H211866   5.737   5.032   3.157  0.2539  0.5374 -0.4302
 3954TIP3   OH211867   3.538   0.549   4.162 -0.0042  0.4751  0.1375
 3954TIP3    H111868   3.453   0.594   4.160 -1.2714 -1.7888 -0.3499
 3954TIP3    H211869   3.532   0.484   4.092  1.9109 -0.1970  0.5437
 3955TIP3   OH211870   0.307   4.761   0.949  0.3161 -0.6360 -0.2169
 3955TIP3    H111871   0.250   4.808   1.010  1.4012  0.5595 -0.0839
 3955TIP3    H211872   0.336   4.685   0.998  0.2396 -0.3101  0.3487
 3956TIP3   OH211873   1.038   5.579   2.901  0.1811 -0.1389 -0.2757
 3956TIP3    H111874   1.030   5.596   2.995  0.3681 -1.2526 -0.0501
 3956TIP3    H211875   1.051   5.484   2.895  0.9412  0.0210 -1.3729
 3957TIP3   OH211876   4.544   3.673   2.948 -0.1575  0.3516  0.5427
 3957TIP3    H111877   4.606   3.656   2.877  0.9734  0.5702  1.4444
 3957TIP3    H211878   4.499   3.754   2.921  0.6475  0.7385  0.3283
 3958TIP3   OH211879   5.387   2.535   0.265  0.3976  0.5337  0.1740
 3958TIP3    H111880   5.314   2.539   0.328 -0.5640 -0.1893 -0.8519
 3958TIP3    H211881   5.354   2.581   0.188  0.4871 -0.9434 -0.7916
 3959TIP3   OH211882   4.362   5.745   2.574  0.3522 -0.4600 -0.2688
 3959TIP3    H111883   4.392   5.826   2.533  0.6816 -0.4688 -0.0440
 3959TIP3    H211884   4.306   5.704   2.507 -0.7222  0.4846  0.0238
 3960TIP3   OH211885   5.183   4.011   3.199 -0.0643  0.3502  0.1140
 3960TIP3    H111886   5.213   3.981   3.285  0.8538  0.0196 -0.3142
 3960TIP3    H211887   5.132   4.090   3.219 -1.5396 -0.8047  1.1323
 3961TIP3   OH211888   1.677   0.981   3.928  0.5441  0.2608 -0.2593
 3961TIP3    H111889   1.768   1.003   3.946  0.7975  0.8956 -2.0919
 3961TIP3    H211890   1.633   1.066   3.918 -0.2345 -0.0394  0.4309
 3962TIP3   OH211891   1.159   4.124   2.050  0.4963 -0.3742  0.0820
 3962TIP3    H111892   1.089   4.189   2.059  1.4594  0.4200  2.4260
 3962TIP3    H211893   1.118   4.041   2.075  0.4400  0.1500  1.8254
 3963TIP3   OH211894   3.102   4.113   3.398 -0.0819 -0.5750  0.3379
 3963TIP3    H111895   3.118   4.020   3.411 -0.0603 -0.7540 -0.8412
 3963TIP3    H211896   3.007   4.119   3.388 -0.1603 -0.3610  1.1711
 3964TIP3   OH211897   2.922   3.785   0.451 -0.1801 -0.0633 -0.1305
 3964TIP3    H111898   2.846   3.742   0.490 -1.1823  0.7933 -1.0760
 3964TIP3    H211899   2.907   3.782   0.357  1.8561 -1.4573 -0.4866
 3965TIP3   OH211900   4.181   3.515   4.627 -0.5312  0.0254  0.2247
 3965TIP3    H111901   4.183   3.429   4.584  0.4901 -0.8090  1.8262
 3965TIP3    H211902   4.264   3.556   4.603 -0.3774 -0.0561  0.5983
 3966TIP3   OH211903   3.095   1.351   3.247 -0.5038 -0.3982 -0.4045
 3966TIP3    H111904   3.179   1.315   3.218 -0.4829  0.7636 -1.8812
 3966TIP3    H211905   3.108   1.369   3.340  0.5275 -1.1851 -0.3721
 3967TIP3   OH211906   4.467   0.592   0.760  0.4034 -0.1434  0.0086
 3967TIP3    H111907   4.408   0.627   0.827  0.5391  0.0828  0.0116
 3967TIP3    H211908   4.513   0.669   0.726  1.5079 -0.4381  0.7863
 3968TIP3   OH211909   2.764   2.802   4.618 -0.1483 -0.0621  0.5089
 3968TIP3    H111910   2.858   2.785   4.611 -0.1703 -0.7059  1.5368
 3968TIP3    H211911   2.756   2.897   4.611  0.4546 -0.0800 -0.7357
 3969TIP3   OH211912   5.022   3.604   0.409 -0.3446  0.0247  0.4255
 3969TIP3    H111913   5.029   3.509   0.418  0.2357  0.1093  0.9304
 3969TIP3    H211914   5.009   3.635   0.498 -0.3043  0.4418  0.2873
 3970TIP3   OH211915   5.389   3.923   3.040  0.0528  0.5670 -0.0710
 3970TIP3    H111916   5.314   3.937   3.098 -1.1974  3.1066 -2.0877
 3970TIP3    H211917   5.363   3.848   2.986 -0.8773  1.1385 -0.4476
 3971TIP3   OH211918   0.099   1.279   2.527  1.0081  0.6250 -0.2336
 3971TIP3    H111919   0.135   1.361   2.562 -0.7674  0.9198  1.0208
 3971TIP3    H211920   0.080   1.226   2.604  0.2296 -0.1350 -0.9301
 3972TIP3   OH211921   5.057   3.632   4.174  0.6003 -0.0503 -0.2440
 3972TIP3    H111922   5.075   3.586   4.256 -0.6690 -1.4425 -0.6921
 3972TIP3    H211923   5.048   3.562   4.109  0.4763  0.9541 -1.3520
 3973TIP3   OH211924   5.156   5.406   1.288  0.7566 -0.0158  0.1654
 3973TIP3    H111925   5.234   5.459   1.307  2.0312 -1.0803 -1.6798
 3973TIP3    H211926   5.160   5.335   1.352  2.7355 -1.3633 -1.2890
 3974TIP3   OH211927   3.634   2.568   2.402  0.3021 -0.2193 -0.2807
 3974TIP3    H111928   3.729   2.578   2.411  0.1926  4.0409 -1.3819
 3974TIP3    H211929   3.598   2.627   2.469 -1.5039 -0.5195 -0.9279
 3975TIP3   OH211930   0.177   1.684   2.819  0.7412 -0.0458 -0.5351
 3975TIP3    H111931   0.225   1.764   2.798 -1.0618  0.8256 -1.5694
 3975TIP3    H211932   0.105   1.713   2.875  0.2971 -1.0134 -0.5817
 3976TIP3   OH211933   4.394   4.025   5.074  0.3879  0.1046 -0.1039
 3976TIP3    H111934   4.301   4.042   5.060  0.5506  0.4682 -0.8227
 3976TIP3    H211935   4.397   3.938   5.113 -0.2612  0.1673  0.0943
 3977TIP3   OH211936   5.217   3.516   2.511  0.1717 -0.3678  0.0512
 3977TIP3    H111937   5.249   3.497   2.599  0.4994  2.5204  0.6489
 3977TIP3    H211938   5.252   3.603   2.491 -1.4343 -0.1512 -2.1913
 3978TIP3   OH211939   5.261   0.308   2.419  0.6714 -0.1556 -0.2400
 3978TIP3    H111940   5.197   0.259   2.471  2.7749 -0.6263  2.1064
 3978TIP3    H211941   5.217   0.391   2.400 -2.2874 -2.0689 -2.7570
 3979TIP3   OH211942   5.420   5.254   2.557 -0.1963 -0.0138  0.2458
 3979TIP3    H111943   5.395   5.345   2.538 -1.1378 -0.5140 -1.1381
 3979TIP3    H211944   5.511   5.248   2.527 -1.1243 -0.3189 -2.8622
 3980TIP3   OH211945   0.115   4.578   2.268  0.0751  0.2742 -0.0225
 3980TIP3    H111946   0.125   4.572   2.363  1.6201 -0.0965 -0.1919
 3980TIP3    H211947   0.034   4.529   2.250 -0.1222  0.1754  1.0673
 3981TIP3   OH211948   0.106   5.508   4.165 -0.4027 -0.0575  0.0015
 3981TIP3    H111949   0.123   5.472   4.252  0.1575  1.1864  0.4257
 3981TIP3    H211950   0.165   5.583   4.158 -1.0848  0.4018 -1.1023
 3982TIP3   OH211951   3.397   3.621   4.079 -0.9025  0.0965  0.3089
 3982TIP3    H111952   3.312   3.582   4.060 -0.5872 -0.5532  0.2169
 3982TIP3    H211953   3.421   3.586   4.165 -1.1102  0.9435  0.7229
 3983TIP3   OH211954   4.115   3.332   2.371  0.6216 -0.0754 -0.0085
 3983TIP3    H111955   4.048   3.356   2.436  0.8966 -0.3112  0.3681
 3983TIP3    H211956   4.191   3.308   2.423  0.0449 -2.8088 -0.2657
 3984TIP3   OH211957   3.210   1.781   1.413 -0.2234  0.2473 -0.2760
 3984TIP3    H111958   3.172   1.816   1.493 -0.2297  1.5322 -0.8071
 3984TIP3    H211959   3.153   1.814   1.343 -0.2232 -0.8453 -0.8195
 3985TIP3   OH211960   4.264   2.326   0.317  0.2450  0.2365 -0.5253
 3985TIP3    H111961   4.176   2.306   0.284 -0.3798 -0.5992  1.4680
 3985TIP3    H211962   4.321   2.318   0.240 -1.0750 -1.8267 -1.3818
 3986TIP3   OH211963   0.295   3.001   0.185  0.3650 -0.6370  0.5614
 3986TIP3    H111964   0.230   2.951   0.136  1.7553 -1.5785 -0.4158
 3986TIP3    H211965   0.262   3.003   0.275  0.7570 -4.3667  0.9379
 3987TIP3   OH211966   0.881   1.991   0.055 -0.5692 -0.3299  0.1377
 3987TIP3    H111967   0.942   2.045   0.006  0.5347 -0.1856  1.6095
 3987TIP3    H211968   0.804   1.985  -0.002 -0.3554  1.9572 -0.4901
 3988TIP3   OH211969   1.341   3.409   1.586 -0.6197  0.0895 -0.0342
 3988TIP3    H111970   1.365   3.385   1.497 -1.5262  1.0934 -0.5651
 3988TIP3    H211971   1.259   3.457   1.577  0.1815  1.8069  1.1299
 3989TIP3   OH211972   2.271   3.889   1.844  0.1449 -0.0327  0.2853
 3989TIP3    H111973   2.328   3.892   1.921  0.7211 -1.2793 -0.0641
 3989TIP3    H211974   2.331   3.885   1.770 -0.3898 -0.6698 -0.1271
 3990TIP3   OH211975   0.434   2.799   5.047  0.0018  0.9693 -0.2191
 3990TIP3    H111976   0.497   2.845   5.103 -0.5002  1.9487 -0.4505
 3990TIP3    H211977   0.487   2.768   4.973  0.5217  0.3352  0.3996
 3991TIP3   OH211978   0.535   1.548   1.102 -0.1120 -0.0802 -0.8306
 3991TIP3    H111979   0.538   1.509   1.189 -0.3775  3.1341  0.7888
 3991TIP3    H211980   0.466   1.614   1.109 -1.2706 -0.7829 -4.0405
 3992TIP3   OH211981   5.481   0.700   3.786  0.1884 -0.4106 -0.1703
 3992TIP3    H111982   5.467   0.750   3.706 -0.1275 -0.8654 -0.4030
 3992TIP3    H211983   5.398   0.654   3.801  0.7204 -1.4980 -0.4115
 3993TIP3   OH211984   4.687   0.691   1.978  0.4944  0.4311 -0.2032
 3993TIP3    H111985   4.649   0.686   1.891 -0.7998  0.3447  0.3403
 3993TIP3    H211986   4.698   0.785   1.994 -0.6549  0.5299  0.0948
 3994TIP3   OH211987   5.281   1.986   3.143 -0.1901 -0.4481 -0.6743
 3994TIP3    H111988   5.335   2.064   3.128 -1.4444  0.4716 -0.6565
 3994TIP3    H211989   5.194   2.012   3.112 -0.3598 -2.3168 -1.9214
 3995TIP3   OH211990   3.086   4.836   1.646 -0.5228 -0.3129  0.2960
 3995TIP3    H111991   3.057   4.911   1.699  0.3285  0.1090  0.1754
 3995TIP3    H211992   3.010   4.778   1.645 -0.7066 -0.1326  1.6156
 3996TIP3   OH211993   1.520   4.796   3.016 -0.6161  0.2252  0.2273
 3996TIP3    H111994   1.576   4.812   3.092 -1.3411  0.8812  0.6425
 3996TIP3    H211995   1.436   4.835   3.040 -1.9296 -2.5093  0.4662
 3997TIP3   OH211996   3.422   3.786   4.492  0.3817  0.0783  0.0588
 3997TIP3    H111997   3.383   3.703   4.519  1.8849 -0.9673 -0.8683
 3997TIP3    H211998   3.407   3.790   4.397  3.1086 -0.7539 -0.4828
 3998TIP3   OH211999   2.560   2.028   3.977  0.4807  0.0349 -0.0647
 3998TIP3    H112000   2.582   1.960   3.913 -0.7797  0.0674 -0.5795
 3998TIP3    H212001   2.643   2.052   4.017  1.0218 -1.4599 -0.2298
 3999TIP3   OH212002   0.540   5.802   1.960 -0.1260 -1.3569  0.2076
 3999TIP3    H112003   0.545   5.776   1.868  1.8615  1.3047 -0.5590
 3999TIP3    H212004   0.630   5.798   1.992 -0.2205  0.8797  0.9995
 4000TIP3   OH212005   3.727   4.704   1.150  0.2366  0.3042  0.0038
 4000TIP3    H112006   3.819   4.691   1.172  0.2598 -2.1039 -1.1342
 4000TIP3    H212007   3.728   4.765   1.076  0.9484  0.2586 -0.0300
 4001TIP3   OH212008   0.510   2.093   0.237 -0.1218 -0.0364 -0.5335
 4001TIP3    H112009   0.491   2.154   0.166 -0.5464 -2.2972 -2.4916
 4001TIP3    H212010   0.604   2.077   0.230  0.0272  0.4922  0.1124
 4002TIP3   OH212011   3.583   0.826   4.196 -0.3248 -0.1006 -0.6471
 4002TIP3    H112012   3.581   0.876   4.114 -1.8378  2.2175  0.6916
 4002TIP3    H212013   3.559   0.737   4.170 -1.6904  0.7684 -2.6188
 4003TIP3   OH212014   5.755   4.627   2.564  0.4474 -0.2106 -0.0037
 4003TIP3    H112015   5.745   4.542   2.521  3.1301 -0.1894 -0.8187
 4003TIP3    H212016   5.724   4.690   2.499 -0.9468 -0.4831  0.3615
 4004TIP3   OH212017   2.096   1.410   4.498 -0.0080 -0.3941 -0.4608
 4004TIP3    H112018   2.080   1.322   4.530  0.4401  0.1815  1.4768
 4004TIP3    H212019   2.076   1.467   4.572  2.0242  0.9636 -0.8498
 4005TIP3   OH212020   4.522   1.856   4.260  0.0867  0.2832 -0.5120
 4005TIP3    H112021   4.450   1.886   4.316  0.6585  1.0231 -0.1615
 4005TIP3    H212022   4.566   1.936   4.231  0.3626 -0.1320 -1.2768
 4006TIP3   OH212023   1.572   0.669   2.697 -0.4724  0.9497 -0.1425
 4006TIP3    H112024   1.646   0.646   2.641  0.2616  1.6573  0.5297
 4006TIP3    H212025   1.590   0.758   2.727 -1.1835  0.8260  0.6953
 4007TIP3   OH212026   0.684   1.883   0.883  0.3463 -0.4235  0.1999
 4007TIP3    H112027   0.617   1.895   0.950  0.8329 -3.8086  1.4655
 4007TIP3    H212028   0.636   1.890   0.800 -1.1252 -0.4944  1.0159
 4008TIP3   OH212029   0.006   2.460   4.848 -0.0816 -0.3453  0.6810
 4008TIP3    H112030   0.083   2.411   4.873 -0.4125 -1.2215  0.0479
 4008TIP3    H212031  -0.052   2.455   4.924  0.9127  1.2844  1.5930
 4009TIP3   OH212032   1.218   0.233   0.993 -0.1818  0.0132 -0.3644
 4009TIP3    H112033   1.170   0.316   0.996  0.0855  0.2337 -1.6757
 4009TIP3    H212034   1.204   0.195   1.080 -0.4665  1.3306  0.1981
 4010TIP3   OH212035   4.426   4.921   3.847 -0.2291 -0.0390 -0.2576
 4010TIP3    H112036   4.441   4.977   3.923 -0.5913  1.0565 -0.9768
 4010TIP3    H212037   4.376   4.847   3.881  0.6958 -0.1987  0.8006
 4011TIP3   OH212038   1.767   4.784   3.556 -0.2720  0.3783  0.3325
 4011TIP3    H112039   1.719   4.797   3.638 -1.1033 -0.1323 -0.0595
 4011TIP3    H212040   1.725   4.843   3.493  0.2722  0.6664  0.2230
 4012TIP3   OH212041   0.074   4.491   3.001  0.6806 -0.0211  0.0297
 4012TIP3    H112042   0.016   4.419   2.978  1.6272 -0.3155 -1.5768
 4012TIP3    H212043   0.020   4.549   3.055 -1.0510 -0.3866 -1.2296
 4013TIP3   OH212044   2.705   3.955   1.136  0.3531 -0.1469 -0.2030
 4013TIP3    H112045   2.707   3.989   1.047 -1.8577  1.3393  0.2301
 4013TIP3    H212046   2.644   3.881   1.132 -1.3041  1.1106  0.3523
 4014TIP3   OH212047   2.658   5.137   1.729 -0.8035 -0.0633  0.0111
 4014TIP3    H112048   2.750   5.158   1.716 -0.5613 -0.2646  1.2855
 4014TIP3    H212049   2.616   5.221   1.746 -0.5635 -0.1329  1.0018
 4015TIP3   OH212050   4.156   4.965   1.213  0.2062  0.0329  0.1098
 4015TIP3    H112051   4.132   5.037   1.271  1.4868  1.0609 -0.6128
 4015TIP3    H212052   4.148   5.001   1.125  3.9513  0.3975 -0.2273
 4016TIP3   OH212053   5.334   4.428   2.423 -0.2404  0.0171  0.4055
 4016TIP3    H112054   5.322   4.423   2.328 -0.0035 -0.7900  0.4118
 4016TIP3    H212055   5.257   4.385   2.459 -0.5185  0.6619  0.5952
 4017TIP3   OH212056   2.388   3.591   3.344 -0.1412 -0.1794  0.0762
 4017TIP3    H112057   2.382   3.546   3.259 -0.0610 -0.1903  0.0762
 4017TIP3    H212058   2.318   3.553   3.397  0.3822 -0.8105  0.3148
 4018TIP3   OH212059   0.812   4.143   4.438  0.1148  0.6665  0.3697
 4018TIP3    H112060   0.851   4.065   4.397 -1.9121 -0.8224  1.1117
 4018TIP3    H212061   0.835   4.215   4.379  0.1903 -0.8431 -1.5541
 4019TIP3   OH212062   3.152   1.930   1.131  0.4081  0.1074  0.5985
 4019TIP3    H112063   3.215   1.861   1.153  0.5573  0.2637  0.6674
 4019TIP3    H212064   3.187   2.009   1.173 -0.6295 -0.1145  1.9399
 4020TIP3   OH212065   0.756   5.951   1.730  0.2224 -0.0671  0.1424
 4020TIP3    H112066   0.701   5.887   1.684 -1.5425 -0.2167  2.3238
 4020TIP3    H212067   0.776   5.910   1.814  2.0722  0.8156  0.1766
 4021TIP3   OH212068   5.870   1.404   4.089  0.3379 -0.3473  0.0381
 4021TIP3    H112069   5.921   1.339   4.040 -0.4462 -0.4261 -0.6923
 4021TIP3    H212070   5.934   1.469   4.116  1.2995 -1.8288  1.5139
 4022TIP3   OH212071   1.881   0.381   3.689  0.5008 -0.9243  0.3806
 4022TIP3    H112072   1.890   0.461   3.637 -0.3110  0.3751  2.1135
 4022TIP3    H212073   1.921   0.313   3.636  0.3931  0.4511 -1.5817
 4023TIP3   OH212074   2.669   4.393   3.456  0.0062  0.1613 -0.3336
 4023TIP3    H112075   2.686   4.453   3.383 -0.8051  2.3561  1.1520
 4023TIP3    H212076   2.692   4.444   3.534  1.1806 -2.2159  0.9679
 4024TIP3   OH212077   0.832   0.279   3.597 -0.3539 -0.0630 -0.2088
 4024TIP3    H112078   0.754   0.233   3.567 -0.9667  1.0607 -0.3747
 4024TIP3    H212079   0.803   0.328   3.675 -0.4262  2.1230 -1.5330
 4025TIP3   OH212080   5.355   0.953   1.449 -0.0209 -0.0781  0.5571
 4025TIP3    H112081   5.413   0.978   1.377 -0.7549 -0.0621 -0.0394
 4025TIP3    H212082   5.414   0.917   1.516  0.5267 -1.5248 -0.6490
 4026TIP3   OH212083   0.624   3.236   0.204  0.3543  0.0014 -0.1244
 4026TIP3    H112084   0.688   3.168   0.184  0.0729 -0.6939  1.2079
 4026TIP3    H212085   0.561   3.231   0.132  0.2991 -1.2148 -0.0133
 4027TIP3   OH212086   1.310   3.558   3.607 -0.1441 -0.2354 -0.1533
 4027TIP3    H112087   1.383   3.501   3.631  0.6629  0.9150  0.2009
 4027TIP3    H212088   1.246   3.499   3.568  1.2538 -1.1827 -1.1195
 4028TIP3   OH212089   4.038   3.121   1.686  0.2207  0.0573 -0.7980
 4028TIP3    H112090   3.969   3.071   1.728 -0.0505  1.9423  1.1829
 4028TIP3    H212091   4.038   3.205   1.732  0.2722  2.1219 -4.2243
 4029TIP3   OH212092   1.428   0.874   2.328  0.4795  0.3042  0.2121
 4029TIP3    H112093   1.443   0.815   2.255 -0.4730  0.6478 -0.2776
 4029TIP3    H212094   1.430   0.817   2.405  1.6551 -0.0327 -0.0496
 4030TIP3   OH212095   0.465   4.856   3.593 -0.1866 -0.1181 -0.0497
 4030TIP3    H112096   0.495   4.942   3.622  1.3335 -1.0091  1.2183
 4030TIP3    H212097   0.407   4.825   3.662 -0.8705 -0.0513 -0.5846
 4031TIP3   OH212098   1.782   2.562   2.751 -0.7258 -0.2480  0.4208
 4031TIP3    H112099   1.849   2.510   2.796  0.2207  0.6627  0.1108
 4031TIP3    H212100   1.795   2.651   2.784  0.4995  0.6134 -2.1341
 4032TIP3   OH212101   5.899   5.637   4.892  0.1355 -0.0614  0.2297
 4032TIP3    H112102   5.940   5.708   4.941  2.8293 -1.6680  0.4966
 4032TIP3    H212103   5.892   5.565   4.955 -2.4749 -0.1467 -0.0390
 4033TIP3   OH212104   5.177   1.127   4.219  0.2668  0.4861 -0.4489
 4033TIP3    H112105   5.116   1.073   4.168  0.3853  0.7055 -0.8253
 4033TIP3    H212106   5.217   1.186   4.155 -0.3524  1.4853  0.0535
 4034TIP3   OH212107   1.685   3.113   3.779  0.2108 -0.2586 -0.6359
 4034TIP3    H112108   1.592   3.091   3.769 -0.2659  0.4346  1.6697
 4034TIP3    H212109   1.724   3.094   3.694 -1.7925 -1.8048 -1.2718
 4035TIP3   OH212110   2.591   1.647   1.720  0.4459  0.0608  0.0086
 4035TIP3    H112111   2.679   1.684   1.724  1.2013 -1.6239 -0.5480
 4035TIP3    H212112   2.567   1.634   1.812  1.0798 -0.1790  0.1434
 4036TIP3   OH212113   0.652   1.545   0.243 -0.6103  0.1971  0.0066
 4036TIP3    H112114   0.659   1.640   0.253  1.5470  0.2424 -1.1907
 4036TIP3    H212115   0.726   1.510   0.293 -0.5177 -0.7229 -0.7419
 4037TIP3   OH212116   3.079   1.517   1.501  0.2878 -0.0400  0.6507
 4037TIP3    H112117   3.106   1.609   1.493  0.7636  0.0442  2.7122
 4037TIP3    H212118   2.992   1.521   1.541 -0.5698 -0.4736 -1.0817
 4038TIP3   OH212119   1.542   3.827   4.447 -0.1196  0.6470 -0.2678
 4038TIP3    H112120   1.618   3.798   4.396 -0.3484  0.5288 -0.5424
 4038TIP3    H212121   1.489   3.876   4.385 -0.3189  0.6436 -0.1007
 4039TIP3   OH212122   5.066   0.579   4.708 -0.1564  0.0815  0.3230
 4039TIP3    H112123   5.116   0.657   4.685 -2.6066  1.5784 -0.2941
 4039TIP3    H212124   5.040   0.593   4.799 -0.2542 -0.2209  0.3441
 4040TIP3   OH212125   2.517   1.632   0.080  0.2422 -0.8607 -0.2492
 4040TIP3    H112126   2.535   1.542   0.054 -0.5372 -1.2272  0.4262
 4040TIP3    H212127   2.425   1.631   0.106  0.0119  0.2984 -0.9424
 4041TIP3   OH212128   2.327   4.599   0.434  0.0208 -0.2071 -0.2636
 4041TIP3    H112129   2.349   4.597   0.527 -0.4918  0.9732 -0.1047
 4041TIP3    H212130   2.391   4.540   0.394  0.6051 -0.3013  0.7573
 4042TIP3   OH212131   1.059   0.233   1.813  0.5863  0.4785  0.3288
 4042TIP3    H112132   1.024   0.208   1.899  1.3117  0.5786  0.6653
 4042TIP3    H212133   1.123   0.164   1.793 -0.7097 -0.4332 -0.8865
 4043TIP3   OH212134   3.418   1.852   3.503 -0.0634  0.3412 -0.0444
 4043TIP3    H112135   3.352   1.799   3.459  1.2525 -1.0750 -0.4017
 4043TIP3    H212136   3.430   1.928   3.446  2.2751 -1.8804 -2.8232
 4044TIP3   OH212137   4.490   5.728   4.376 -0.1273 -0.5070 -0.3274
 4044TIP3    H112138   4.473   5.741   4.283 -0.3063  0.7556 -0.1278
 4044TIP3    H212139   4.569   5.674   4.378  0.4830  0.3140 -1.2168
 4045TIP3   OH212140   5.464   1.107   4.782 -0.4472  0.1190  0.1674
 4045TIP3    H112141   5.445   1.168   4.852 -1.6567 -1.0230  0.8674
 4045TIP3    H212142   5.491   1.163   4.708 -1.1811  1.4586  0.8769
 4046TIP3   OH212143   2.521   5.325   4.415  0.0921 -0.0955 -0.5008
 4046TIP3    H112144   2.497   5.283   4.498 -0.9951  1.6039  0.0917
 4046TIP3    H212145   2.473   5.276   4.349  1.4205 -1.8446 -0.2485
 4047TIP3   OH212146   4.497   4.244   4.222  0.5456  0.2993 -0.1449
 4047TIP3    H112147   4.524   4.320   4.274  1.9652 -0.9316  0.9744
 4047TIP3    H212148   4.578   4.210   4.185 -0.2637  0.2438 -2.0011
 4048TIP3   OH212149   1.621   4.627   1.857  0.3584 -0.0047  0.1960
 4048TIP3    H112150   1.548   4.580   1.816 -0.5985  1.0534  0.6297
 4048TIP3    H212151   1.698   4.595   1.811 -0.1148 -2.6376  1.0446
 4049TIP3   OH212152   5.836   0.784   2.070 -0.0843 -0.0057 -0.0850
 4049TIP3    H112153   5.878   0.866   2.046 -1.6609  0.6163 -0.9043
 4049TIP3    H212154   5.789   0.757   1.991 -0.5005 -1.1104  0.5139
 4050TIP3   OH212155   1.503   0.697   0.279 -0.6529  0.3646 -0.4710
 4050TIP3    H112156   1.523   0.635   0.208 -0.6377 -0.8590  0.5581
 4050TIP3    H212157   1.588   0.736   0.301 -0.5885  0.4397 -0.8415
 4051TIP3   OH212158   2.419   2.780   1.174  0.1580  0.5525  0.0178
 4051TIP3    H112159   2.464   2.842   1.231  1.3345 -0.2586  0.0131
 4051TIP3    H212160   2.425   2.819   1.087  0.2216  0.8026  0.1329
 4052TIP3   OH212161   6.184   0.015   3.003 -0.2356 -0.0563  0.3191
 4052TIP3    H112162   6.157   0.043   2.916  0.2890  1.1347  0.5131
 4052TIP3    H212163   6.226   0.093   3.041  0.4662 -0.8606  1.2466
 4053TIP3   OH212164   4.476   4.113   0.408  0.3415  0.3876  0.3701
 4053TIP3    H112165   4.429   4.130   0.326  1.8194  0.6748 -0.4419
 4053TIP3    H212166   4.495   4.019   0.406  1.4630  0.6182 -0.2239
 4054TIP3   OH212167   4.935   5.547   5.112  0.3048  0.3152 -0.2787
 4054TIP3    H112168   4.939   5.586   5.025 -1.0486 -0.1561 -0.5819
 4054TIP3    H212169   4.859   5.588   5.154  0.3444 -0.1885  0.3052
 4055TIP3   OH212170   0.749   4.724   1.770 -0.4868 -0.1576  0.3656
 4055TIP3    H112171   0.820   4.668   1.741 -1.5508 -0.6896 -1.3167
 4055TIP3    H212172   0.778   4.813   1.748 -1.3037 -0.5362 -2.6604
 4056TIP3   OH212173   0.587   1.469   0.642 -0.0407 -0.0195  0.1469
 4056TIP3    H112174   0.549   1.556   0.632  0.6520  0.2725 -0.0126
 4056TIP3    H212175   0.582   1.451   0.736 -1.1622 -0.2692  0.0528
 4057TIP3   OH212176   2.687   3.032   3.314  0.4189 -0.6426  0.5286
 4057TIP3    H112177   2.728   3.024   3.228 -0.0388  1.7106  0.0065
 4057TIP3    H212178   2.594   3.049   3.295 -0.2957 -3.0148  1.6078
 4058TIP3   OH212179   5.264   1.813   2.352  0.2915  0.0805  0.3044
 4058TIP3    H112180   5.328   1.802   2.282 -0.4459 -0.7001 -0.2577
 4058TIP3    H212181   5.287   1.898   2.391  1.7554 -0.2483  0.2263
 4059TIP3   OH212182   0.575   5.201   0.789 -0.0754  0.2165 -0.2250
 4059TIP3    H112183   0.568   5.109   0.813 -1.4091  0.2759 -0.3082
 4059TIP3    H212184   0.659   5.207   0.742  0.1271 -0.9057 -0.0420
 4060TIP3   OH212185   3.983   5.946   1.031  0.2300 -0.3800  0.3022
 4060TIP3    H112186   3.961   5.964   1.122  1.2155  0.9673  0.3006
 4060TIP3    H212187   4.075   5.921   1.033  0.5548  0.6724 -0.4138
 4061TIP3   OH212188   4.487   3.129   1.184 -0.6741 -0.4447  0.4402
 4061TIP3    H112189   4.581   3.144   1.195 -0.5312 -0.9135 -0.1443
 4061TIP3    H212190   4.446   3.204   1.227 -0.0345 -0.2268  0.6793
 4062TIP3   OH212191   6.159   5.734   1.675  0.1117 -0.6608  0.4023
 4062TIP3    H112192   6.086   5.782   1.635  0.1331 -0.2916  0.7923
 4062TIP3    H212193   6.201   5.799   1.732  2.6989  0.1147 -2.1407
 4063TIP3   OH212194   2.829   1.754   2.074 -0.2296 -0.4625  0.3455
 4063TIP3    H112195   2.903   1.812   2.092  0.1480 -0.8126 -0.0446
 4063TIP3    H212196   2.812   1.711   2.158 -0.6992  0.4204  0.7057
 4064TIP3   OH212197   6.003   4.718   1.734  0.1970 -0.4204 -0.0920
 4064TIP3    H112198   5.910   4.741   1.738  0.2199 -0.1710 -0.7861
 4064TIP3    H212199   6.041   4.782   1.673  0.8374 -0.4801  0.2288
 4065TIP3   OH212200   1.644   0.078   3.494 -0.0841 -0.7391 -0.9412
 4065TIP3    H112201   1.586   0.085   3.570  1.2994 -0.7891  0.1698
 4065TIP3    H212202   1.645   0.165   3.455 -1.0900 -0.8061 -1.1325
 4066TIP3   OH212203   0.952   1.769   0.815  0.0951  0.0703  0.5854
 4066TIP3    H112204   0.857   1.770   0.828 -0.0360  0.1202 -0.2893
 4066TIP3    H212205   0.981   1.857   0.840 -0.0752  0.0344  0.9167
 4067TIP3   OH212206   3.112   0.481   0.337 -0.2367 -0.0744  0.3095
 4067TIP3    H112207   3.070   0.395   0.331 -1.0647  0.3497 -0.1150
 4067TIP3    H212208   3.076   0.531   0.264  1.2299  0.2286 -0.2453
 4068TIP3   OH212209   1.178   0.261   4.985  0.1644  0.3524 -0.0559
 4068TIP3    H112210   1.115   0.300   4.925 -0.8306 -1.4834 -0.2559
 4068TIP3    H212211   1.137   0.181   5.016  1.5799  0.1142  1.3844
 4069TIP3   OH212212   0.663   2.598   2.128  0.4194  0.0003  0.1462
 4069TIP3    H112213   0.759   2.593   2.122  0.3983  0.1018 -0.2700
 4069TIP3    H212214   0.637   2.657   2.057  0.1750  1.3353  1.2960
 4070TIP3   OH212215   4.348   4.763   1.100  0.2933  0.5127 -0.5580
 4070TIP3    H112216   4.278   4.814   1.142 -0.5498  0.5400 -1.9291
 4070TIP3    H212217   4.416   4.827   1.080 -0.8272  1.1960 -2.4153
 4071TIP3   OH212218   5.957   3.664   4.925 -0.0613  0.3787 -0.7068
 4071TIP3    H112219   5.865   3.682   4.906 -0.5411 -0.1714  0.8975
 4071TIP3    H212220   6.004   3.739   4.889 -1.4364  2.1072  0.8559
 4072TIP3   OH212221   1.477   3.906   1.411  0.1394 -0.2814  0.2660
 4072TIP3    H112222   1.500   3.964   1.483  1.6962  0.2029 -0.5672
 4072TIP3    H212223   1.517   3.947   1.334 -1.4108 -0.8218 -0.8687
 4073TIP3   OH212224   2.468   3.419   1.311 -0.2749 -0.3846  0.5226
 4073TIP3    H112225   2.543   3.455   1.264 -0.7941  0.6720  0.4740
 4073TIP3    H212226   2.397   3.480   1.293 -0.4330  0.2558  2.9587
 4074TIP3   OH212227   6.162   4.813   4.217 -0.5762 -0.1297  0.1061
 4074TIP3    H112228   6.238   4.806   4.158  0.6497 -0.5337  1.6611
 4074TIP3    H212229   6.192   4.869   4.289 -1.9058  0.0462  0.5597
 4075TIP3   OH212230   1.420   0.750   3.074  0.2784  0.2541  0.2045
 4075TIP3    H112231   1.376   0.803   3.008  0.9011 -1.6376 -1.8781
 4075TIP3    H212232   1.350   0.700   3.116 -0.0075  0.5823  0.1183
 4076TIP3   OH212233   2.746   0.578   4.887  0.4413 -0.5310 -0.1550
 4076TIP3    H112234   2.770   0.503   4.941  0.6700 -0.1901  0.2188
 4076TIP3    H212235   2.776   0.555   4.799  0.5742 -0.8445 -0.0283
 4077TIP3   OH212236   2.442   2.753   5.107  0.2432 -0.7185 -0.5059
 4077TIP3    H112237   2.519   2.789   5.064  0.1451  0.9008  0.5628
 4077TIP3    H212238   2.387   2.830   5.126 -0.7788 -1.6268  0.3949
 4078TIP3   OH212239   3.826   0.690   2.459  0.3752  0.3255 -0.3132
 4078TIP3    H112240   3.835   0.654   2.547  0.6591  0.2786 -0.3584
 4078TIP3    H212241   3.734   0.712   2.450  0.5146  1.1962  0.3305
 4079TIP3   OH212242   1.257   1.099   4.093 -0.7542  0.4867 -0.9483
 4079TIP3    H112243   1.297   1.022   4.054  1.2174  1.4214 -0.9267
 4079TIP3    H212244   1.163   1.088   4.080 -0.3814 -0.9617 -2.6706
 4080TIP3   OH212245   2.429   4.028   0.756  0.5270  0.1412  0.4708
 4080TIP3    H112246   2.455   4.038   0.664 -3.9030  3.2656 -0.7822
 4080TIP3    H212247   2.400   3.937   0.763  0.4307 -0.0328 -1.4381
 4081TIP3   OH212248   2.007   0.807   1.495 -0.0925  0.4937 -0.1910
 4081TIP3    H112249   1.914   0.800   1.517  0.4232 -1.1264  1.8276
 4081TIP3    H212250   2.016   0.757   1.414 -1.0422  0.9946 -0.6146
 4082TIP3   OH212251   2.885   0.906   3.004 -0.0560 -0.7078 -0.4240
 4082TIP3    H112252   2.847   0.979   3.054  1.0959 -0.1573 -0.3024
 4082TIP3    H212253   2.894   0.939   2.915 -2.7200 -1.9143 -1.2409
 4083TIP3   OH212254   5.009   5.297   3.139 -0.0320 -0.1274  0.0380
 4083TIP3    H112255   5.076   5.277   3.073  2.8211  1.8466  2.0884
 4083TIP3    H212256   5.005   5.392   3.141 -2.5593 -0.1678  0.4519
 4084TIP3   OH212257   3.710   1.852   2.012 -0.3662  0.1934  0.4786
 4084TIP3    H112258   3.660   1.873   1.933 -0.3819 -0.5940  0.2680
 4084TIP3    H212259   3.794   1.821   1.979 -0.6804 -0.9645  0.7259
 4085TIP3   OH212260   0.124   4.829   4.460  0.2288  0.3980 -0.7346
 4085TIP3    H112261   0.088   4.837   4.548 -0.5207 -0.1150 -0.9810
 4085TIP3    H212262   0.146   4.736   4.452 -0.6248  0.2428 -1.4195
 4086TIP3   OH212263   1.889   3.679   1.621 -0.2265 -0.0926  0.0806
 4086TIP3    H112264   1.842   3.596   1.621 -0.2976 -0.0661 -0.9487
 4086TIP3    H212265   1.839   3.736   1.680  0.0239 -0.8779  1.0728
 4087TIP3   OH212266   1.287   2.473   0.930  0.7036 -0.3640  0.0241
 4087TIP3    H112267   1.249   2.389   0.907 -1.5610  0.0492  1.8141
 4087TIP3    H212268   1.254   2.534   0.863  1.3818 -0.6895 -0.6068
 4088TIP3   OH212269   1.722   1.853   4.642  0.1377 -0.5876 -0.0495
 4088TIP3    H112270   1.683   1.872   4.557  0.8036 -2.1935 -0.7576
 4088TIP3    H212271   1.769   1.933   4.666 -1.0809  0.3165 -0.5820
 4089TIP3   OH212272   3.461   2.639   3.197  0.3055  0.2277  0.0145
 4089TIP3    H112273   3.399   2.681   3.137 -0.4496 -0.6825  0.1305
 4089TIP3    H212274   3.494   2.564   3.148  1.8558  1.0894 -0.2973
 4090TIP3   OH212275   3.350   0.404   3.979 -0.5293 -0.6891 -0.3782
 4090TIP3    H112276   3.344   0.344   3.904 -0.1800 -0.5718 -0.5015
 4090TIP3    H212277   3.343   0.347   4.056 -1.2619 -0.7743 -0.4938
 4091TIP3   OH212278   3.620   4.800   4.929  0.1188  0.2784  0.5246
 4091TIP3    H112279   3.526   4.809   4.917  0.3536  0.1521 -1.7037
 4091TIP3    H212280   3.650   4.888   4.954 -0.3882  0.6895 -0.2933
 4092TIP3   OH212281   5.787   3.316   3.955 -0.2897  0.0980 -0.6285
 4092TIP3    H112282   5.806   3.228   3.921  0.8121 -0.5308  1.4084
 4092TIP3    H212283   5.705   3.305   4.003  0.1743  0.0007  0.1599
 4093TIP3   OH212284   2.923   5.047   3.236 -0.0189 -0.1577 -0.0285
 4093TIP3    H112285   2.955   4.981   3.297  0.3343  0.4712  0.4863
 4093TIP3    H212286   2.828   5.047   3.248  0.0992  0.4673  1.0773
 4094TIP3   OH212287   1.548   5.730  -0.029 -0.4649  0.3512  0.0258
 4094TIP3    H112288   1.521   5.668   0.039  0.3300  1.0435  0.9906
 4094TIP3    H212289   1.528   5.816   0.008  0.0135  0.7391 -0.6042
 4095TIP3   OH212290   4.229   0.711   3.058  0.0293  0.0991 -0.0401
 4095TIP3    H112291   4.266   0.631   3.020 -1.5149 -0.8964  0.4596
 4095TIP3    H212292   4.136   0.691   3.069 -0.0014  1.2026  2.0941
 4096TIP3   OH212293   1.039   4.808   3.535 -0.9722  0.5822 -0.3268
 4096TIP3    H112294   1.044   4.900   3.562 -1.5213  1.0060 -1.5912
 4096TIP3    H212295   0.962   4.804   3.479 -0.7709 -0.5870 -0.5361
 4097TIP3   OH212296   4.900   3.477   1.926 -0.5032 -0.1388  0.0386
 4097TIP3    H112297   4.832   3.410   1.916 -1.2934  0.4991  0.9716
 4097TIP3    H212298   4.882   3.517   2.011  1.7925 -0.7781  0.9202
 4098TIP3   OH212299   0.131   0.133   2.781 -0.1562 -0.0960  0.6714
 4098TIP3    H112300   0.124   0.183   2.862 -1.6708 -1.1224  1.2338
 4098TIP3    H212301   0.129   0.198   2.711  1.6958  0.8455  1.4289
 4099TIP3   OH212302   4.866   1.397   4.127 -0.1504 -0.2510  0.3071
 4099TIP3    H112303   4.934   1.345   4.170  0.0253  0.6261  1.1328
 4099TIP3    H212304   4.850   1.470   4.188  0.5281  1.3784 -1.3783
 4100TIP3   OH212305   2.165   3.724   3.126  0.5227  0.8750  0.3800
 4100TIP3    H112306   2.148   3.770   3.208  2.0945  1.1795  0.5716
 4100TIP3    H212307   2.257   3.743   3.107  0.9617 -1.4093 -0.0431
 4101TIP3   OH212308   5.062   0.160   3.914 -0.3614 -0.7266  0.0570
 4101TIP3    H112309   5.138   0.193   3.867 -0.2743  0.4043  0.9397
 4101TIP3    H212310   5.010   0.114   3.848  1.1506 -1.6749 -0.5250
 4102TIP3   OH212311   2.871   4.842   5.008 -0.0594 -0.4202  0.3920
 4102TIP3    H112312   2.803   4.803   5.063 -1.1446 -0.9410 -1.2433
 4102TIP3    H212313   2.951   4.794   5.031 -0.3290 -0.1864  1.9391
 4103TIP3   OH212314   5.475   1.774   4.451  0.5414 -0.5473 -0.2015
 4103TIP3    H112315   5.504   1.785   4.360  0.6266  1.1713  0.0037
 4103TIP3    H212316   5.493   1.859   4.492 -3.5479  0.2973  0.2812
 4104TIP3   OH212317   3.248   5.057   5.078  0.3429  0.6000  0.3829
 4104TIP3    H112318   3.335   5.077   5.113  0.9480  1.0794 -1.2903
 4104TIP3    H212319   3.236   5.119   5.006 -1.7969  1.1739  1.1504
 4105TIP3   OH212320   3.111   2.510   3.476 -0.2916  0.0538 -0.6606
 4105TIP3    H112321   3.042   2.573   3.493  0.4131  0.7615 -0.3332
 4105TIP3    H212322   3.106   2.449   3.549  1.1095  1.6406  0.8550
 4106TIP3   OH212323   0.023   5.080   2.758 -0.2679 -0.0204 -0.1105
 4106TIP3    H112324   0.063   5.044   2.679 -1.1362 -2.1756  0.3691
 4106TIP3    H212325  -0.059   5.119   2.728 -0.0127  0.2834 -0.4286
 4107TIP3   OH212326   0.712   3.612   4.823 -0.4891 -0.3964 -0.4251
 4107TIP3    H112327   0.678   3.697   4.793  1.1627 -0.3508 -2.3521
 4107TIP3    H212328   0.665   3.547   4.770  2.0032 -0.3432 -2.9383
 4108TIP3   OH212329   4.221   3.957   2.563 -0.1732  0.1652  0.1742
 4108TIP3    H112330   4.248   3.867   2.548  0.7384  0.2277  1.3424
 4108TIP3    H212331   4.232   4.000   2.478  2.9277  0.0510  0.4229
 4109TIP3   OH212332   4.586   0.610   4.437  0.1819  0.6086 -0.1637
 4109TIP3    H112333   4.622   0.602   4.348 -0.8695 -0.2369 -0.5346
 4109TIP3    H212334   4.628   0.539   4.485 -0.1930  0.2740 -0.3240
 4110TIP3   OH212335   5.874   5.273   4.920  0.5092  0.0877  0.1446
 4110TIP3    H112336   5.861   5.211   4.992  0.6798 -0.3065 -0.1631
 4110TIP3    H212337   5.815   5.241   4.851  1.2482 -0.2555 -0.3416
 4111TIP3   OH212338   2.309   4.776   4.536 -0.1237  0.1513 -1.0070
 4111TIP3    H112339   2.231   4.831   4.544 -1.1040 -1.0193 -2.0430
 4111TIP3    H212340   2.382   4.837   4.545 -1.1382  1.2601  0.1046
 4112TIP3   OH212341   4.208   5.256   3.052  0.3363 -0.3259  0.4504
 4112TIP3    H112342   4.268   5.267   2.978  1.4461 -2.0213  1.0375
 4112TIP3    H212343   4.138   5.318   3.034  1.4660  0.6128 -1.0848
 4113TIP3   OH212344   4.531   5.792   0.855 -0.0416  0.2428 -0.3162
 4113TIP3    H112345   4.606   5.746   0.893 -1.7527 -1.9480  0.5809
 4113TIP3    H212346   4.503   5.736   0.783 -2.0131 -0.0508  0.6335
 4114TIP3   OH212347   1.205   3.745   1.995  0.5293  0.2825 -0.1968
 4114TIP3    H112348   1.191   3.667   2.049  0.0351  0.6213  0.1788
 4114TIP3    H212349   1.127   3.749   1.939  0.3553  0.7250  0.0706
 4115TIP3   OH212350   3.227   5.127   2.956  0.2347 -0.3144  0.0180
 4115TIP3    H112351   3.278   5.135   3.037  2.6306 -1.3652 -1.2943
 4115TIP3    H212352   3.287   5.086   2.894 -2.2366 -1.5626 -1.6812
 4116TIP3   OH212353   3.367   1.694   0.863 -0.3680  0.3717  0.1190
 4116TIP3    H112354   3.336   1.604   0.860 -0.6183  0.3128  2.5945
 4116TIP3    H212355   3.301   1.743   0.813 -0.8855 -0.6240 -0.2082
 4117TIP3   OH212356   2.773   0.437   2.774  0.2629 -0.2844 -0.1329
 4117TIP3    H112357   2.845   0.444   2.837 -0.6389  2.0400  0.7416
 4117TIP3    H212358   2.733   0.352   2.793  0.2207  0.2018  2.2840
 4118TIP3   OH212359   3.106   3.969   0.481 -0.0893 -0.6546 -0.4022
 4118TIP3    H112360   3.058   4.050   0.499  1.8363  0.4773 -0.0562
 4118TIP3    H212361   3.039   3.905   0.460 -1.6770  1.0278 -0.6682
 4119TIP3   OH212362   0.079   5.376   1.004 -0.5025 -0.0280 -0.0641
 4119TIP3    H112363  -0.010   5.339   1.006 -1.7314  2.6818  0.7094
 4119TIP3    H212364   0.117   5.351   1.088 -0.2828 -1.6259 -0.5996
 4120TIP3   OH212365   0.603   3.150   3.706  0.3498  0.2457  0.0362
 4120TIP3    H112366   0.636   3.098   3.779 -0.4440 -0.0628  0.1772
 4120TIP3    H212367   0.513   3.122   3.694 -0.2387  1.8853  0.3938
 4121TIP3   OH212368   0.171   4.482   2.003 -0.0621  0.1558  0.0871
 4121TIP3    H112369   0.118   4.405   2.025  3.0470 -1.7317  1.6143
 4121TIP3    H212370   0.177   4.532   2.085  1.4267 -0.3083  0.2921
 4122TIP3   OH212371   1.174   4.259   4.211 -0.2813 -0.0077  0.9671
 4122TIP3    H112372   1.202   4.226   4.125 -2.0716  1.6830 -0.3658
 4122TIP3    H212373   1.078   4.256   4.207 -0.4374  2.1005  2.0571
 4123TIP3   OH212374   2.914   4.521   2.847 -0.5114  0.0864  0.2483
 4123TIP3    H112375   2.973   4.446   2.853  1.0050  1.1135 -1.0601
 4123TIP3    H212376   2.837   4.487   2.800 -0.3483 -0.9043  0.6668
 4124TIP3   OH212377   6.299   1.972   3.077 -0.5252  0.1270  0.2852
 4124TIP3    H112378   6.309   1.904   3.010 -0.2815  0.6504 -0.2163
 4124TIP3    H212379   6.383   1.971   3.124  0.6138  2.0234 -1.5747
 4125TIP3   OH212380   5.165   0.704   4.951 -0.1236 -0.2474 -0.0348
 4125TIP3    H112381   5.243   0.756   4.930 -0.1217 -0.2677 -0.0781
 4125TIP3    H212382   5.128   0.746   5.028  0.4211 -0.7620  0.5181
 4126TIP3   OH212383   3.241   3.896   1.266  0.1393 -0.0368 -0.0365
 4126TIP3    H112384   3.148   3.908   1.243  0.5689 -1.5625 -2.9932
 4126TIP3    H212385   3.286   3.967   1.220  0.5819 -0.2549  0.0557
 4127TIP3   OH212386   5.187   5.647   3.460 -0.2901 -0.2101  0.0052
 4127TIP3    H112387   5.220   5.726   3.418 -1.6401  0.3727 -0.0337
 4127TIP3    H212388   5.198   5.663   3.554 -3.7139  1.6443  0.2531
 4128TIP3   OH212389   5.820   2.950   3.578  0.6227  0.1190 -0.0574
 4128TIP3    H112390   5.893   3.011   3.563  0.6324 -0.4072 -2.5804
 4128TIP3    H212391   5.750   2.983   3.522 -0.4735 -0.4083  0.9725
 4129TIP3   OH212392   0.476   5.970   1.356 -0.1443  0.2160  0.0418
 4129TIP3    H112393   0.465   6.019   1.437  0.0346 -1.0410  0.8433
 4129TIP3    H212394   0.389   5.932   1.339 -0.4748  1.3457 -0.9636
 4130TIP3   OH212395   2.194   5.967   1.045  0.3868 -0.3673  0.1668
 4130TIP3    H112396   2.151   5.883   1.057 -1.4567  0.5738  0.6181
 4130TIP3    H212397   2.206   6.000   1.134 -1.0704  0.8285 -0.0348
 4131TIP3   OH212398   3.576   3.337   0.638  0.0111 -0.1500 -0.4414
 4131TIP3    H112399   3.553   3.318   0.729  3.5724  1.9069  1.1082
 4131TIP3    H212400   3.556   3.430   0.627  0.0163 -0.2733 -1.6420
 4132TIP3   OH212401   2.770   4.345   2.093 -0.2091 -0.7925  0.3845
 4132TIP3    H112402   2.696   4.285   2.096 -0.5737 -0.6241 -2.3487
 4132TIP3    H212403   2.769   4.379   2.003  2.1100  0.5889  0.8062
 4133TIP3   OH212404   4.094   2.513   5.045  0.0226 -0.4163 -0.3939
 4133TIP3    H112405   4.036   2.490   5.117 -0.3502 -0.3275 -0.6670
 4133TIP3    H212406   4.121   2.603   5.063 -0.9051 -0.0194 -0.9115
 4134TIP3   OH212407   5.660   1.063   1.903 -0.5492 -0.1273 -0.9246
 4134TIP3    H112408   5.578   1.012   1.905 -0.2084 -0.6738 -0.6048
 4134TIP3    H212409   5.715   1.017   1.840  0.0643 -0.6418 -0.0430
 4135TIP3   OH212410   2.610   5.835   1.470  0.1174 -0.1821 -0.0648
 4135TIP3    H112411   2.604   5.751   1.517 -0.0660 -0.4572 -0.5759
 4135TIP3    H212412   2.608   5.901   1.540 -0.3788 -0.5788  0.3089
 4136TIP3   OH212413   3.810   2.866   0.897  0.1246 -0.1590 -0.0229
 4136TIP3    H112414   3.789   2.901   0.984  1.3210 -1.1062  0.6878
 4136TIP3    H212415   3.897   2.901   0.877 -0.0641 -0.0988 -0.7574
 4137TIP3   OH212416   0.187   5.417   2.272 -0.4793 -0.1327  0.2163
 4137TIP3    H112417   0.124   5.345   2.271  0.7290 -1.2337 -0.7454
 4137TIP3    H212418   0.262   5.383   2.320 -0.9356  1.5008  2.1957
 4138TIP3   OH212419   4.927   1.936   3.373  0.0127 -0.0698  0.6242
 4138TIP3    H112420   4.859   1.933   3.441 -0.3104 -0.8633  0.2811
 4138TIP3    H212421   4.977   2.015   3.392  0.2339 -0.5285  2.0901
 4139TIP3   OH212422   0.828   0.242   5.059 -0.7611  0.4782 -0.3917
 4139TIP3    H112423   0.875   0.163   5.032  0.8402  1.4023 -0.4655
 4139TIP3    H212424   0.765   0.212   5.124  0.4967 -0.7386  0.3323
 4140TIP3   OH212425   5.731   2.842   0.114  0.1380 -0.2635  0.2590
 4140TIP3    H112426   5.664   2.857   0.179 -0.1695 -0.8191  0.0779
 4140TIP3    H212427   5.810   2.882   0.150 -0.5390  1.4105 -0.0370
 4141TIP3   OH212428   4.698   4.695   2.360 -0.1641 -0.2546  0.2726
 4141TIP3    H112429   4.721   4.786   2.380  0.2356 -0.4912  0.9262
 4141TIP3    H212430   4.675   4.657   2.444  0.7803 -1.0673  0.1813
 4142TIP3   OH212431   0.568   5.497   1.897  0.3999 -0.3490  0.3280
 4142TIP3    H112432   0.626   5.498   1.973  1.4228  0.0856 -0.4407
 4142TIP3    H212433   0.482   5.520   1.933  0.9022  0.0372  1.3275
 4143TIP3   OH212434   2.183   0.512   4.347 -0.0630  0.8125 -0.1443
 4143TIP3    H112435   2.242   0.488   4.418  2.0239  1.0795 -1.6863
 4143TIP3    H212436   2.146   0.597   4.373 -1.2635 -0.2040  1.6689
 4144TIP3   OH212437   4.843   1.982   2.893 -0.4851  0.3541 -0.0311
 4144TIP3    H112438   4.846   2.010   2.801 -0.9241 -0.6436 -0.3773
 4144TIP3    H212439   4.836   2.063   2.943 -0.8910  0.8904 -0.9222
 4145TIP3   OH212440   0.485   0.297   2.619  0.1991  0.3389  0.2449
 4145TIP3    H112441   0.566   0.335   2.653  1.3110 -1.5200 -0.2531
 4145TIP3    H212442   0.493   0.204   2.636 -0.4089 -0.3343 -2.6600
 4146TIP3   OH212443   5.615   1.735   2.753 -0.3295  0.0063  0.4683
 4146TIP3    H112444   5.527   1.698   2.762 -0.1313 -0.1030  2.2934
 4146TIP3    H212445   5.624   1.794   2.827  0.4886  1.4338 -0.7203
 4147TIP3   OH212446   5.836   2.373   1.872  0.6284  0.5346 -0.1664
 4147TIP3    H112447   5.908   2.399   1.930 -0.7880  0.7945  1.5686
 4147TIP3    H212448   5.846   2.278   1.863  1.1209  0.5517  0.1633
 4148TIP3   OH212449   2.207   2.094   3.867 -0.5749  0.4547  0.0301
 4148TIP3    H112450   2.221   2.050   3.950 -1.4844 -0.9125 -0.4919
 4148TIP3    H212451   2.199   2.187   3.889  0.7228  0.3042  1.2564
 4149TIP3   OH212452   2.911   3.110   0.621 -0.4330  0.0647  0.1900
 4149TIP3    H112453   2.875   3.198   0.605  1.1523  0.4336 -1.7787
 4149TIP3    H212454   2.877   3.057   0.550  1.2799 -0.0541 -0.5726
 4150TIP3   OH212455   0.282   0.459   0.336  0.4209  0.5806  0.1026
 4150TIP3    H112456   0.229   0.462   0.256  0.4520  0.8545  0.0915
 4150TIP3    H212457   0.257   0.377   0.378  1.9757 -0.6498 -1.2632
 4151TIP3   OH212458   2.361   4.781   0.157 -0.8166 -0.6030  0.7087
 4151TIP3    H112459   2.370   4.708   0.096 -1.1237 -0.2712  0.2506
 4151TIP3    H212460   2.267   4.785   0.174 -0.7558 -0.5494  1.0222
 4152TIP3   OH212461   4.840   0.984   0.651  0.2686  0.3366  0.3645
 4152TIP3    H112462   4.899   0.939   0.591 -0.4797  0.5317 -0.5445
 4152TIP3    H212463   4.762   0.929   0.655 -0.0834  0.8226  0.3606
 4153TIP3   OH212464   4.262   5.913   1.700  0.0501 -0.1005 -0.1226
 4153TIP3    H112465   4.249   5.867   1.783 -0.2497 -1.4266 -0.8869
 4153TIP3    H212466   4.324   5.983   1.721  0.1540 -0.5599  1.1658
 4154TIP3   OH212467   0.129   4.778   0.732  0.3635  0.1835  0.1333
 4154TIP3    H112468   0.143   4.720   0.657  0.5108 -1.0456  1.0711
 4154TIP3    H212469   0.192   4.748   0.797 -0.0898  0.9176  0.9279
 4155TIP3   OH212470   0.573   5.652   0.749  0.1105  0.0747  0.1619
 4155TIP3    H112471   0.487   5.635   0.712  0.7358  0.0826 -1.3523
 4155TIP3    H212472   0.590   5.576   0.805 -0.5087 -0.3544 -0.2137
 4156TIP3   OH212473   4.448   1.162   1.086 -0.4744  0.5700  0.1760
 4156TIP3    H112474   4.381   1.093   1.087  0.7486 -0.7071 -0.5662
 4156TIP3    H212475   4.400   1.243   1.071 -1.9661 -0.1343  1.0060
 4157TIP3   OH212476   0.363   4.938   5.094  0.0755  0.3630 -0.1373
 4157TIP3    H112477   0.272   4.947   5.122  0.4545  0.3234  1.1618
 4157TIP3    H212478   0.411   5.002   5.146  0.7703  0.5063 -0.9382
 4158TIP3   OH212479   5.918   3.297   0.835 -0.5977 -0.1364  0.4114
 4158TIP3    H112480   5.838   3.260   0.797 -0.3738 -0.0135 -0.1854
 4158TIP3    H212481   5.909   3.391   0.823  0.2326 -0.1960 -0.8742
 4159TIP3   OH212482   0.199   1.558   4.281 -0.0650  0.8179  0.3208
 4159TIP3    H112483   0.180   1.465   4.292  1.0426  0.6945  1.4262
 4159TIP3    H212484   0.115   1.601   4.298 -0.3859  0.0716  0.6923
 4160TIP3   OH212485   1.541   5.889   2.016 -0.0424  0.4024 -0.1219
 4160TIP3    H112486   1.596   5.837   2.075 -1.5823 -0.9714  0.1745
 4160TIP3    H212487   1.474   5.928   2.073  1.1352  2.9151 -0.3096
 4161TIP3   OH212488   5.627   1.609   0.089 -0.4589  0.3216 -0.2814
 4161TIP3    H112489   5.708   1.578   0.129 -0.8252 -0.0410  0.1844
 4161TIP3    H212490   5.650   1.623  -0.003  0.2306  0.5877 -0.0752
 4162TIP3   OH212491   2.547   0.603   2.811 -0.0395  0.6931  0.0443
 4162TIP3    H112492   2.507   0.589   2.897 -0.7692 -0.6726 -0.4910
 4162TIP3    H212493   2.603   0.527   2.798  0.2022  0.9789 -0.6163
 4163TIP3   OH212494  -0.002   4.303   1.608  0.3588 -0.5735  0.4329
 4163TIP3    H112495   0.078   4.344   1.639  0.9882 -1.1328 -0.4076
 4163TIP3    H212496  -0.070   4.370   1.619  1.0562  0.1163  0.5853
 4164TIP3   OH212497   0.822   5.587   3.441 -0.0722  0.2341  0.6957
 4164TIP3    H112498   0.905   5.571   3.486  0.6700  0.6275 -0.4962
 4164TIP3    H212499   0.761   5.612   3.511  1.5122  2.6752  1.3258
 4165TIP3   OH212500   0.043   1.126   0.079 -0.4215  0.2244  0.8096
 4165TIP3    H112501   0.124   1.176   0.082  1.0148 -1.6721 -2.1760
 4165TIP3    H212502  -0.023   1.189   0.050  0.6940  1.0995  0.0837
 4166TIP3   OH212503   3.862   3.282   4.369 -0.1146  0.4877  1.0553
 4166TIP3    H112504   3.845   3.213   4.434 -2.1059  0.4568  0.5731
 4166TIP3    H212505   3.900   3.354   4.420  0.9893 -0.5545  1.7527
 4167TIP3   OH212506   0.293   4.260   3.659 -0.2879 -0.2331 -0.3167
 4167TIP3    H112507   0.283   4.167   3.679 -0.8886  0.0065  0.6073
 4167TIP3    H212508   0.235   4.303   3.722 -1.2529  0.6768 -1.7945
 4168TIP3   OH212509   3.519   3.885   2.515 -0.4679 -0.5785 -0.0316
 4168TIP3    H112510   3.590   3.909   2.574 -1.3307  1.9696  0.0908
 4168TIP3    H212511   3.441   3.885   2.570 -0.9608 -0.4836 -0.7203
 4169TIP3   OH212512   0.341   2.632   1.897  0.0555 -0.5648  0.6256
 4169TIP3    H112513   0.290   2.575   1.839  1.0248 -1.0254  0.1960
 4169TIP3    H212514   0.286   2.709   1.910  0.0760 -0.1058 -1.5316
 4170TIP3   OH212515   0.751   2.877   3.831 -0.3398 -0.1971 -0.2590
 4170TIP3    H112516   0.820   2.916   3.777 -0.8726  0.1630 -0.6983
 4170TIP3    H212517   0.733   2.944   3.897  0.6543 -0.8368  0.6898
 4171TIP3   OH212518   5.899   1.727   3.921 -0.2418 -0.3771  0.2037
 4171TIP3    H112519   5.924   1.652   3.866 -0.2358 -0.6697  0.5969
 4171TIP3    H212520   5.931   1.704   4.009  0.7989  0.6096  0.1128
 4172TIP3   OH212521   3.775   2.759   0.113  0.0531 -0.6063  0.8402
 4172TIP3    H112522   3.808   2.769   0.024 -0.3711  0.8950  0.8191
 4172TIP3    H212523   3.848   2.721   0.162  1.0735  0.6114  0.3198
 4173TIP3   OH212524   0.025   0.482   0.499  0.0686 -0.2307 -0.4855
 4173TIP3    H112525  -0.030   0.419   0.454  0.9581 -1.0888 -0.4076
 4173TIP3    H212526   0.012   0.564   0.451 -1.4667 -0.3295 -0.2883
 4174TIP3   OH212527   0.770   0.814   4.314  0.8533  0.0717 -0.0646
 4174TIP3    H112528   0.832   0.803   4.241 -0.7072 -1.7497 -1.1972
 4174TIP3    H212529   0.696   0.861   4.275  0.5073  0.1310  0.6584
 4175TIP3   OH212530   3.716   3.724   4.544 -0.1218  0.4112  0.1235
 4175TIP3    H112531   3.640   3.782   4.536 -0.2415  0.1577 -0.6408
 4175TIP3    H212532   3.683   3.648   4.593 -0.7156 -0.2661 -1.2577
 4176TIP3   OH212533   1.697   0.799   4.644  0.1301 -0.1207  0.1118
 4176TIP3    H112534   1.765   0.831   4.704 -0.9375 -1.8080  2.3914
 4176TIP3    H212535   1.636   0.872   4.634 -0.0370 -0.0101  1.7239
 4177TIP3   OH212536   6.077   3.171   2.726 -0.2921  0.0005 -0.4214
 4177TIP3    H112537   6.049   3.233   2.794  0.0043 -0.5713  0.2298
 4177TIP3    H212538   6.089   3.225   2.648 -2.3287  0.3995 -0.4948
 4178TIP3   OH212539   1.104   0.716   0.437 -0.3549 -0.1366  0.4752
 4178TIP3    H112540   1.188   0.721   0.483 -0.1122  1.2788 -0.0577
 4178TIP3    H212541   1.093   0.803   0.399 -1.4157 -0.7193 -0.6122
 4179TIP3   OH212542   5.601   2.430   1.178 -0.2716  0.3056  0.1679
 4179TIP3    H112543   5.634   2.454   1.091  1.5251 -0.2274  0.6676
 4179TIP3    H212544   5.506   2.443   1.172 -0.2631 -0.2991 -2.0513
 4180TIP3   OH212545   4.277   1.689   1.558 -0.2261 -0.5818 -0.1251
 4180TIP3    H112546   4.279   1.737   1.476  1.2861 -0.2835  0.0431
 4180TIP3    H212547   4.272   1.597   1.532 -2.2042 -0.4033 -0.4668
 4181TIP3   OH212548   3.001   5.442   4.714  0.0661 -1.0745 -0.0321
 4181TIP3    H112549   2.950   5.512   4.754 -0.4075 -1.8851  0.8146
 4181TIP3    H212550   2.939   5.371   4.699  0.9050 -2.0837  1.0239
 4182TIP3   OH212551   2.404   1.793   4.493 -0.2837  0.6472 -0.1768
 4182TIP3    H112552   2.406   1.887   4.477  0.6986  0.7375  0.3711
 4182TIP3    H212553   2.468   1.757   4.432 -1.8301  0.1177 -1.5474
 4183TIP3   OH212554   2.744   1.571   2.372 -0.3146 -0.0216  0.0633
 4183TIP3    H112555   2.718   1.663   2.367  0.8451  0.3599  0.4521
 4183TIP3    H212556   2.832   1.574   2.412  0.0157 -1.2487 -0.5266
 4184TIP3   OH212557   4.257   5.120   4.931 -0.2412 -0.7356 -0.6317
 4184TIP3    H112558   4.220   5.034   4.911  0.7703 -0.7178 -2.8210
 4184TIP3    H212559   4.349   5.114   4.905  0.0689  0.7687 -0.0287
 4185TIP3   OH212560   0.956   2.910   4.159  0.4322  0.2743  0.2592
 4185TIP3    H112561   0.989   2.935   4.073  3.3486  0.2886  1.2949
 4185TIP3    H212562   0.973   2.986   4.215 -0.0144 -0.2897  1.1914
 4186TIP3   OH212563   4.666   1.131   4.578  0.9710 -0.1265  0.0884
 4186TIP3    H112564   4.656   1.185   4.499  1.5572 -0.1518 -0.0119
 4186TIP3    H212565   4.736   1.069   4.555  0.4370 -0.8047  0.2721
 4187TIP3   OH212566   5.496   3.904   0.206 -0.8865  0.0757 -0.5840
 4187TIP3    H112567   5.534   3.990   0.223  1.1500 -0.5182 -1.7891
 4187TIP3    H212568   5.421   3.898   0.265 -0.6065  2.3491  0.0726
 4188TIP3   OH212569   5.059   4.102   4.782 -0.0490 -0.2613  0.0366
 4188TIP3    H112570   5.037   4.173   4.843  1.3810  0.2399 -0.0121
 4188TIP3    H212571   5.146   4.073   4.808 -0.3574 -1.6246 -0.3302
 4189TIP3   OH212572   3.895   3.634   1.869  0.0308 -0.0750 -0.2113
 4189TIP3    H112573   3.846   3.650   1.789  0.4494 -0.6056 -0.5837
 4189TIP3    H212574   3.928   3.720   1.896  0.8898 -0.0588 -1.2702
 4190TIP3   OH212575   1.908   3.663   2.079 -0.0175  0.2434 -0.7643
 4190TIP3    H112576   1.933   3.745   2.036 -1.6277  1.1676 -0.0554
 4190TIP3    H212577   1.815   3.674   2.098 -0.6671 -2.4074 -2.0225
 4191TIP3   OH212578   4.622   5.359   1.987  0.3844  0.0510  0.3505
 4191TIP3    H112579   4.666   5.297   2.046  1.6073 -1.7762 -2.3016
 4191TIP3    H212580   4.542   5.314   1.961 -1.1914  1.7051  2.0458
 4192TIP3   OH212581   6.228   0.353   2.277 -0.1563  0.3967 -0.0680
 4192TIP3    H112582   6.241   0.434   2.227  0.2348  0.9378  0.9034
 4192TIP3    H212583   6.153   0.311   2.234  1.1254  0.0424 -2.1249
 4193TIP3   OH212584   1.367   2.653   0.407  0.0474 -0.2693 -0.0894
 4193TIP3    H112585   1.350   2.601   0.329  0.3331 -1.0432  0.3464
 4193TIP3    H212586   1.442   2.610   0.448 -0.4805 -0.2483  0.9306
 4194TIP3   OH212587   4.080   3.322   3.974  0.1182 -0.1585 -0.5023
 4194TIP3    H112588   4.153   3.263   3.959 -0.1075 -0.6724  0.3226
 4194TIP3    H212589   4.097   3.360   4.060 -1.9297 -2.3952  1.0380
 4195TIP3   OH212590   0.815   5.246   3.536  0.0332 -0.3670  0.3908
 4195TIP3    H112591   0.731   5.291   3.525  1.1177  1.7038 -0.0442
 4195TIP3    H212592   0.849   5.278   3.620  1.6983  1.3023 -0.8077
 4196TIP3   OH212593   0.110   3.111   5.052  0.2978  0.3753 -0.4746
 4196TIP3    H112594   0.027   3.070   5.028 -0.9777  1.2087  2.1593
 4196TIP3    H212595   0.088   3.201   5.073  2.1144  0.9647 -0.8462
 4197TIP3   OH212596   2.327   3.910   4.625 -0.2602 -0.4121  0.4372
 4197TIP3    H112597   2.281   3.856   4.561  0.6208  1.2765 -1.7178
 4197TIP3    H212598   2.361   3.847   4.689 -2.0349 -2.0597 -0.1453
 4198TIP3   OH212599   1.605   5.260   3.252  0.3748 -0.2055 -0.2713
 4198TIP3    H112600   1.544   5.310   3.306  1.7072  0.3279  0.8158
 4198TIP3    H212601   1.602   5.172   3.289  0.0290 -0.2535 -0.4168
 4199TIP3   OH212602   4.782   3.559   3.141 -0.5941 -0.3930  0.4073
 4199TIP3    H112603   4.686   3.570   3.139 -0.8913 -1.7974  2.8105
 4199TIP3    H212604   4.805   3.574   3.233  1.6637  0.8106 -0.2921
 4200TIP3   OH212605   5.937   3.755   3.166  0.2705 -0.5745 -0.2213
 4200TIP3    H112606   5.865   3.757   3.103 -0.4880 -0.7777  0.6215
 4200TIP3    H212607   5.927   3.672   3.213 -0.3714  0.4039  1.4902
 4201TIP3   OH212608  -0.010   0.308   3.629  0.2666  0.1569 -0.4230
 4201TIP3    H112609   0.013   0.268   3.546  1.9827 -0.2971  0.2316
 4201TIP3    H212610   0.023   0.397   3.624  1.5599 -0.2592  0.2254
 4202TIP3   OH212611   4.079   4.176   4.808 -0.0888  0.0223  0.3199
 4202TIP3    H112612   4.004   4.163   4.750 -0.3632  0.6727  0.5184
 4202TIP3    H212613   4.062   4.118   4.882  0.0981 -0.5636 -0.0879
 4203TIP3   OH212614   2.011   5.113   2.374 -0.1388  0.3450  0.0200
 4203TIP3    H112615   1.981   5.033   2.415  0.4950 -0.1681 -0.4985
 4203TIP3    H212616   2.085   5.142   2.427 -0.3252  0.5537  0.1687
 4204TIP3   OH212617   5.563   1.759   1.558 -0.5530  0.1792  0.1142
 4204TIP3    H112618   5.591   1.745   1.648 -1.0033 -1.2795  0.0521
 4204TIP3    H212619   5.642   1.750   1.506 -0.6328 -1.0983  0.1919
 4205TIP3   OH212620   6.278   4.138   4.670  0.7495  0.0461 -0.3680
 4205TIP3    H112621   6.288   4.207   4.736  0.8883 -0.8116  0.5279
 4205TIP3    H212622   6.355   4.082   4.682  0.9338  0.0402 -1.4723
 4206TIP3   OH212623   0.432   3.545   4.473 -0.3535  0.5247 -0.0185
 4206TIP3    H112624   0.365   3.481   4.449 -0.8042  0.8875  0.2539
 4206TIP3    H212625   0.499   3.535   4.406  0.3443 -1.3392  0.8751
 4207TIP3   OH212626   5.469   3.706   3.399  0.4897  0.1684 -0.9245
 4207TIP3    H112627   5.496   3.796   3.383  1.7894  0.1593  0.8534
 4207TIP3    H212628   5.387   3.714   3.448 -0.0984  0.3327 -1.9172
 4208TIP3   OH212629   0.997   0.542   1.289  0.3813  0.2424 -0.2917
 4208TIP3    H112630   0.904   0.552   1.310 -0.2207 -2.4194 -1.2792
 4208TIP3    H212631   1.030   0.481   1.355  1.0623 -0.0020 -0.8513
 4209TIP3   OH212632   1.578   4.485   1.331 -0.1388 -0.1277  0.0539
 4209TIP3    H112633   1.534   4.568   1.354  0.0280 -0.0695  0.1634
 4209TIP3    H212634   1.513   4.418   1.351 -0.1173 -0.0543  0.3859
 4210TIP3   OH212635   2.821   3.507   1.823 -0.0221  0.1477  0.2305
 4210TIP3    H112636   2.917   3.508   1.823 -0.0065 -0.7898  0.2930
 4210TIP3    H212637   2.797   3.425   1.780 -0.7359 -1.1984  2.9346
 4211TIP3   OH212638   5.239   1.097   2.709  0.1593 -0.2098  0.5428
 4211TIP3    H112639   5.185   1.089   2.631  0.1137 -0.8487  0.6318
 4211TIP3    H212640   5.295   1.019   2.708  1.0502  0.4135  0.4729
 4212TIP3   OH212641   1.878   0.061   4.136  0.4669 -0.6254 -0.6576
 4212TIP3    H112642   1.782   0.058   4.137  0.4185  0.4425  1.3717
 4212TIP3    H212643   1.899   0.128   4.070 -0.4133  2.5373  2.0140
 4213TIP3   OH212644   4.213   3.762   0.438  0.0780 -0.1133  0.3238
 4213TIP3    H112645   4.220   3.831   0.373  0.6962 -0.5209 -0.0548
 4213TIP3    H212646   4.165   3.692   0.394  0.5455 -0.4112  0.2810
 4214TIP3   OH212647   3.864   3.799   2.624 -0.0530  0.6587 -0.3661
 4214TIP3    H112648   3.793   3.765   2.678  0.6142  0.0746  0.1673
 4214TIP3    H212649   3.905   3.867   2.676  0.9208 -0.2618  0.1135
 4215TIP3   OH212650   2.948   0.805   4.227 -0.1547  0.5673  0.5052
 4215TIP3    H112651   2.990   0.852   4.156  0.2999  1.0767  1.0974
 4215TIP3    H212652   2.922   0.721   4.188 -1.7607  1.6148 -0.7858
 4216TIP3   OH212653   4.225   1.340   4.541  0.2759 -0.6609  0.2585
 4216TIP3    H112654   4.243   1.333   4.447 -0.7234 -0.1457  0.0200
 4216TIP3    H212655   4.283   1.275   4.581  0.0813 -1.5023 -0.7910
 4217TIP3   OH212656   2.588   3.515   5.090  0.2466  0.5157 -0.1797
 4217TIP3    H112657   2.608   3.423   5.108  0.2627  0.5943  0.2140
 4217TIP3    H212658   2.595   3.558   5.175 -1.2349  0.6135 -0.0808
 4218TIP3   OH212659   5.398   1.674   3.495 -0.4282  0.0838  0.0219
 4218TIP3    H112660   5.422   1.732   3.567 -0.1826 -0.6321  0.5305
 4218TIP3    H212661   5.329   1.721   3.448 -0.3412  0.7119  0.5145
 4219TIP3   OH212662   0.602   4.395   3.492  0.3546  0.4119  0.0737
 4219TIP3    H112663   0.602   4.490   3.487 -1.4547  0.4088 -0.9621
 4219TIP3    H212664   0.571   4.375   3.580 -1.0841  0.8451 -0.2988
 4220TIP3   OH212665   5.214   1.775   4.371  0.7538 -0.2612 -0.3752
 4220TIP3    H112666   5.192   1.843   4.434 -0.7359 -0.6259 -0.4677
 4220TIP3    H212667   5.304   1.751   4.392 -0.0880 -1.2683  2.4856
 4221TIP3   OH212668   4.527   1.893   4.637 -0.3455 -0.4018  0.1367
 4221TIP3    H112669   4.578   1.860   4.711  1.6999  0.8634 -0.6427
 4221TIP3    H212670   4.592   1.916   4.571 -1.9306  1.3512 -0.8973
 4222TIP3   OH212671   2.617   0.403   0.931 -0.3478  0.6766 -0.2786
 4222TIP3    H112672   2.695   0.348   0.920 -0.1883  0.0778  2.9814
 4222TIP3    H212673   2.545   0.350   0.897  0.0002 -1.0659  1.5183
 4223TIP3   OH212674   3.743   1.148   0.485 -0.7200  0.2632  0.2280
 4223TIP3    H112675   3.737   1.054   0.505 -0.9132  0.5764  1.7398
 4223TIP3    H212676   3.672   1.164   0.422  0.2741 -0.8774 -1.2759
 4224TIP3   OH212677   4.129   3.438   1.209  0.7909  0.2393  0.1958
 4224TIP3    H112678   4.039   3.424   1.240  1.1559  0.2255  1.3135
 4224TIP3    H212679   4.121   3.506   1.142  0.0670  1.1420  1.1461
 4225TIP3   OH212680   6.207   3.172   4.825 -0.5323 -0.2230 -0.0263
 4225TIP3    H112681   6.194   3.156   4.919  0.3145 -1.1997 -0.0583
 4225TIP3    H212682   6.155   3.251   4.807  0.2055  0.6553  1.4952
 4226TIP3   OH212683   3.412   2.231   4.096  0.3493 -0.5637  0.0123
 4226TIP3    H112684   3.383   2.146   4.062 -0.4010 -0.5888  0.6821
 4226TIP3    H212685   3.427   2.215   4.190 -1.2755  0.3814  0.4647
 4227TIP3   OH212686   4.013   4.683   3.474  0.1902  0.4617  0.3715
 4227TIP3    H112687   4.006   4.776   3.495 -1.3622  0.7587 -1.2236
 4227TIP3    H212688   3.926   4.648   3.489  0.2436 -0.2968 -0.9558
 4228TIP3   OH212689   3.882   1.487   1.870 -0.3507  0.4824  0.2295
 4228TIP3    H112690   3.823   1.502   1.796 -0.2218 -0.2002 -0.0161
 4228TIP3    H212691   3.969   1.506   1.836  0.0621 -2.4932 -0.6638
 4229TIP3   OH212692   3.674   2.041   1.577  0.2636 -0.1468 -0.0505
 4229TIP3    H112693   3.593   2.067   1.534 -0.2465 -0.0700  0.9452
 4229TIP3    H212694   3.648   1.971   1.637  1.0091 -0.4182 -0.0353
 4230TIP3   OH212695   5.407   2.297   0.533  0.5530 -0.1664  0.1886
 4230TIP3    H112696   5.384   2.236   0.604 -1.7949  0.8535  0.3804
 4230TIP3    H212697   5.344   2.278   0.464 -0.0467  1.7981  0.1385
 4231TIP3   OH212698   5.592   0.965   0.901 -0.3044  0.4344 -0.2353
 4231TIP3    H112699   5.519   0.954   0.840 -0.2424  0.4935 -0.3207
 4231TIP3    H212700   5.666   0.924   0.856 -0.5596 -0.7857  0.3909
 4232TIP3   OH212701   6.145   3.827   3.559  0.1404  0.0601  0.6786
 4232TIP3    H112702   6.156   3.853   3.651  1.6959 -2.5370  1.3321
 4232TIP3    H212703   6.080   3.757   3.562  2.6076 -2.3985  0.3723
 4233TIP3   OH212704   1.004   3.496   2.962  0.0587  0.1361 -0.7339
 4233TIP3    H112705   1.093   3.529   2.973 -0.2942  0.6756  0.8559
 4233TIP3    H212706   1.004   3.453   2.877  2.5324 -2.0957  0.2751
 4234TIP3   OH212707   3.737   0.699   3.658  0.7961 -0.5164 -0.1128
 4234TIP3    H112708   3.690   0.694   3.741  0.9120  0.1199 -0.0033
 4234TIP3    H212709   3.677   0.746   3.599  0.9408 -0.4656 -0.2209
 4235TIP3   OH212710   4.489   0.430   4.674 -0.0992 -0.4760  0.1788
 4235TIP3    H112711   4.478   0.402   4.583  0.7610 -1.2038  0.2849
 4235TIP3    H212712   4.411   0.482   4.692 -0.4640 -0.6287 -0.8591
 4236TIP3   OH212713   3.348   0.180   4.962 -0.2398  0.1733  0.1941
 4236TIP3    H112714   3.389   0.208   5.044 -1.9991  0.0175  1.1768
 4236TIP3    H212715   3.420   0.144   4.910  1.2715  2.0826  0.8302
 4237TIP3   OH212716   5.987   5.647   4.145 -0.0336  0.2247 -0.3357
 4237TIP3    H112717   5.958   5.722   4.197  1.6416  0.7640 -0.1029
 4237TIP3    H212718   5.969   5.672   4.054 -1.7640 -0.1637 -0.1174
 4238TIP3   OH212719   3.380   0.059   1.280  0.3414 -0.6839  0.6428
 4238TIP3    H112720   3.460   0.013   1.256  0.8080  0.4190 -0.0056
 4238TIP3    H212721   3.336   0.075   1.197  1.4985  2.3107  0.4722
 4239TIP3   OH212722   2.124   3.545   2.200 -0.1194  0.3298 -0.1462
 4239TIP3    H112723   2.041   3.576   2.162 -0.6541 -0.6001  0.2380
 4239TIP3    H212724   2.113   3.450   2.208  0.9465  0.2083  0.0210
 4240TIP3   OH212725   4.527   2.824   4.964 -0.5145  0.1535 -0.4152
 4240TIP3    H112726   4.483   2.796   5.044 -0.2512 -1.6404 -0.8683
 4240TIP3    H212727   4.533   2.920   4.973 -1.8223  0.1455  0.9979
 4241TIP3   OH212728   4.024   0.582   4.548  0.1068 -0.4867 -0.2815
 4241TIP3    H112729   4.034   0.596   4.454  0.4006  0.7234 -0.0888
 4241TIP3    H212730   3.934   0.608   4.567  0.2837  0.0351 -0.1180
 4242TIP3   OH212731   1.912   1.508   3.176  0.3098 -0.3770  0.0371
 4242TIP3    H112732   1.912   1.567   3.252  0.3972  0.2224 -0.4279
 4242TIP3    H212733   1.820   1.484   3.164  0.3302 -0.7182  0.5149
 4243TIP3   OH212734   2.697   1.830   3.356 -0.3951  0.9892  0.9226
 4243TIP3    H112735   2.605   1.853   3.364 -0.9362 -0.5931 -0.2410
 4243TIP3    H212736   2.733   1.897   3.298 -1.1634  0.8145  0.2242
 4244TIP3   OH212737   2.335   5.527   0.345  0.5553 -0.0891  0.0680
 4244TIP3    H112738   2.274   5.508   0.273  0.7069 -0.9594  0.1557
 4244TIP3    H212739   2.349   5.621   0.341  0.3599 -0.0962 -0.8851
 4245TIP3   OH212740   4.092   5.911   4.835  0.5707  0.0992 -0.0678
 4245TIP3    H112741   4.130   5.834   4.879  1.1696 -0.2483 -1.1638
 4245TIP3    H212742   4.011   5.928   4.883  2.6157  1.6422  3.1749
 4246TIP3   OH212743   0.592   4.384   4.493 -0.1880  0.7435 -0.2312
 4246TIP3    H112744   0.555   4.377   4.581  2.9279 -1.6875  1.1024
 4246TIP3    H212745   0.631   4.472   4.491  0.1743  0.6450  1.0967
 4247TIP3   OH212746   2.399   4.134   3.217 -0.0833 -0.0763  0.0889
 4247TIP3    H112747   2.405   4.168   3.307 -0.3613 -1.0046  0.4677
 4247TIP3    H212748   2.340   4.195   3.173 -0.5342 -0.0279  0.7384
 4248TIP3   OH212749   2.971   2.126   2.357  0.3608  0.0582  0.0538
 4248TIP3    H112750   2.928   2.199   2.313 -1.2959  0.4673  2.1826
 4248TIP3    H212751   3.032   2.167   2.418 -0.0334 -0.3412  0.7280
 4249TIP3   OH212752   5.588   3.951   3.290 -0.7936  0.3251 -0.2942
 4249TIP3    H112753   5.676   3.968   3.254 -0.3143 -1.1948  0.0727
 4249TIP3    H212754   5.534   3.933   3.213 -0.6431  0.7202 -0.4915
 4250TIP3   OH212755   3.021   3.409   1.226 -0.3941  0.1050  0.1649
 4250TIP3    H112756   2.968   3.329   1.221 -0.9218  0.4543  0.0024
 4250TIP3    H212757   3.104   3.386   1.185 -0.3494 -0.5157  0.6028
 4251TIP3   OH212758   3.091   5.837   3.460  0.3625  0.2585 -0.1040
 4251TIP3    H112759   3.017   5.854   3.403  0.3383  0.2843 -0.0652
 4251TIP3    H212760   3.168   5.861   3.408  0.2377  2.6156  0.6827
 4252TIP3   OH212761   5.633   0.892   0.302 -0.1498  0.1103 -0.7248
 4252TIP3    H112762   5.610   0.841   0.224 -1.5375  0.8281 -0.8178
 4252TIP3    H212763   5.629   0.983   0.272  1.6339  0.3286 -0.3953
 4253TIP3   OH212764   2.425   1.357   1.556 -0.4260  0.4812  0.0403
 4253TIP3    H112765   2.338   1.396   1.543 -0.7297 -0.2504 -0.1251
 4253TIP3    H212766   2.485   1.422   1.520 -0.8531  1.2576  0.6615
 4254TIP3   OH212767   0.459   0.967   1.944 -0.1242 -0.2569  0.2131
 4254TIP3    H112768   0.452   0.909   1.869 -2.5562  0.4922 -0.2347
 4254TIP3    H212769   0.456   0.908   2.020 -3.3850 -0.8446 -0.1993
 4255TIP3   OH212770   2.049   4.088   2.161 -0.3896  0.4977 -0.2944
 4255TIP3    H112771   2.026   4.140   2.237 -1.5167 -2.0673  1.2687
 4255TIP3    H212772   2.134   4.051   2.182  0.0760  1.1019 -1.0666
 4256TIP3   OH212773   1.551   1.688   2.341 -0.3153 -0.1425  0.7003
 4256TIP3    H112774   1.458   1.700   2.324 -0.5718 -0.5990  1.7037
 4256TIP3    H212775   1.558   1.689   2.437  0.7054 -0.1452  0.6352
 4257TIP3   OH212776   6.309   4.164   4.056 -0.8680 -0.0796 -0.2915
 4257TIP3    H112777   6.267   4.222   4.118 -0.2016  0.8736 -0.7089
 4257TIP3    H212778   6.381   4.124   4.105 -0.2924  0.7325 -0.4542
 4258TIP3   OH212779   4.569   5.020   2.299  0.2841 -0.1217  0.0238
 4258TIP3    H112780   4.618   4.990   2.376  0.7896  0.7962  0.0759
 4258TIP3    H212781   4.577   5.116   2.302  0.2479 -0.0746 -1.1331
 4259TIP3   OH212782   3.584   5.680   3.402  0.3079 -0.2359 -0.4261
 4259TIP3    H112783   3.496   5.644   3.395  0.1812  0.1641 -0.9852
 4259TIP3    H212784   3.627   5.654   3.321  0.7568 -0.5627 -0.0850
 4260TIP3   OH212785   1.724   1.586   4.619  0.3428 -0.2423  0.0664
 4260TIP3    H112786   1.801   1.541   4.655  0.7407  0.6588  0.4040
 4260TIP3    H212787   1.740   1.678   4.641 -1.0194 -0.0896  0.4667
 4261TIP3   OH212788   3.553   1.518   1.942 -0.2261  0.3777  0.6430
 4261TIP3    H112789   3.555   1.605   1.981 -1.8842  0.7935 -0.1553
 4261TIP3    H212790   3.607   1.526   1.863  0.9264  0.2379  1.3937
 4262TIP3   OH212791   4.900   3.865   0.065  0.0451  0.4051  0.1138
 4262TIP3    H112792   4.902   3.773   0.090 -1.6400 -0.2598 -1.9351
 4262TIP3    H212793   4.953   3.870  -0.015 -0.1028  1.1622  0.0532
 4263TIP3   OH212794   2.380   2.956   2.565 -0.6711  0.0932  0.0911
 4263TIP3    H112795   2.346   3.040   2.595  0.6767  0.6593  0.1171
 4263TIP3    H212796   2.327   2.891   2.610 -2.2029  0.9142 -0.4558
 4264TIP3   OH212797   5.197   4.099   2.153  0.0086  0.1304  0.5544
 4264TIP3    H112798   5.220   4.191   2.161  0.7861 -0.1406  1.6176
 4264TIP3    H212799   5.104   4.095   2.174  0.0094  0.6485  0.6520
 4265TIP3   OH212800   3.482   0.017   2.782  0.1776 -0.7006 -0.3076
 4265TIP3    H112801   3.485   0.082   2.712  0.3718  0.7249  0.9789
 4265TIP3    H212802   3.569  -0.022   2.782  0.8855  0.7819  0.4578
 4266TIP3   OH212803   1.758   0.221   2.734 -0.1018 -0.9391 -0.7321
 4266TIP3    H112804   1.730   0.244   2.823  0.7267  0.4294 -0.8018
 4266TIP3    H212805   1.818   0.147   2.747 -0.1223 -0.8665 -0.1794
 4267TIP3   OH212806   4.627   2.194   2.277 -0.0865 -0.4006  0.5517
 4267TIP3    H112807   4.667   2.111   2.251 -1.6456 -0.7906 -0.7724
 4267TIP3    H212808   4.676   2.261   2.229  0.6289 -0.6178  0.9695
 4268TIP3   OH212809   4.389   1.046   2.726  0.0656 -0.0889 -0.0520
 4268TIP3    H112810   4.421   1.014   2.811  3.3422  1.9041 -0.3486
 4268TIP3    H212811   4.401   1.141   2.731 -2.4376  0.4075 -1.7657
 4269TIP3   OH212812   2.177   0.302   1.933 -0.3740 -1.1010  0.4280
 4269TIP3    H112813   2.098   0.250   1.949 -1.4518  0.6741  1.1731
 4269TIP3    H212814   2.145   0.392   1.922  1.5478 -0.3214  0.7668
 4270TIP3   OH212815   1.995   4.635   0.826  0.2780 -0.4136  0.8855
 4270TIP3    H112816   2.084   4.601   0.838  0.6484  0.0329 -0.3816
 4270TIP3    H212817   2.004   4.730   0.837  0.7401  0.1081 -2.7146
 4271TIP3   OH212818   4.275   5.356   2.077  0.1276 -0.2215 -0.1750
 4271TIP3    H112819   4.278   5.447   2.049 -0.8929 -0.5028 -1.2935
 4271TIP3    H212820   4.303   5.307   1.999  0.3039 -0.8787  0.2962
 4272TIP3   OH212821   3.921   2.733   0.656 -0.1371 -0.3488  0.2227
 4272TIP3    H112822   3.980   2.679   0.709  1.2144  1.6747  0.8926
 4272TIP3    H212823   3.855   2.764   0.718 -0.8028 -1.0273 -0.1243
 4273TIP3   OH212824   3.477   3.938   5.119  0.1119 -0.5566 -0.3750
 4273TIP3    H112825   3.383   3.920   5.110 -0.1199 -1.2412  2.5277
 4273TIP3    H212826   3.489   4.024   5.078 -1.7082 -0.5901 -1.0731
 4274TIP3   OH212827   0.172   2.455   1.746  0.1702 -0.4882 -0.0654
 4274TIP3    H112828   0.091   2.507   1.735  0.3445 -0.2092 -0.0495
 4274TIP3    H212829   0.175   2.401   1.667 -0.3627 -0.9626  0.2340
 4275TIP3   OH212830   3.084   2.099   5.152 -0.4168  0.2850  0.3335
 4275TIP3    H112831   3.112   2.096   5.061 -1.0656  0.9997  0.0986
 4275TIP3    H212832   3.003   2.047   5.154 -1.0582  1.2577  0.2429
 4276TIP3   OH212833   4.769   0.550   0.553  0.2331 -0.5818 -0.2159
 4276TIP3    H112834   4.744   0.581   0.640 -1.0339 -1.0539 -0.3939
 4276TIP3    H212835   4.699   0.489   0.528  0.0644  0.2631 -1.9621
 4277TIP3   OH212836   6.168   0.779   2.638 -0.2010  0.2836  0.6344
 4277TIP3    H112837   6.204   0.810   2.721  1.0712 -0.6883  0.4561
 4277TIP3    H212838   6.184   0.685   2.637 -0.0423  0.2950 -0.7836
 4278TIP3   OH212839   5.938   5.217   2.951  0.1557 -0.7402 -0.1746
 4278TIP3    H112840   5.928   5.123   2.968 -0.5473 -0.6199  0.1104
 4278TIP3    H212841   6.004   5.246   3.014  0.0602 -0.9611  0.0280
 4279TIP3   OH212842   4.392   1.692   2.056  0.0451  0.3775 -0.3219
 4279TIP3    H112843   4.339   1.617   2.083 -1.2086  1.8982  1.8980
 4279TIP3    H212844   4.408   1.679   1.963 -3.3048 -0.8131 -0.8889
 4280TIP3   OH212845   0.182   4.066   3.256 -0.1218 -0.7802  0.3526
 4280TIP3    H112846   0.134   4.051   3.338  1.4393 -1.8780  1.1259
 4280TIP3    H212847   0.251   4.128   3.280  2.6591 -3.8107  0.9431
 4281TIP3   OH212848   1.644   1.707   2.022  0.0709 -0.4027  0.1048
 4281TIP3    H112849   1.658   1.628   2.074 -0.0440  0.1748  1.0339
 4281TIP3    H212850   1.565   1.747   2.059  0.6501  0.6344  0.2865
 4282TIP3   OH212851   5.120   1.481   1.204 -0.6920  0.0130  0.0984
 4282TIP3    H112852   5.029   1.511   1.204 -1.3768 -1.8980  0.7062
 4282TIP3    H212853   5.171   1.557   1.177 -2.5396  0.9421 -0.9418
 4283TIP3   OH212854   3.170   1.896   0.851 -0.0028 -0.1550  0.2576
 4283TIP3    H112855   3.091   1.918   0.801 -0.4615 -1.0841  0.5547
 4283TIP3    H212856   3.150   1.926   0.940 -0.1550 -0.6845  0.4030
 4284TIP3   OH212857   2.621   2.434   2.490 -0.1301  0.0832 -0.4004
 4284TIP3    H112858   2.564   2.465   2.560 -1.9490  1.6233 -2.4061
 4284TIP3    H212859   2.654   2.514   2.449  1.6859 -0.7798 -0.6933
 4285TIP3   OH212860   3.634   4.492   1.908  0.7504  0.0347 -0.0683
 4285TIP3    H112861   3.576   4.555   1.952 -1.3484 -1.8610  0.0557
 4285TIP3    H212862   3.628   4.516   1.816  0.3983  0.3447  0.0305
 4286TIP3   OH212863   5.032   1.621   3.422  0.3509  0.1147 -0.1938
 4286TIP3    H112864   5.030   1.714   3.397  1.0306  1.0588  2.7876
 4286TIP3    H212865   5.121   1.593   3.401  0.4176  0.4044 -0.3087
 4287TIP3   OH212866   0.872   3.477   2.359 -0.0373  0.2933 -0.2936
 4287TIP3    H112867   0.865   3.478   2.263  1.4796 -1.7907 -0.5039
 4287TIP3    H212868   0.896   3.567   2.382  0.0482  0.7236 -1.9280
 4288TIP3   OH212869   2.399   1.626   4.937  0.2166  0.1684 -0.1544
 4288TIP3    H112870   2.333   1.652   5.002 -0.3520  1.6303 -1.2720
 4288TIP3    H212871   2.422   1.707   4.893  1.6337 -0.5873 -0.8535
 4289TIP3   OH212872   2.494   2.056   5.073 -0.4254 -0.6273  0.3790
 4289TIP3    H112873   2.531   2.117   5.137 -1.7560  0.1927  0.4009
 4289TIP3    H212874   2.517   1.969   5.107  1.0693 -0.1683  0.6132
 4290TIP3   OH212875   0.896   1.621   1.412 -0.7917  0.2992  0.7581
 4290TIP3    H112876   0.893   1.600   1.319 -0.2224 -0.6759  0.9535
 4290TIP3    H212877   0.879   1.716   1.416  1.3308  0.7948 -0.5251
 4291TIP3   OH212878   0.429   2.057   3.819 -0.7252  0.3703 -0.3451
 4291TIP3    H112879   0.395   2.144   3.798  0.2088  0.8221 -0.0006
 4291TIP3    H212880   0.524   2.068   3.823 -0.6525 -0.4701  0.6100
 4292TIP3   OH212881   4.420   4.945   0.889 -0.0864 -0.1481 -0.0629
 4292TIP3    H112882   4.420   4.939   0.794 -0.7609 -1.0452 -0.0172
 4292TIP3    H212883   4.387   5.033   0.908 -0.6513 -0.2292 -0.6452
 4293TIP3   OH212884   6.148   0.076   1.629 -0.3882  0.2637 -0.7646
 4293TIP3    H112885   6.193   0.123   1.558 -0.3235  2.1402  0.4488
 4293TIP3    H212886   6.218   0.034   1.678 -0.1467  1.1661 -0.3033
 4294TIP3   OH212887   1.811   3.400   0.273 -0.5612  0.4351 -1.3049
 4294TIP3    H112888   1.725   3.396   0.232 -1.0061  2.4205 -0.7051
 4294TIP3    H212889   1.806   3.339   0.346 -2.4876  2.4456  0.3961
 4295TIP3   OH212890   0.815   5.901   2.631 -0.0875 -0.1029  0.3339
 4295TIP3    H112891   0.861   5.948   2.562 -0.3476 -0.6289 -0.2093
 4295TIP3    H212892   0.733   5.873   2.591 -0.4202 -0.0743  0.9776
 4296TIP3   OH212893   4.263   0.562   4.709 -0.0884  0.0894 -0.0481
 4296TIP3    H112894   4.175   0.552   4.672 -0.1577 -0.2349  0.1997
 4296TIP3    H212895   4.253   0.630   4.776 -0.0422  0.4136 -0.3700
 4297TIP3   OH212896   0.899   4.453   3.181 -0.7185 -0.3836 -0.3113
 4297TIP3    H112897   0.848   4.520   3.226 -1.0906 -1.4955  1.0042
 4297TIP3    H212898   0.855   4.442   3.096 -1.8919 -0.3971  0.2800
 4298TIP3   OH212899   3.009   0.262   0.248  0.5614 -0.4020 -0.4582
 4298TIP3    H112900   3.081   0.202   0.228  0.0813 -1.1641  0.0582
 4298TIP3    H212901   2.938   0.235   0.190  0.7770  0.5712 -1.2146
 4299TIP3   OH212902   0.879   1.717   1.743  0.0421  0.2412 -0.2287
 4299TIP3    H112903   0.953   1.673   1.702  0.0209 -0.7842  0.7701
 4299TIP3    H212904   0.802   1.680   1.700  0.0935  1.3093 -1.2690
 4300TIP3   OH212905   2.653   0.227   0.356 -0.1865  0.5069 -0.0063
 4300TIP3    H112906   2.628   0.139   0.385  2.4469 -0.1149  0.7279
 4300TIP3    H212907   2.729   0.212   0.299  0.3498  2.2883  0.1762
 4301TIP3   OH212908   1.570   2.847   1.753  0.3680  0.2404 -0.7591
 4301TIP3    H112909   1.587   2.855   1.847 -2.0757  0.7721 -0.3141
 4301TIP3    H212910   1.583   2.936   1.718  0.2795  0.2604 -0.7413
 4302TIP3   OH212911   5.350   0.712   1.054 -0.5673 -0.5839  0.1585
 4302TIP3    H112912   5.291   0.748   0.987  0.3641  1.7868  0.4932
 4302TIP3    H212913   5.291   0.685   1.125 -1.4001 -0.7423 -0.5720
 4303TIP3   OH212914   1.029   3.111   0.040  0.1670  0.2827  0.1269
 4303TIP3    H112915   1.093   3.042   0.054  0.8487  0.6317 -1.1127
 4303TIP3    H212916   1.071   3.190   0.075 -1.5620 -0.2166  3.8215
 4304TIP3   OH212917   5.865   4.575   5.031  0.1736 -0.3514 -0.2890
 4304TIP3    H112918   5.860   4.480   5.036 -2.4399 -0.2132  1.5500
 4304TIP3    H212919   5.943   4.598   5.081 -1.1539 -1.4258  2.4650
 4305TIP3   OH212920   5.482   5.228   2.183 -0.0356 -0.6966  0.1616
 4305TIP3    H112921   5.410   5.288   2.203  2.0315  1.7666  0.6444
 4305TIP3    H212922   5.508   5.193   2.268 -0.4521 -1.3845  0.0161
 4306TIP3   OH212923   4.098   2.097   3.052 -0.0044 -0.3491 -0.1229
 4306TIP3    H112924   4.163   2.160   3.022 -0.3478  0.0240 -0.0853
 4306TIP3    H212925   4.116   2.018   3.001  0.6145 -0.3181  0.0459
 4307TIP3   OH212926   3.875   4.684   0.676 -0.6180  0.5862  0.9588
 4307TIP3    H112927   3.904   4.630   0.749 -0.0819  1.3494  1.3233
 4307TIP3    H212928   3.936   4.662   0.605 -1.0406 -0.0379  0.7795
 4308TIP3   OH212929   0.604   0.550   3.581  0.1817  0.1907 -0.0363
 4308TIP3    H112930   0.573   0.634   3.614  1.2208 -0.2997  2.3516
 4308TIP3    H212931   0.674   0.524   3.641  0.2790 -2.1308 -1.0319
 4309TIP3   OH212932   1.158   0.114   2.958 -0.1901 -0.1958  0.1387
 4309TIP3    H112933   1.125   0.100   2.869  0.4757  3.0225 -0.7592
 4309TIP3    H212934   1.253   0.109   2.949 -0.1045  0.5165  0.5574
 4310TIP3   OH212935   0.821   3.048   0.643 -0.4107  0.3283  0.4220
 4310TIP3    H112936   0.738   3.095   0.647 -0.6745  0.4423 -3.1221
 4310TIP3    H212937   0.887   3.115   0.629  0.0745  0.0913  1.4805
 4311TIP3   OH212938   5.597   2.398   3.388 -0.3407  0.7193  0.0643
 4311TIP3    H112939   5.614   2.343   3.464 -3.2453 -0.8184 -0.2728
 4311TIP3    H212940   5.663   2.372   3.324 -1.6279 -2.5357 -0.1133
 4312TIP3   OH212941   0.912   2.733   4.397 -0.2584  0.1417  0.1067
 4312TIP3    H112942   0.932   2.766   4.310  0.5544  1.0786  0.6344
 4312TIP3    H212943   0.936   2.641   4.394 -1.3818 -0.1331 -1.0161
 4313TIP3   OH212944   2.388   2.430   1.863  0.4919 -0.4394  0.6348
 4313TIP3    H112945   2.415   2.519   1.884 -0.4004 -0.2995  1.2641
 4313TIP3    H212946   2.422   2.377   1.935  0.5910 -0.5253  0.5246
 4314TIP3   OH212947   2.511   4.960   4.572 -0.3411 -0.7718  0.5871
 4314TIP3    H112948   2.477   5.043   4.606  0.2910 -0.6707  0.9986
 4314TIP3    H212949   2.597   4.983   4.537  0.5499 -1.5403  2.1636
 4315TIP3   OH212950   0.797   1.793   3.137  0.2868 -0.0538 -0.2775
 4315TIP3    H112951   0.847   1.768   3.058 -0.1795  0.2147 -0.6623
 4315TIP3    H212952   0.762   1.880   3.116  0.6547  0.2789  0.4650
 4316TIP3   OH212953   4.994   0.816   4.192 -0.5717  0.1544  0.1811
 4316TIP3    H112954   4.989   0.911   4.199 -1.6301  0.1596 -0.4479
 4316TIP3    H212955   4.934   0.783   4.258  0.0545 -0.0962  0.6372
 4317TIP3   OH212956   5.826   0.513   0.668  0.6107  0.0019  0.2020
 4317TIP3    H112957   5.788   0.428   0.646  0.8915 -0.1449  0.2877
 4317TIP3    H212958   5.773   0.577   0.620 -2.0286  0.1206  2.9361
 4318TIP3   OH212959   0.471   0.231   0.019 -0.3381  0.4498  0.4464
 4318TIP3    H112960   0.522   0.151   0.033  2.7930  1.8756 -1.6213
 4318TIP3    H212961   0.456   0.265   0.107  2.1119 -0.2589  1.2386
 4319TIP3   OH212962   0.777   0.076   2.140  0.2880 -0.1519 -0.0849
 4319TIP3    H112963   0.845   0.009   2.127 -0.0527 -0.2581 -1.4938
 4319TIP3    H212964   0.706   0.049   2.081  0.9401  2.5367 -2.3370
 4320TIP3   OH212965   5.780   1.776   4.779 -0.4181  0.4581 -0.0565
 4320TIP3    H112966   5.779   1.847   4.714 -0.2923  0.0859 -0.4732
 4320TIP3    H212967   5.868   1.738   4.771 -0.2054  0.7720  0.7337
 4321TIP3   OH212968   5.559   4.848   4.044  0.6644  0.1355  0.4770
 4321TIP3    H112969   5.619   4.917   4.072  0.0058  1.1354 -0.5147
 4321TIP3    H212970   5.610   4.796   3.981  0.2621  1.4933 -1.0214
 4322TIP3   OH212971   4.771   5.124   5.105  0.0879  0.3911  0.3616
 4322TIP3    H112972   4.753   5.204   5.055  0.6087  1.3083  1.5800
 4322TIP3    H212973   4.826   5.154   5.177  0.7148 -1.1741  0.5551
 4323TIP3   OH212974   4.693   4.693   3.044  0.5175 -0.0990  0.0632
 4323TIP3    H112975   4.663   4.634   2.975 -0.5724 -0.8836  1.1740
 4323TIP3    H212976   4.762   4.745   3.003 -0.1749 -0.4705 -1.6356
 4324TIP3   OH212977   1.268   0.563   1.065 -0.0464 -0.0863 -0.1983
 4324TIP3    H112978   1.186   0.515   1.053 -0.1740  0.2037 -0.4852
 4324TIP3    H212979   1.291   0.594   0.978  1.3877 -1.7981 -0.4665
 4325TIP3   OH212980   5.793   0.753   3.772 -0.4776 -0.1582  0.2197
 4325TIP3    H112981   5.743   0.831   3.744 -1.9391 -0.6037  1.4665
 4325TIP3    H212982   5.736   0.709   3.834  1.2579 -1.0442  1.2601
 4326TIP3   OH212983   5.882   5.638   0.297 -0.3975 -0.1243  0.1656
 4326TIP3    H112984   5.847   5.725   0.281 -1.1591 -1.0077 -3.8623
 4326TIP3    H212985   5.807   5.579   0.285  0.9044 -1.5587 -1.4412
 4327TIP3   OH212986   4.205   3.613   3.118 -0.2245  0.4313 -0.1596
 4327TIP3    H112987   4.218   3.598   3.024  1.7651  2.4883 -0.2957
 4327TIP3    H212988   4.186   3.707   3.124  0.3580  0.4542  1.5565
 4328TIP3   OH212989   1.933   4.859   3.794  0.0872 -0.0346 -0.3257
 4328TIP3    H112990   1.847   4.822   3.775  0.1145  0.0582 -0.6416
 4328TIP3    H212991   1.994   4.787   3.776  0.0252 -0.3323  0.6139
 4329TIP3   OH212992   5.167   3.092   0.474 -0.2155  0.0381 -0.5169
 4329TIP3    H112993   5.085   3.058   0.509 -1.0994  2.5923  0.0877
 4329TIP3    H212994   5.231   3.075   0.543 -0.3437 -1.3232 -0.6967
 4330TIP3   OH212995   6.306   4.888   0.247 -0.2856 -0.1069 -0.2670
 4330TIP3    H112996   6.328   4.889   0.153 -2.0314  1.0736 -0.7337
 4330TIP3    H212997   6.313   4.980   0.274 -3.6606  0.3236 -0.3403
 4331TIP3   OH212998   2.355   0.660   3.548 -0.2692  0.0473 -0.0650
 4331TIP3    H112999   2.335   0.570   3.522 -1.4731  0.1287  0.5065
 4331TIP3    H213000   2.433   0.653   3.603 -0.0949 -0.5919 -0.3897
 4332TIP3   OH213001   3.833   4.967   4.578  0.3280 -0.7729 -1.0039
 4332TIP3    H113002   3.818   5.016   4.497  1.7779  0.4329 -0.5872
 4332TIP3    H213003   3.803   5.026   4.648  2.5356 -0.1916 -0.4608
 4333TIP3   OH213004   0.345   5.590   0.611  0.3956 -0.4263 -0.0731
 4333TIP3    H113005   0.326   5.512   0.559  0.5416 -1.3010  1.1542
 4333TIP3    H213006   0.274   5.594   0.675 -0.5806  1.4517 -1.1755
 4334TIP3   OH213007   2.051   4.960   0.708 -0.1049 -0.7990 -0.1240
 4334TIP3    H113008   2.112   5.005   0.649 -0.5960  0.2961  0.1894
 4334TIP3    H213009   2.036   5.022   0.779 -1.1308 -1.2952  0.1046
 4335TIP3   OH213010   1.013   0.570   3.912  0.4699 -0.7643  0.0536
 4335TIP3    H113011   1.092   0.606   3.872 -0.3141 -0.3962 -1.2159
 4335TIP3    H213012   1.045   0.498   3.966  1.6317 -0.9259 -0.7966
 4336TIP3   OH213013   2.856   0.438   1.215 -0.2587 -0.2993 -0.8324
 4336TIP3    H113014   2.839   0.422   1.308 -0.3330 -1.5027 -1.0411
 4336TIP3    H213015   2.939   0.485   1.214 -0.2164 -0.3512 -0.1552
 4337TIP3   OH213016   0.798   5.091   3.992 -0.1371 -0.0136 -0.8373
 4337TIP3    H113017   0.756   5.166   4.034  0.7039  0.3152 -0.5536
 4337TIP3    H213018   0.892   5.109   3.999  0.2338 -2.1000  1.2169
 4338TIP3   OH213019   5.925   0.167   2.417 -0.2568 -0.2985 -0.0051
 4338TIP3    H113020   5.840   0.168   2.462 -0.4413 -0.7770 -0.3409
 4338TIP3    H213021   5.906   0.203   2.330  0.5697  3.1529  1.0943
 4339TIP3   OH213022   2.244   2.377   0.089 -0.3425 -0.2731  0.1253
 4339TIP3    H113023   2.198   2.365   0.006  0.5116 -2.3528 -0.1111
 4339TIP3    H213024   2.336   2.390   0.065 -0.3641  1.1963  0.6964
 4340TIP3   OH213025   4.197   3.603   1.921  0.1357  0.2153  0.0736
 4340TIP3    H113026   4.250   3.634   1.847 -1.1772  0.2919 -0.8599
 4340TIP3    H213027   4.107   3.615   1.893 -0.4647 -2.9823  0.2906
 4341TIP3   OH213028   2.795   1.512   4.758 -0.6256  0.1088 -0.3649
 4341TIP3    H113029   2.844   1.431   4.745 -1.7020 -0.7113  0.4805
 4341TIP3    H213030   2.740   1.495   4.835 -0.4703  1.8385  0.1849
 4342TIP3   OH213031   3.001   1.169   2.045 -0.0154  0.4846  0.1121
 4342TIP3    H113032   2.954   1.246   2.078  2.3238  1.8756  0.3715
 4342TIP3    H213033   2.989   1.103   2.114 -0.9782  1.0240  0.4857
 4343TIP3   OH213034   2.163   1.412   1.930 -0.5364  0.0646  0.0394
 4343TIP3    H113035   2.248   1.368   1.920 -0.5037 -0.2455  1.5299
 4343TIP3    H213036   2.121   1.399   1.845  1.8561  2.3944 -1.6849
 4344TIP3   OH213037   0.973   1.088   3.471  0.0510 -0.0510  0.2279
 4344TIP3    H113038   0.895   1.034   3.483  0.9403 -1.1458  1.3927
 4344TIP3    H213039   1.031   1.034   3.418  0.2580  0.4937 -0.0990
 4345TIP3   OH213040   1.631   3.296   1.455 -0.5726  0.1263  0.2346
 4345TIP3    H113041   1.594   3.372   1.411  0.0819 -0.5905 -1.6160
 4345TIP3    H213042   1.726   3.313   1.457 -0.6290  0.4687  2.0573
 4346TIP3   OH213043   3.738   5.318   3.856  0.0661  0.2708  0.4821
 4346TIP3    H113044   3.728   5.233   3.898 -0.6731 -0.2537 -0.6993
 4346TIP3    H213045   3.697   5.380   3.917 -1.6292 -0.5628  0.2592
 4347TIP3   OH213046   0.738   1.516   1.655  0.3693 -0.4208  0.0315
 4347TIP3    H113047   0.780   1.440   1.695 -0.6741 -0.2754  1.5099
 4347TIP3    H213048   0.779   1.524   1.569  2.7761 -0.7412  1.0553
 4348TIP3   OH213049   3.701   3.323   3.931  0.3776 -0.2855  0.5349
 4348TIP3    H113050   3.751   3.293   3.855 -0.8208 -1.9386  0.3362
 4348TIP3    H213051   3.644   3.391   3.898 -1.6957 -2.4635 -0.6259
 4349TIP3   OH213052   3.308   1.249   3.110 -0.4192  0.2736 -0.3319
 4349TIP3    H113053   3.353   1.229   3.028  0.6177  1.2694 -0.0296
 4349TIP3    H213054   3.363   1.212   3.178 -0.4349  0.8427  0.0024
 4350TIP3   OH213055   2.838   2.531   3.646 -0.7064  0.4885  0.2466
 4350TIP3    H113056   2.869   2.622   3.642 -0.3575  0.3738  0.2320
 4350TIP3    H213057   2.865   2.501   3.733  1.7059 -0.4590 -0.7284
 4351TIP3   OH213058   4.309   0.782   3.755 -0.1897 -0.8315  0.5554
 4351TIP3    H113059   4.219   0.786   3.789 -1.6992 -1.1055 -2.8950
 4351TIP3    H213060   4.336   0.692   3.771 -0.8922 -0.9904  0.9125
 4352TIP3   OH213061   2.971   4.410   2.538  0.1452 -0.2396 -0.5330
 4352TIP3    H113062   3.038   4.387   2.475 -0.5570 -0.3312 -1.2612
 4352TIP3    H213063   2.918   4.477   2.494 -0.1956 -0.1135  0.0548
 4353TIP3   OH213064   3.332   3.821   0.381  0.3300 -0.2316 -0.2035
 4353TIP3    H113065   3.276   3.766   0.327  0.5935  1.7210 -2.6716
 4353TIP3    H213066   3.275   3.892   0.411  0.2136 -1.2365  2.1107
 4354TIP3   OH213067   2.382   5.558   3.330  0.0020 -0.0751  0.3283
 4354TIP3    H113068   2.416   5.471   3.308  1.0217  0.6968 -1.3444
 4354TIP3    H213069   2.292   5.558   3.297  0.4503 -0.0596 -0.9510
 4355TIP3   OH213070   6.140   4.385   5.114  0.6673  0.0431  0.6397
 4355TIP3    H113071   6.047   4.377   5.135  0.7454 -1.1709  0.6044
 4355TIP3    H213072   6.167   4.467   5.155 -0.0864 -0.3058  1.8866
 4356TIP3   OH213073   5.629   1.555   4.590 -0.0233 -0.8106  0.2584
 4356TIP3    H113074   5.612   1.524   4.679 -0.0500  1.0657  0.9537
 4356TIP3    H213075   5.556   1.614   4.571  1.4214  1.0503  0.1531
 4357TIP3   OH213076   4.056   0.449   1.977 -0.5066  0.5193  0.4480
 4357TIP3    H113077   4.131   0.423   1.924 -0.6656 -0.0086  0.4789
 4357TIP3    H213078   3.980   0.426   1.924 -0.7106 -1.4598  1.5251
 4358TIP3   OH213079   4.358   2.234   1.744  0.1056 -0.0729 -0.3558
 4358TIP3    H113080   4.288   2.218   1.807 -0.6847  0.4545 -1.0837
 4358TIP3    H213081   4.314   2.270   1.668  0.9766 -1.2123 -1.4387
 4359TIP3   OH213082   2.452   5.283   4.081 -0.1131 -0.3268 -0.0977
 4359TIP3    H113083   2.432   5.228   4.157 -0.5626  0.9655  0.7597
 4359TIP3    H213084   2.508   5.353   4.117 -0.8908  0.6848 -0.8073
 4360TIP3   OH213085   2.982   5.042   1.803 -0.0461  0.8425 -0.1033
 4360TIP3    H113086   3.072   5.068   1.820 -0.8408  3.4452  0.6091
 4360TIP3    H213087   2.939   5.049   1.889 -0.8466 -0.8740 -0.3197
 4361TIP3   OH213088   5.170   2.374   0.884  0.5446 -0.3233 -0.1117
 4361TIP3    H113089   5.250   2.412   0.849 -0.9069  0.4913 -2.7389
 4361TIP3    H213090   5.195   2.283   0.905  2.2314  0.0124 -0.4830
 4362TIP3   OH213091   6.254   5.158   3.501  0.2073 -0.0731 -0.3266
 4362TIP3    H113092   6.298   5.074   3.488  1.0791  0.1369  1.1133
 4362TIP3    H213093   6.304   5.201   3.570 -0.0738  1.7513 -1.2050
 4363TIP3   OH213094   1.438   0.129   3.681  0.0386  0.1533 -0.1687
 4363TIP3    H113095   1.358   0.180   3.696 -0.2213 -0.4295  0.4691
 4363TIP3    H213096   1.415   0.040   3.707  1.0216  0.0585  0.4196
 4364TIP3   OH213097   3.318   1.709   4.219  0.5829  0.2008  0.2559
 4364TIP3    H113098   3.324   1.690   4.312 -2.1414  0.9662  0.6744
 4364TIP3    H213099   3.275   1.794   4.214 -1.2103 -0.7186 -1.6814
 4365TIP3   OH213100   3.708   3.593   1.307 -0.6955 -0.0005 -0.3028
 4365TIP3    H113101   3.626   3.579   1.354 -1.0383  0.5736 -0.7180
 4365TIP3    H213102   3.722   3.687   1.311  0.9992 -0.2559  1.5068
 4366TIP3   OH213103   4.624   2.544   1.776 -0.2990 -1.0839  0.2053
 4366TIP3    H113104   4.537   2.573   1.747  0.0047 -2.1601 -1.9399
 4366TIP3    H213105   4.611   2.519   1.868 -2.1860 -0.9650  0.0212
 4367TIP3   OH213106   5.490   0.632   2.296  0.6768 -0.5459 -0.2797
 4367TIP3    H113107   5.550   0.610   2.368  1.3116  1.0512 -0.2772
 4367TIP3    H213108   5.405   0.644   2.338  1.0247  0.2857  0.2146
 4368TIP3   OH213109   3.172   1.538   1.795  0.1523  0.5010 -0.0587
 4368TIP3    H113110   3.130   1.461   1.757 -1.1848  1.7290 -1.2156
 4368TIP3    H213111   3.242   1.560   1.732 -0.1380  0.8089 -0.2806
 4369TIP3   OH213112   4.221   4.941   3.303  0.2857  0.3989 -0.5837
 4369TIP3    H113113   4.273   4.918   3.381  1.9693 -1.6361 -2.1995
 4369TIP3    H213114   4.165   4.865   3.288 -3.0151  2.3382  0.7994
 4370TIP3   OH213115   0.569   5.575   2.673  0.1333  0.5926  0.5098
 4370TIP3    H113116   0.661   5.602   2.675 -0.3351  2.2944  0.9211
 4370TIP3    H213117   0.545   5.566   2.766 -0.7505  2.6750  0.5440
 4371TIP3   OH213118   2.233   5.671   1.693 -0.0345  0.2201  0.0939
 4371TIP3    H113119   2.325   5.646   1.682  1.1477  3.6169  0.9522
 4371TIP3    H213120   2.222   5.679   1.788 -1.6263 -1.2608  0.0825
 4372TIP3   OH213121   2.835   3.264   4.832 -0.0720  0.0171  0.3359
 4372TIP3    H113122   2.742   3.250   4.845 -0.0749  0.3931  0.7436
 4372TIP3    H213123   2.856   3.341   4.885  0.7264 -0.8270  1.3071
 4373TIP3   OH213124   0.936   1.029   0.088  0.4649  0.0541 -0.0829
 4373TIP3    H113125   0.970   1.007   0.175  1.1032 -1.1936 -0.6311
 4373TIP3    H213126   0.878   1.103   0.104  0.0693 -0.5536  1.5099
 4374TIP3   OH213127   2.774   2.587   3.232  0.0775  0.5391 -0.0530
 4374TIP3    H113128   2.847   2.631   3.189  0.9243 -0.9249 -0.1800
 4374TIP3    H213129   2.723   2.550   3.161  0.1357  0.1673  0.0945
 4375TIP3   OH213130   6.087   2.147   3.709 -0.2970  0.7710  0.1708
 4375TIP3    H113131   6.056   2.184   3.627 -0.9803  1.2707  0.6386
 4375TIP3    H213132   6.180   2.129   3.694 -0.4220  0.8183 -0.7142
 4376TIP3   OH213133   5.975   1.347   0.589  0.3834  0.1057 -0.1548
 4376TIP3    H113134   5.889   1.350   0.630 -0.5023  2.0021 -1.9616
 4376TIP3    H213135   6.037   1.365   0.660 -0.8418  0.4164  0.8671
 4377TIP3   OH213136   3.868   4.349   1.184 -0.8945 -0.2939 -0.2267
 4377TIP3    H113137   3.786   4.398   1.174 -0.4457  0.4638 -0.2346
 4377TIP3    H213138   3.884   4.313   1.097  0.4444  2.2415 -1.1322
 4378TIP3   OH213139   0.816   4.480   0.926 -0.1993 -0.7664  0.3467
 4378TIP3    H113140   0.739   4.483   0.869  0.9182 -1.2059 -1.2760
 4378TIP3    H213141   0.886   4.519   0.873  0.4877  0.6478  2.1854
 4379TIP3   OH213142   3.267   0.747   4.138  0.3457  0.2403  0.5047
 4379TIP3    H113143   3.328   0.784   4.075  0.6362  0.3618  0.8521
 4379TIP3    H213144   3.181   0.758   4.098  0.4425  1.1529  0.5229
 4380TIP3   OH213145   2.290   3.179   2.264  0.6840 -0.1330  0.2919
 4380TIP3    H113146   2.282   3.176   2.169  1.8142  0.5635  0.1503
 4380TIP3    H213147   2.200   3.174   2.296  0.2184  0.4814 -0.8400
 4381TIP3   OH213148   0.865   5.421   2.431  0.1818  0.9219  0.2716
 4381TIP3    H113149   0.861   5.463   2.517 -3.2624 -1.6361  1.5837
 4381TIP3    H213150   0.793   5.358   2.432  0.2348  0.4756 -4.3911
 4382TIP3   OH213151   4.310   3.179   0.203  1.1104  0.1167  0.3175
 4382TIP3    H113152   4.263   3.262   0.210  3.4153  1.5738 -0.3469
 4382TIP3    H213153   4.246   3.119   0.166 -1.0210  1.2023  2.0119
 4383TIP3   OH213154   5.856   3.427   3.160 -0.2466 -0.4466 -0.5272
 4383TIP3    H113155   5.922   3.394   3.221  1.0069 -0.6525 -1.9420
 4383TIP3    H213156   5.774   3.391   3.192  0.2795 -0.1517  1.3120
 4384TIP3   OH213157   4.237   5.004   2.969  0.4529 -0.2297 -0.1555
 4384TIP3    H113158   4.263   5.058   2.894  0.7807 -0.5167 -0.2550
 4384TIP3    H213159   4.203   5.066   3.033 -0.0608 -0.0029 -0.6349
 4385TIP3   OH213160   2.390   2.703   4.555 -0.1285 -0.0445  0.4156
 4385TIP3    H113161   2.360   2.758   4.483  0.9800  1.6280  1.1644
 4385TIP3    H213162   2.433   2.628   4.513  0.0815  0.6638 -0.6573
 4386TIP3   OH213163   3.203   1.600   2.689  0.0955  0.3198  0.1009
 4386TIP3    H113164   3.297   1.589   2.703 -0.0666  0.2087  1.1137
 4386TIP3    H213165   3.166   1.613   2.776 -1.1807 -2.1474  0.0057
 4387TIP3   OH213166   0.656   2.958   1.191  0.9491  0.0066  0.0822
 4387TIP3    H113167   0.714   2.884   1.211  0.2824 -0.3234  0.8751
 4387TIP3    H213168   0.653   2.961   1.096  0.3947 -1.4746  0.0247
 4388TIP3   OH213169   4.693   3.443   4.503  0.2107 -0.1210 -0.6344
 4388TIP3    H113170   4.679   3.516   4.442  1.1680  0.5106 -0.1357
 4388TIP3    H213171   4.781   3.458   4.537 -0.1878 -0.6339  0.6706
 4389TIP3   OH213172   1.602   1.915   0.857 -0.1919  0.6618  0.5074
 4389TIP3    H113173   1.665   1.983   0.881 -1.0805  1.2397  1.2738
 4389TIP3    H213174   1.602   1.855   0.932 -1.7429  1.5629  1.2807
 4390TIP3   OH213175   4.225   0.160   2.249  0.6434 -0.3352  0.2493
 4390TIP3    H113176   4.155   0.216   2.282  0.6374 -0.9125  1.2583
 4390TIP3    H213177   4.305   0.202   2.278  0.7337  0.3690 -0.9760
 4391TIP3   OH213178   2.978   0.201   2.690 -0.0854 -0.5738 -0.0897
 4391TIP3    H113179   2.900   0.160   2.653 -0.4154 -0.0214 -0.0211
 4391TIP3    H213180   2.988   0.282   2.640  1.1675 -1.2288 -0.9479
 4392TIP3   OH213181   4.574   0.345   0.830  0.1135 -1.1211 -0.3200
 4392TIP3    H113182   4.551   0.431   0.794  1.2458 -0.7681 -0.2306
 4392TIP3    H213183   4.541   0.347   0.920 -1.0971 -1.3147 -0.7496
 4393TIP3   OH213184   0.047   1.668   0.022 -0.1363  0.2510 -0.6291
 4393TIP3    H113185  -0.036   1.705   0.051 -0.3715 -0.2541 -0.6406
 4393TIP3    H213186   0.027   1.623  -0.059 -0.0572 -0.6770 -0.1512
 4394TIP3   OH213187   2.706   3.444   4.130 -0.2622 -0.0977 -0.1835
 4394TIP3    H113188   2.690   3.398   4.048  0.6611 -1.5935  0.4382
 4394TIP3    H213189   2.701   3.536   4.107 -1.6489 -0.4769 -1.5843
 4395TIP3   OH213190   6.064   1.730   3.575 -0.0766 -0.5823 -0.3567
 4395TIP3    H113191   6.059   1.804   3.516 -1.5677 -1.0547 -0.8701
 4395TIP3    H213192   5.974   1.698   3.581 -0.0411 -0.4123  2.3494
 4396TIP3   OH213193   4.389   1.293   0.119  0.4925  0.4668 -0.0181
 4396TIP3    H113194   4.459   1.342   0.076  0.4280  0.7423  0.1890
 4396TIP3    H213195   4.396   1.318   0.211 -0.1372  0.8108 -0.0613
 4397TIP3   OH213196   4.927   4.415   1.966  0.3322 -0.1576  0.0344
 4397TIP3    H113197   5.007   4.408   1.914 -0.9917  0.4900 -2.2392
 4397TIP3    H213198   4.941   4.493   2.021  0.3051  1.5807 -2.2733
 4398TIP3   OH213199   6.287   4.146   0.107  0.2912 -0.1671  0.0334
 4398TIP3    H113200   6.283   4.240   0.086 -0.8693 -0.2717 -0.3279
 4398TIP3    H213201   6.320   4.106   0.027  1.0922 -0.0373  0.2973
 4399TIP3   OH213202   1.247   5.434   0.164 -0.3863  0.3187 -0.1094
 4399TIP3    H113203   1.179   5.385   0.117 -0.5085  0.6382 -0.2655
 4399TIP3    H213204   1.208   5.519   0.181  0.2323  0.7575 -0.8367
 4400TIP3   OH213205   3.040   4.456   4.427 -0.3076  0.0982  0.5235
 4400TIP3    H113206   2.969   4.519   4.413 -0.3528 -0.0611  0.0060
 4400TIP3    H213207   3.005   4.393   4.490 -0.6645 -0.0304  0.2016
 4401TIP3   OH213208   5.648   0.880   4.836  0.0909 -0.6112  0.3265
 4401TIP3    H113209   5.730   0.862   4.791 -1.3386 -3.3904 -1.4004
 4401TIP3    H213210   5.629   0.971   4.814  0.5460 -1.1997 -3.0291
 4402TIP3   OH213211   3.105   3.468   2.706  0.8843 -0.1552  0.0737
 4402TIP3    H113212   3.118   3.401   2.773  1.1954  0.3350  0.5126
 4402TIP3    H213213   3.181   3.459   2.649  0.7320 -0.4260 -0.0894
 4403TIP3   OH213214   3.410   5.772   0.817  0.0792  0.3173  0.4017
 4403TIP3    H113215   3.438   5.695   0.768 -0.2823 -0.1681  0.9490
 4403TIP3    H213216   3.425   5.846   0.757 -1.8709 -0.4135 -1.0720
 4404TIP3   OH213217   1.857   4.863   1.996 -0.2762  0.2098 -0.0292
 4404TIP3    H113218   1.935   4.856   1.942 -1.2177 -0.6332 -1.3638
 4404TIP3    H213219   1.795   4.914   1.942 -0.5354  1.1750  1.1470
 4405TIP3   OH213220   2.220   4.041   0.374 -0.3029 -0.2635 -0.3676
 4405TIP3    H113221   2.125   4.046   0.362 -0.2790  2.7341  0.0290
 4405TIP3    H213222   2.255   4.057   0.286 -0.2053  0.9804 -0.1242
 4406TIP3   OH213223   6.048   5.404   0.754  0.6887 -0.9765  0.0283
 4406TIP3    H113224   5.986   5.346   0.710 -0.7246  1.2834 -1.1446
 4406TIP3    H213225   6.090   5.348   0.820 -0.3514 -3.3608 -1.1966
 4407TIP3   OH213226   4.836   0.246   0.531 -0.0995 -0.1770 -0.1351
 4407TIP3    H113227   4.857   0.153   0.528  1.7465  0.2148 -2.2384
 4407TIP3    H213228   4.891   0.281   0.601  2.5057 -0.0741 -2.0781
 4408TIP3   OH213229   3.882   1.693   4.800 -0.1536  0.1447  0.4109
 4408TIP3    H113230   3.883   1.612   4.749 -1.6074 -1.1087  2.2364
 4408TIP3    H213231   3.967   1.695   4.845  0.3069  0.2045 -0.4532
 4409TIP3   OH213232   1.141   2.156   2.829  0.2027  0.0964  0.6500
 4409TIP3    H113233   1.234   2.149   2.808 -0.5892 -0.1190 -3.7901
 4409TIP3    H213234   1.105   2.069   2.811 -1.0857  0.5968  0.6410
 4410TIP3   OH213235   2.999   1.029   2.778 -0.3229 -0.1094  0.2342
 4410TIP3    H113236   3.083   1.025   2.733 -0.3921 -0.1797  0.1109
 4410TIP3    H213237   3.015   1.085   2.854 -0.6218  1.5120 -0.8237
 4411TIP3   OH213238   0.363   2.806   1.041  0.2463  0.2156  0.3899
 4411TIP3    H113239   0.322   2.728   1.077  1.7638 -0.5556  0.5458
 4411TIP3    H213240   0.302   2.836   0.973 -2.0284  0.9541  2.6110
 4412TIP3   OH213241   1.576   5.009   4.101 -0.4849 -0.2182 -0.1503
 4412TIP3    H113242   1.645   5.075   4.097 -0.0793 -0.6474 -0.2372
 4412TIP3    H213243   1.599   4.954   4.176 -0.0179 -1.1432 -0.9461
 4413TIP3   OH213244   2.266   3.602   1.238 -0.1121  0.6268  0.4535
 4413TIP3    H113245   2.236   3.657   1.311 -1.8514 -2.3901  2.1941
 4413TIP3    H213246   2.188   3.589   1.184  0.6272  0.9868 -0.7372
 4414TIP3   OH213247   0.189   1.546   2.192 -0.0098 -0.5088  0.0428
 4414TIP3    H113248   0.211   1.481   2.124 -0.3670 -2.3872  1.6309
 4414TIP3    H213249   0.108   1.513   2.231 -0.1458  0.8695  0.9695
 4415TIP3   OH213250   5.643   5.136   1.897  0.2579  0.2808  0.1570
 4415TIP3    H113251   5.567   5.077   1.900 -0.6569  1.4557  1.7521
 4415TIP3    H213252   5.615   5.209   1.842  0.7310  0.0818 -0.3492
 4416TIP3   OH213253   2.263   3.678   4.488  0.3716 -0.3069 -0.0461
 4416TIP3    H113254   2.185   3.711   4.444 -0.3338 -0.8879  0.7282
 4416TIP3    H213255   2.277   3.592   4.449  0.8624 -0.0512 -0.4498
 4417TIP3   OH213256   4.272   4.632   4.383 -0.3012 -0.0013 -0.2856
 4417TIP3    H113257   4.298   4.578   4.458  1.4675 -0.4131 -1.1202
 4417TIP3    H213258   4.211   4.578   4.334 -1.0679  0.0685  0.5771
 4418TIP3   OH213259   4.863   4.877   4.978  0.2766  0.5765  0.1715
 4418TIP3    H113260   4.812   4.953   5.005 -0.3760  0.4585 -0.6756
 4418TIP3    H213261   4.860   4.880   4.882  0.8822 -0.0931  0.1269
 4419TIP3   OH213262   0.587   3.848   1.150  0.8595 -0.7266 -0.1964
 4419TIP3    H113263   0.584   3.801   1.066 -1.6710 -0.1065 -0.5363
 4419TIP3    H213264   0.675   3.885   1.153  1.3363 -1.5616 -2.1289
 4420TIP3   OH213265   5.407   4.978   4.758  0.4769 -0.2970  0.1260
 4420TIP3    H113266   5.411   4.899   4.811 -1.4199 -0.1838  0.5261
 4420TIP3    H213267   5.322   4.973   4.713  0.1549  1.6482  0.4231
 4421TIP3   OH213268   6.055   3.823   3.812 -0.6117  0.1505  0.0491
 4421TIP3    H113269   6.046   3.761   3.885 -1.2961  0.3547  0.1421
 4421TIP3    H213270   5.970   3.866   3.807  0.3818  2.3988  1.1700
 4422TIP3   OH213271   4.376   4.933   3.574  0.4754 -0.6524 -0.3744
 4422TIP3    H113272   4.371   4.921   3.669  0.9148  0.7919 -0.1410
 4422TIP3    H213273   4.460   4.896   3.549  0.2893 -1.1768 -0.2261
 4423TIP3   OH213274   1.588   3.944   4.733 -0.0396 -0.0096  0.1708
 4423TIP3    H113275   1.569   3.878   4.800 -1.9502 -0.5116 -0.8024
 4423TIP3    H213276   1.569   3.900   4.650 -1.7651  1.8587 -0.4841
 4424TIP3   OH213277   4.218   3.258   3.300  0.8973  0.7045  0.1973
 4424TIP3    H113278   4.277   3.316   3.252 -0.5380  1.8303 -0.2760
 4424TIP3    H213279   4.233   3.171   3.262 -0.8374  1.6820 -3.0466
 4425TIP3   OH213280   3.170   5.088   4.524 -0.5654  0.0747 -0.4928
 4425TIP3    H113281   3.232   5.040   4.469  0.8492  0.7376  0.4623
 4425TIP3    H213282   3.124   5.146   4.463  0.0779 -0.1118 -1.1703
 4426TIP3   OH213283   1.852   4.891   5.057  0.1482  0.1944  0.0367
 4426TIP3    H113284   1.914   4.885   4.984  0.4138 -0.2478  0.2919
 4426TIP3    H213285   1.899   4.853   5.132 -0.3737 -0.0153  0.2674
 4427TIP3   OH213286   1.992   3.323   1.145 -0.0136  0.0253 -0.1606
 4427TIP3    H113287   1.915   3.331   1.089  0.2424  0.1211 -0.5000
 4427TIP3    H213288   1.981   3.238   1.188 -1.1196  0.7339  1.0208
 4428TIP3   OH213289   5.841   1.593   0.273 -0.3248  0.2308  0.2680
 4428TIP3    H113290   5.935   1.607   0.283 -0.0498  0.5055 -2.0742
 4428TIP3    H213291   5.801   1.662   0.326  0.7979  0.4811  0.8259
 4429TIP3   OH213292   5.052   5.302   5.135  0.0552  0.3576 -0.1965
 4429TIP3    H113293   5.013   5.388   5.123  0.1460  0.2790 -1.0850
 4429TIP3    H213294   5.130   5.302   5.079 -0.2662 -0.5027 -0.6582
 4430TIP3   OH213295   1.800   0.912   0.953  0.1411  0.1985  0.4687
 4430TIP3    H113296   1.853   0.840   0.989 -0.2354 -0.4197 -0.1803
 4430TIP3    H213297   1.807   0.902   0.858  1.2150  1.8806  0.3344
 4431TIP3   OH213298   0.802   3.847   1.988  0.3159  0.0532  0.1271
 4431TIP3    H113299   0.770   3.894   1.911  2.3453  0.6245 -0.4437
 4431TIP3    H213300   0.880   3.896   2.014 -0.4280  0.0049  2.7141
 4432TIP3   OH213301   1.750   1.704   1.751 -0.2274 -0.6384  0.2543
 4432TIP3    H113302   1.709   1.711   1.838 -1.3647 -0.2628 -0.2892
 4432TIP3    H213303   1.688   1.652   1.700 -0.8892  1.3404 -1.0639
 4433TIP3   OH213304   5.732   3.955   4.909  0.0214 -0.1346 -0.2393
 4433TIP3    H113305   5.825   3.973   4.898 -0.2216  0.5935 -1.2842
 4433TIP3    H213306   5.717   3.874   4.860  0.1131 -0.2843 -0.0205
 4434TIP3   OH213307   0.696   5.557   3.939  0.2874 -0.1517 -0.1340
 4434TIP3    H113308   0.607   5.592   3.937 -0.1062 -1.1492 -1.3030
 4434TIP3    H213309   0.751   5.630   3.911 -0.3581 -0.0015 -1.0759
 4435TIP3   OH213310   5.851   0.997   4.281 -0.1060 -0.1650  0.4987
 4435TIP3    H113311   5.837   1.055   4.356 -0.2165  0.5245 -0.0351
 4435TIP3    H213312   5.946   0.984   4.278 -0.2999 -2.6385  2.5141
 4436TIP3   OH213313   3.330   5.030   3.196 -0.1520  0.0882  0.3306
 4436TIP3    H113314   3.289   5.086   3.261  0.7454  0.3479  0.6900
 4436TIP3    H213315   3.269   4.958   3.184 -0.9441  0.7342  0.4596
 4437TIP3   OH213316   2.830   3.207   4.166  0.0271  0.9520  0.3719
 4437TIP3    H113317   2.876   3.146   4.108 -0.1290  1.4645 -0.2994
 4437TIP3    H213318   2.778   3.262   4.107 -1.0499  0.7255  1.0742
 4438TIP3   OH213319   3.298   0.400   0.860  0.9617 -0.1931  0.3434
 4438TIP3    H113320   3.325   0.314   0.829  0.8365 -0.3438  0.6433
 4438TIP3    H213321   3.233   0.381   0.928 -0.9734  0.1686 -1.3083
 4439TIP3   OH213322   5.902   3.585   4.167  0.2481  0.3750 -0.2329
 4439TIP3    H113323   5.883   3.678   4.181 -0.1037  0.2954 -0.1767
 4439TIP3    H213324   5.970   3.585   4.099 -1.0926  0.6121 -1.6097
 4440TIP3   OH213325   1.167   4.849   3.976 -0.5257  0.0969  0.2316
 4440TIP3    H113326   1.100   4.786   3.951 -3.1018  2.4790  0.5961
 4440TIP3    H213327   1.148   4.926   3.921  1.9570  0.8795  0.3633
 4441TIP3   OH213328   2.613   3.547   1.092 -0.3076  0.0044 -0.1800
 4441TIP3    H113329   2.570   3.484   1.034 -1.8858  0.0452  0.8837
 4441TIP3    H213330   2.653   3.611   1.032  1.1664 -1.8405 -1.2733
 4442TIP3   OH213331   5.496   5.426   3.055  0.2580  0.0071  0.5477
 4442TIP3    H113332   5.447   5.419   2.973 -0.6746 -1.9636  1.1912
 4442TIP3    H213333   5.584   5.453   3.028  0.0285 -0.7828 -1.1381
 4443TIP3   OH213334   3.130   5.187   1.387 -0.4577  0.2463  0.6120
 4443TIP3    H113335   3.090   5.267   1.421  0.4627  0.9422  0.1285
 4443TIP3    H213336   3.168   5.213   1.303  0.7925 -0.4200  0.9431
 4444TIP3   OH213337   1.674   0.234   0.669 -0.4745  0.5456  0.2714
 4444TIP3    H113338   1.645   0.256   0.757 -0.0135 -1.3372  0.9554
 4444TIP3    H213339   1.731   0.158   0.681  0.8425  1.1773 -1.5060
 4445TIP3   OH213340   2.272   4.362   1.509 -0.1762  0.5922  0.7533
 4445TIP3    H113341   2.353   4.381   1.462 -1.5756  0.0485 -2.0656
 4445TIP3    H213342   2.225   4.445   1.511 -0.4878  0.4244  0.4367
 4446TIP3   OH213343   2.375   2.123   1.981 -0.4931 -0.1208  0.3813
 4446TIP3    H113344   2.458   2.162   1.954 -0.7408  0.5777  0.6019
 4446TIP3    H213345   2.400   2.046   2.032 -0.0099 -1.0429 -1.1696
 4447TIP3   OH213346   1.791   4.043   4.581  0.3438  0.3404  0.0895
 4447TIP3    H113347   1.731   4.038   4.656 -0.5260 -1.3755 -0.6578
 4447TIP3    H213348   1.755   4.113   4.527 -0.4745 -0.0504  0.1063
 4448TIP3   OH213349   0.076   0.604   3.106  0.6141  0.4792 -0.2485
 4448TIP3    H113350   0.112   0.555   3.180  0.0432 -0.1928 -0.4066
 4448TIP3    H213351  -0.003   0.556   3.081 -0.3605  1.8992  0.0453
 4449TIP3   OH213352   4.274   3.104   4.795  0.0780  0.0251 -0.5185
 4449TIP3    H113353   4.369   3.102   4.782  0.0016  1.9722 -1.6713
 4449TIP3    H213354   4.250   3.011   4.801  2.2711 -0.5167  1.9027
 4450TIP3   OH213355   4.019   0.888   3.802 -0.4463 -0.5623  0.1277
 4450TIP3    H113356   4.044   0.919   3.715 -3.0783 -2.0337 -1.2483
 4450TIP3    H213357   3.970   0.961   3.840  0.9093  0.1749  0.5522
 4451TIP3   OH213358   0.908   2.158   1.648  0.3478  0.5417  0.3947
 4451TIP3    H113359   0.833   2.187   1.595 -0.2106 -1.7843 -0.2191
 4451TIP3    H213360   0.982   2.209   1.615 -0.3504  0.5051 -1.3570
 4452TIP3   OH213361   5.840   3.066   2.226 -0.5989 -0.4861 -0.2503
 4452TIP3    H113362   5.821   3.000   2.159 -1.1711 -1.2317  0.6181
 4452TIP3    H213363   5.926   3.100   2.202 -0.5916 -1.0650 -1.1028
 4453TIP3   OH213364   2.216   3.913   2.603 -0.2484 -0.6782  0.1188
 4453TIP3    H113365   2.125   3.886   2.592 -0.2421  0.0570 -2.1098
 4453TIP3    H213366   2.219   3.948   2.692 -2.0068 -1.1920  0.4211
 4454TIP3   OH213367   3.888   4.310   3.493  0.4148 -0.1702  0.3187
 4454TIP3    H113368   3.845   4.272   3.416  1.4571  0.7802 -0.7694
 4454TIP3    H213369   3.975   4.335   3.462  0.3171  1.6716  1.3844
 4455TIP3   OH213370   0.274   0.543   2.913 -0.1501 -0.8647  0.2007
 4455TIP3    H113371   0.318   0.628   2.913  1.5287 -1.6773  1.7684
 4455TIP3    H213372   0.187   0.561   2.949  0.5556  0.0320  1.5309
 4456TIP3   OH213373   2.329   1.307   0.281  0.1053  0.5394  0.0379
 4456TIP3    H113374   2.316   1.386   0.228 -0.3683  0.1135 -0.4998
 4456TIP3    H213375   2.424   1.298   0.287  0.1628  1.0134 -0.1097
 4457TIP3   OH213376   5.044   2.723   4.307 -0.3635  0.0150  0.4163
 4457TIP3    H113377   5.112   2.698   4.245 -0.2427 -0.8932  0.9001
 4457TIP3    H213378   5.038   2.649   4.368 -0.4985  0.8568  1.4679
 4458TIP3   OH213379   1.438   4.824   4.001 -0.1858  0.1583  0.1283
 4458TIP3    H113380   1.476   4.899   4.046  1.0199 -0.1958 -0.2569
 4458TIP3    H213381   1.344   4.841   4.000  0.1383  2.1261 -0.8078
 4459TIP3   OH213382   3.504   3.496   4.961  0.5897  0.2336 -0.2918
 4459TIP3    H113383   3.598   3.494   4.979  0.2061 -0.4928  1.9900
 4459TIP3    H213384   3.490   3.580   4.917  2.1807  0.7070  0.0267
 4460TIP3   OH213385   4.366   0.243   3.006  0.3818 -0.0966  0.2113
 4460TIP3    H113386   4.345   0.161   2.961  1.2520 -0.0276 -0.3479
 4460TIP3    H213387   4.287   0.264   3.056 -0.1408 -0.8508 -0.2746
 4461TIP3   OH213388   0.932   5.404   2.173 -0.5154 -0.1105 -0.4375
 4461TIP3    H113389   0.837   5.412   2.166 -0.4575  0.6029 -0.4625
 4461TIP3    H213390   0.948   5.379   2.264 -0.7591 -0.9309 -0.6065
 4462TIP3   OH213391   1.682   4.180   3.462  0.3257 -0.2702 -0.6556
 4462TIP3    H113392   1.643   4.262   3.433 -1.2004 -0.2651  1.2568
 4462TIP3    H213393   1.693   4.190   3.556  1.7728 -1.6120 -0.6437
 4463TIP3   OH213394   6.024   2.718   4.118  0.0943 -0.2505  0.2269
 4463TIP3    H113395   5.947   2.774   4.106  0.7829  0.5319 -0.6170
 4463TIP3    H213396   6.031   2.708   4.213 -0.0738  1.0696  0.3951
 4464TIP3   OH213397   3.324   0.744   2.654  0.0711  0.3218 -0.6279
 4464TIP3    H113398   3.310   0.673   2.717 -0.1740  0.2805 -0.7276
 4464TIP3    H213399   3.245   0.744   2.600  0.0934  0.6366 -0.6627
 4465TIP3   OH213400   2.167   1.905   3.317 -0.0227  0.1425 -0.6130
 4465TIP3    H113401   2.167   1.977   3.380  1.2990  0.6308 -1.1471
 4465TIP3    H213402   2.140   1.828   3.368  1.1496  0.4948  0.5870
 4466TIP3   OH213403   3.236   5.506   4.349 -0.8636 -0.3764 -0.1182
 4466TIP3    H113404   3.210   5.541   4.435  2.1938 -0.5186  0.9719
 4466TIP3    H213405   3.217   5.576   4.288 -3.9070 -0.5657  0.4316
 4467TIP3   OH213406   3.107   0.776   2.980  0.1454  0.2184  0.5226
 4467TIP3    H113407   3.029   0.827   3.003  0.7438  0.3873  2.3442
 4467TIP3    H213408   3.172   0.843   2.956  0.3781  0.2125  1.1275
 4468TIP3   OH213409   1.988   1.444   0.844  0.1366 -0.2670 -0.2430
 4468TIP3    H113410   2.074   1.480   0.823  0.1526 -0.9601 -1.4492
 4468TIP3    H213411   2.004   1.385   0.918  0.6149 -0.0676 -0.1822
 4469TIP3   OH213412   4.121   2.683   0.164 -0.2381 -0.0056 -0.0135
 4469TIP3    H113413   4.062   2.659   0.236 -0.9458 -0.3765 -0.7114
 4469TIP3    H213414   4.171   2.757   0.199 -0.2155 -0.4978  1.0405
 4470TIP3   OH213415   5.971   2.276   5.104 -0.2348  0.1852 -0.1561
 4470TIP3    H113416   5.947   2.185   5.120  0.5370  0.0684  0.4033
 4470TIP3    H213417   5.913   2.305   5.034  0.0032 -0.9526 -0.8402
 4471TIP3   OH213418   2.705   5.355   2.502  0.6953 -0.1842  0.7623
 4471TIP3    H113419   2.665   5.404   2.573 -1.0104 -0.1762 -0.1655
 4471TIP3    H213420   2.795   5.340   2.531  0.4121  0.9467  2.3270
 4472TIP3   OH213421   3.973   1.223   4.561  0.2513 -0.4798 -0.2335
 4472TIP3    H113422   4.059   1.249   4.527  0.4853 -1.6976 -0.6349
 4472TIP3    H213423   3.992   1.190   4.650 -0.3378  2.5659  1.1337
 4473TIP3   OH213424   4.923   4.357   3.766 -0.3567 -0.4261  0.2059
 4473TIP3    H113425   4.915   4.450   3.745 -1.7826 -0.7534 -0.8932
 4473TIP3    H213426   4.834   4.331   3.793  0.2800 -1.2117  1.6846
 4474TIP3   OH213427   0.613   2.125   1.101 -0.1383 -0.3955  0.0566
 4474TIP3    H113428   0.585   2.035   1.086 -1.6013 -0.2284  1.4320
 4474TIP3    H213429   0.533   2.177   1.090  0.3435  0.5373  0.8072
 4475TIP3   OH213430   4.251   2.235   4.525 -0.1931 -0.1424 -0.5065
 4475TIP3    H113431   4.166   2.262   4.561 -0.2906 -0.7317 -0.2787
 4475TIP3    H213432   4.256   2.278   4.440 -1.0583 -0.6981 -0.8584
 4476TIP3   OH213433   2.130   2.946   4.720 -0.3583  0.0391 -0.0598
 4476TIP3    H113434   2.160   2.972   4.632  0.1976 -0.3307  0.0128
 4476TIP3    H213435   2.198   2.886   4.751 -1.9116 -2.0254 -0.4784
 4477TIP3   OH213436   1.535   6.000   2.394 -0.0074  0.0829 -0.4850
 4477TIP3    H113437   1.501   5.926   2.444  2.0822  1.0384  2.6453
 4477TIP3    H213438   1.601   5.961   2.336 -0.8747 -0.7773 -0.9278
 4478TIP3   OH213439   4.418   5.474   3.865  0.4025 -0.4665  0.5219
 4478TIP3    H113440   4.441   5.561   3.833  0.9278 -0.7298  0.1551
 4478TIP3    H213441   4.345   5.447   3.810 -0.1769 -0.0161  1.0489
 4479TIP3   OH213442   5.168   0.279   1.338  0.5436 -0.2563 -0.1983
 4479TIP3    H113443   5.141   0.339   1.269 -0.3841 -0.1951  0.2112
 4479TIP3    H213444   5.120   0.307   1.416  1.2077 -0.6238  0.3585
 4480TIP3   OH213445   0.929   4.196   3.978  0.5428 -0.4422  0.3049
 4480TIP3    H113446   0.855   4.136   3.989 -1.2763  1.3298 -1.6133
 4480TIP3    H213447   0.967   4.172   3.894  0.9039 -0.0076  0.3412
 4481TIP3   OH213448   4.124   3.910   4.265  0.0390 -0.7874  0.2385
 4481TIP3    H113449   4.050   3.962   4.298  0.3770  1.0421 -1.6887
 4481TIP3    H213450   4.165   3.874   4.344 -0.1571  1.9904  1.7362
 4482TIP3   OH213451   5.001   5.871   1.275 -0.3214  0.0970  0.2547
 4482TIP3    H113452   4.991   5.782   1.309  1.2352 -0.2584 -0.1552
 4482TIP3    H213453   4.919   5.915   1.298 -1.3298 -1.5794  0.0441
 4483TIP3   OH213454   5.542   3.141   1.129  0.1402 -0.0984 -0.3331
 4483TIP3    H113455   5.560   3.064   1.075 -0.5794 -0.4981 -0.0227
 4483TIP3    H213456   5.601   3.133   1.204  0.7109  0.1361 -0.7560
 4484TIP3   OH213457   1.290   2.101   0.244  0.0066  0.0736  0.1926
 4484TIP3    H113458   1.319   2.137   0.161  1.3460  0.1549  0.6831
 4484TIP3    H213459   1.279   2.007   0.228 -0.4156  0.1955 -0.2488
 4485TIP3   OH213460   5.934   1.096   4.748  0.0545 -0.2252  0.3128
 4485TIP3    H113461   5.999   1.158   4.783  0.1880 -0.8325  1.1693
 4485TIP3    H213462   5.984   1.017   4.728 -0.2209 -0.2758 -0.1823
 4486TIP3   OH213463   2.626   2.078   2.180 -0.2683 -0.2074  0.2671
 4486TIP3    H113464   2.594   2.147   2.237  1.4671  0.1242  0.9042
 4486TIP3    H213465   2.660   2.124   2.103  0.2843 -0.4062  0.3918
 4487TIP3   OH213466   1.822   4.728   4.061 -0.5226  0.0648 -0.6142
 4487TIP3    H113467   1.878   4.792   4.105 -0.0482 -0.0845 -1.0039
 4487TIP3    H213468   1.859   4.643   4.084 -0.5072 -0.0285 -0.9750
 4488TIP3   OH213469   5.984   2.193   0.218  0.4050  0.3436 -0.9391
 4488TIP3    H113470   5.977   2.179   0.123  0.1424  0.7184 -0.9783
 4488TIP3    H213471   5.947   2.281   0.232  1.9304  0.9758 -0.6962
 4489TIP3   OH213472   6.195   2.099   1.982  0.1596 -0.0071  0.1453
 4489TIP3    H113473   6.284   2.064   1.990  0.6957  1.2554 -0.0737
 4489TIP3    H213474   6.171   2.122   2.072 -0.5266 -1.6214  0.4264
 4490TIP3   OH213475   1.094   3.839   5.013 -0.5738 -0.0625  0.0656
 4490TIP3    H113476   1.165   3.893   5.048  0.4416 -0.7430 -0.8476
 4490TIP3    H213477   1.098   3.758   5.064  0.3735 -0.7299 -1.0242
 4491TIP3   OH213478  -0.005   4.579   4.208 -0.0103 -0.2983  0.2128
 4491TIP3    H113479  -0.057   4.562   4.130  1.1515 -2.8051 -0.1097
 4491TIP3    H213480   0.081   4.542   4.189  1.3687  1.9921  1.4597
 4492TIP3   OH213481   5.188   4.961   2.154 -0.3801 -0.8952 -0.4644
 4492TIP3    H113482   5.221   5.002   2.234 -2.9122  0.3371  0.0334
 4492TIP3    H213483   5.098   4.936   2.175 -1.7601  1.0728 -3.3680
 4493TIP3   OH213484   3.808   3.752   0.065  0.1875  0.2015  0.1794
 4493TIP3    H113485   3.794   3.724  -0.026 -0.5287  1.2887 -0.0657
 4493TIP3    H213486   3.720   3.771   0.098  0.3162 -1.3431  1.5095
 4494TIP3   OH213487   1.819   1.546   1.411 -0.3800  0.0890  0.1374
 4494TIP3    H113488   1.827   1.609   1.340 -0.4378  0.3766  0.3855
 4494TIP3    H213489   1.901   1.553   1.459 -0.1113 -0.5045 -0.2237
 4495TIP3   OH213490   2.772   4.231   2.606 -0.0434  0.7775 -0.1263
 4495TIP3    H113491   2.770   4.218   2.511 -0.0417 -0.5997  0.0385
 4495TIP3    H213492   2.845   4.291   2.621 -0.5257  1.6311 -1.0404
 4496TIP3   OH213493   2.281   2.367   1.576  0.1085 -0.0634 -0.5431
 4496TIP3    H113494   2.292   2.370   1.671 -1.4907  0.8178 -0.3524
 4496TIP3    H213495   2.240   2.281   1.560 -0.1138  0.0099 -0.3723
 4497TIP3   OH213496   3.966  -0.010   3.297 -0.0561 -0.1020 -0.0638
 4497TIP3    H113497   3.926   0.077   3.302  0.3239  0.1888 -1.7632
 4497TIP3    H213498   3.911  -0.059   3.236 -0.9700 -1.4887  1.7665
 4498TIP3   OH213499   5.884   5.184   1.376 -0.3075  0.1376  0.3235
 4498TIP3    H113500   5.821   5.182   1.448  1.4073 -0.6113  1.8789
 4498TIP3    H213501   5.932   5.266   1.388  1.0624 -0.7312  1.0608
 4499TIP3   OH213502   4.476   3.857   0.507  0.0400 -0.3678  0.2752
 4499TIP3    H113503   4.392   3.810   0.504  0.7361 -1.7883  1.4066
 4499TIP3    H213504   4.506   3.845   0.597  1.8449 -0.6181 -0.3144
 4500TIP3   OH213505   5.513   1.430   3.413  0.2739  0.1238 -0.1862
 4500TIP3    H113506   5.606   1.447   3.395  0.6033 -1.3390 -0.0486
 4500TIP3    H213507   5.480   1.512   3.449  1.3300  0.8972 -0.9213
 4501TIP3   OH213508   4.783   0.232   2.687  0.1621 -0.7413 -0.1345
 4501TIP3    H113509   4.770   0.183   2.606  1.3661 -0.1421 -0.7175
 4501TIP3    H213510   4.695   0.239   2.725 -0.2651 -1.9121 -0.8612
 4502TIP3   OH213511   1.665   2.707   4.414 -0.2950  0.4922 -0.0641
 4502TIP3    H113512   1.582   2.676   4.378 -0.7434  1.4132  0.1411
 4502TIP3    H213513   1.654   2.703   4.509 -0.5894  1.8142 -0.0246
 4503TIP3   OH213514   5.979   5.465   4.330 -0.3347  0.0658  0.7119
 4503TIP3    H113515   5.972   5.532   4.261  1.7129  0.4877  0.8504
 4503TIP3    H213516   5.909   5.486   4.391 -1.7214  0.1407 -0.8371
 4504TIP3   OH213517   1.256   3.232   4.443 -0.8497  0.1321 -0.0889
 4504TIP3    H113518   1.213   3.315   4.421 -2.0697 -0.9911 -2.3232
 4504TIP3    H213519   1.350   3.252   4.440 -1.1254  1.5487 -0.0319
 4505TIP3   OH213520   0.405   2.839   4.079  0.4373 -0.0539 -0.0066
 4505TIP3    H113521   0.434   2.862   3.991  0.3626  0.4348  0.0941
 4505TIP3    H213522   0.404   2.743   4.080 -0.2095 -0.0615 -0.7491
 4506TIP3   OH213523   4.443   2.759   4.098  0.3682 -0.0526  0.6075
 4506TIP3    H113524   4.475   2.814   4.026 -0.7976  1.1210  0.9687
 4506TIP3    H213525   4.510   2.690   4.105  0.2770 -0.5271 -1.9286
 4507TIP3   OH213526   4.457   0.005   4.465  0.4845 -0.1737  0.6490
 4507TIP3    H113527   4.395  -0.017   4.395  1.7497  1.5817 -1.1236
 4507TIP3    H213528   4.403   0.048   4.532 -0.5846 -0.9171  0.2876
 4508TIP3   OH213529   4.509   0.822   4.141  0.3856  0.1125  0.2098
 4508TIP3    H113530   4.545   0.825   4.230  0.9932  1.7186 -0.0724
 4508TIP3    H213531   4.556   0.750   4.098  1.4020  0.5131  0.6327
 4509TIP3   OH213532   5.932   0.497   2.513 -0.0223 -0.4143  0.0941
 4509TIP3    H113533   6.007   0.490   2.454  0.6907 -0.6957  1.0161
 4509TIP3    H213534   5.881   0.570   2.479  1.5268  0.8643  0.3955
 4510TIP3   OH213535   6.083   4.227   0.472 -0.0658 -0.1170  0.3670
 4510TIP3    H113536   6.020   4.160   0.498 -0.7823 -0.3747 -1.8129
 4510TIP3    H213537   6.133   4.187   0.402 -0.2032  1.4482 -0.6818
 4511TIP3   OH213538   2.428   3.010   4.911  0.3291  0.2033  0.1999
 4511TIP3    H113539   2.379   2.980   4.987 -1.7140  0.7579 -0.8447
 4511TIP3    H213540   2.419   2.939   4.847  0.9003  0.3270 -0.0279
 4512TIP3   OH213541   1.524   1.748   4.355  0.2554  0.1712  0.2355
 4512TIP3    H113542   1.515   1.758   4.260  1.0717  0.9772  0.2293
 4512TIP3    H213543   1.449   1.695   4.381  0.9175 -1.5502 -1.1082
 4513TIP3   OH213544   4.677   4.050   0.061 -0.6503  0.5704  0.4260
 4513TIP3    H113545   4.724   3.967   0.052  1.1877  1.8184 -3.1933
 4513TIP3    H213546   4.739   4.108   0.105 -0.7363  0.8798  0.1378
 4514TIP3   OH213547   0.270   2.714   3.617  0.0767 -0.1508  0.0687
 4514TIP3    H113548   0.190   2.722   3.565 -0.2781  0.7206  0.7209
 4514TIP3    H213549   0.334   2.675   3.557 -0.5190  0.1882 -0.8051
 4515TIP3   OH213550   0.830   2.311   1.097  0.1443  0.0221  0.4522
 4515TIP3    H113551   0.826   2.347   1.185  1.6069 -0.2101  0.6268
 4515TIP3    H213552   0.763   2.242   1.096  1.1358 -1.0150  1.8747
 4516TIP3   OH213553   3.741   5.765   1.094  0.0323 -0.1675  0.0846
 4516TIP3    H113554   3.826   5.802   1.072  0.2638 -1.1673 -0.7775
 4516TIP3    H213555   3.681   5.840   1.094  0.2407  0.0934 -2.8750
 4517TIP3   OH213556   4.020   0.176   4.122  0.5070  0.4464 -0.5897
 4517TIP3    H113557   3.976   0.245   4.071  0.3114  1.4619  0.8703
 4517TIP3    H213558   4.074   0.130   4.059  0.8394  2.1178 -1.5904
 4518TIP3   OH213559   4.728   3.615   0.334 -0.4259 -0.2891 -0.2344
 4518TIP3    H113560   4.691   3.696   0.367 -0.2787  0.0301 -0.8462
 4518TIP3    H213561   4.822   3.623   0.351 -0.4348 -0.4221 -0.1156
 4519TIP3   OH213562   0.864   4.391   1.736 -0.7626  0.5205 -0.5871
 4519TIP3    H113563   0.796   4.394   1.669 -0.5381 -1.1498 -0.9437
 4519TIP3    H213564   0.824   4.343   1.809 -0.3507  0.5326 -0.3466
 4520TIP3   OH213565   2.028   1.460   3.579 -0.1413  0.2272 -0.0250
 4520TIP3    H113566   1.935   1.437   3.573 -0.1700  0.2878  0.1668
 4520TIP3    H213567   2.034   1.513   3.659  0.1480 -0.2111  0.2484
 4521TIP3   OH213568   4.969   2.562   0.840 -0.0617  0.1473 -0.0712
 4521TIP3    H113569   4.893   2.504   0.844 -0.7256  0.9430 -0.6275
 4521TIP3    H213570   5.044   2.504   0.832 -0.7458 -0.6296 -1.1447
 4522TIP3   OH213571   5.662   2.166   1.168 -0.3374 -0.4392  0.1924
 4522TIP3    H113572   5.653   2.260   1.183  2.6086 -0.0682  0.2689
 4522TIP3    H213573   5.688   2.159   1.077 -1.1487 -1.2601  0.0121
 4523TIP3   OH213574   2.635   2.280   3.811 -0.1582  0.2457  0.1409
 4523TIP3    H113575   2.730   2.287   3.811 -0.1998  0.8330 -0.4005
 4523TIP3    H213576   2.617   2.205   3.753 -0.0053 -0.3078  0.7915
 4524TIP3   OH213577   0.511   3.149   4.317 -0.0923  0.5457 -0.8168
 4524TIP3    H113578   0.598   3.156   4.277  0.1298 -0.4615 -0.5351
 4524TIP3    H213579   0.451   3.163   4.244  0.3108 -0.2506 -1.3208
 4525TIP3   OH213580   3.984   3.351   1.879 -0.1260 -0.1849 -0.4687
 4525TIP3    H113581   4.006   3.327   1.969  0.6829 -0.5367 -0.7497
 4525TIP3    H213582   3.973   3.446   1.881 -0.7401 -0.2563  0.1208
 4526TIP3   OH213583   1.373   5.786   4.247  0.8816 -0.3288  0.2995
 4526TIP3    H113584   1.448   5.732   4.275  0.7275 -0.8495 -0.2836
 4526TIP3    H213585   1.412   5.869   4.220  1.5514 -1.4194 -2.3265
 4527TIP3   OH213586   1.152   3.701   3.149  0.3517  0.6999  0.5047
 4527TIP3    H113587   1.206   3.626   3.121 -0.3568  0.6958 -0.9541
 4527TIP3    H213588   1.164   3.705   3.244  1.2011 -0.6410  0.4829
 4528TIP3   OH213589   1.454   4.263   3.045 -0.0688  0.0368 -0.0825
 4528TIP3    H113590   1.459   4.311   2.962 -1.1235  2.6779  1.2675
 4528TIP3    H213591   1.519   4.193   3.036  1.1088  1.3058 -2.4543
 4529TIP3   OH213592   3.712   4.185   4.148 -0.1683 -0.3000  0.8204
 4529TIP3    H113593   3.766   4.128   4.203  0.8036 -0.1289  0.0597
 4529TIP3    H213594   3.725   4.273   4.184  0.2434 -0.2288  0.5096
 4530TIP3   OH213595   5.441   5.597   0.371 -0.0239  0.2155 -0.1385
 4530TIP3    H113596   5.422   5.668   0.432 -1.1137 -0.9706  0.9656
 4530TIP3    H213597   5.510   5.631   0.315  1.0264  1.3614  1.7566
 4531TIP3   OH213598   2.899   2.442   3.884 -0.2444  0.6309 -0.0063
 4531TIP3    H113599   2.911   2.522   3.936 -1.3901 -0.2401  1.7124
 4531TIP3    H213600   2.957   2.378   3.926  1.3535  0.7408 -1.9302
 4532TIP3   OH213601   5.495   5.096   1.545 -0.0606 -0.2618  0.4516
 4532TIP3    H113602   5.580   5.125   1.577 -0.4653  0.5003  0.8432
 4532TIP3    H213603   5.457   5.173   1.503 -0.3148 -0.7588 -0.2597
 4533TIP3   OH213604   3.846   5.654   3.592  0.7554  0.4884 -0.8317
 4533TIP3    H113605   3.822   5.744   3.570  0.7310  0.6828 -0.0429
 4533TIP3    H213606   3.813   5.641   3.681  1.1829 -0.1383 -0.7539
 4534TIP3   OH213607   5.272   0.452   3.517 -0.2851 -0.3573  0.6238
 4534TIP3    H113608   5.353   0.406   3.537  0.6900  0.3699 -1.4154
 4534TIP3    H213609   5.210   0.383   3.493  0.3619 -0.7904  0.1876
 4535TIP3   OH213610   3.932   5.154   3.330  0.3948 -0.5177 -0.0830
 4535TIP3    H113611   3.912   5.247   3.337  1.4946 -0.2422 -0.3614
 4535TIP3    H213612   3.941   5.137   3.236 -1.1132 -1.2171 -0.1266
 4536TIP3   OH213613   6.217   3.682   0.070  0.1677 -0.1500  0.0676
 4536TIP3    H113614   6.280   3.683  -0.002 -0.5010 -1.5295 -0.5763
 4536TIP3    H213615   6.139   3.726   0.035 -0.2573 -1.0694 -0.1609
 4537TIP3   OH213616   3.588   4.438   1.392 -0.1439 -0.2198  0.1737
 4537TIP3    H113617   3.561   4.460   1.303 -0.9597  0.9812  0.6959
 4537TIP3    H213618   3.574   4.344   1.399  0.5194 -0.4405 -1.1496
 4538TIP3   OH213619   0.930   0.946   1.121 -0.7980  0.7675  0.1678
 4538TIP3    H113620   1.000   0.886   1.146 -1.5106 -0.1722 -0.0506
 4538TIP3    H213621   0.870   0.947   1.195 -0.9354  0.9924  0.0576
 4539TIP3   OH213622   4.695   1.149   0.803  0.0940  0.7903  0.4653
 4539TIP3    H113623   4.743   1.093   0.741 -0.2886 -0.5247  1.3130
 4539TIP3    H213624   4.759   1.214   0.831 -0.0621  2.3002 -2.2818
 4540TIP3   OH213625   5.771   5.782   0.836  0.9431 -0.2441 -0.2311
 4540TIP3    H113626   5.838   5.778   0.768  0.8809  0.8407 -0.3678
 4540TIP3    H213627   5.699   5.729   0.801  1.3759 -0.6994 -0.4613
 4541TIP3   OH213628   3.797   5.405   0.235 -0.6062 -0.0238  0.3970
 4541TIP3    H113629   3.822   5.317   0.208  0.7560  0.4865 -0.0891
 4541TIP3    H213630   3.706   5.397   0.261 -0.8888 -1.3184 -0.8476
 4542TIP3   OH213631   5.906   1.948   0.311  0.3164 -0.5620  0.1554
 4542TIP3    H113632   5.919   2.043   0.314 -1.6568 -0.2744  1.2180
 4542TIP3    H213633   5.994   1.912   0.311  1.1192  1.2463  1.5983
 4543TIP3   OH213634   4.962   2.345   0.452 -0.3618 -0.7749 -0.3398
 4543TIP3    H113635   4.998   2.256   0.463 -0.6993 -1.1321 -1.9851
 4543TIP3    H213636   4.952   2.355   0.358 -0.5107  0.9616 -0.1571
 4544TIP3   OH213637   2.108   0.611   0.664  0.2538 -0.2292 -0.2005
 4544TIP3    H113638   2.016   0.610   0.692  0.8590 -0.3559  1.8987
 4544TIP3    H213639   2.136   0.701   0.677  0.4515 -0.1939 -0.8308
 4545TIP3   OH213640   6.234   2.317   5.148  0.4973  0.0144  0.0770
 4545TIP3    H113641   6.282   2.246   5.105 -0.2969 -0.5392  0.0803
 4545TIP3    H213642   6.142   2.295   5.134  0.1765  2.1293 -1.7787
 4546TIP3   OH213643   3.940   3.672   3.369 -0.0827  0.2198 -0.5062
 4546TIP3    H113644   3.863   3.674   3.313 -2.1365  0.7030  2.1354
 4546TIP3    H213645   3.905   3.667   3.458  2.8223  2.7956  0.9915
 4547TIP3   OH213646   2.829   1.692   0.042  0.1617  0.6292  0.3836
 4547TIP3    H113647   2.886   1.637  -0.013 -0.8687 -0.4808  0.3786
 4547TIP3    H213648   2.765   1.728  -0.020  0.0730  0.8076  0.5822
 4548TIP3   OH213649   2.735   2.468   4.412 -0.5532 -0.2262 -0.2727
 4548TIP3    H113650   2.652   2.421   4.405 -0.5437 -0.1715 -0.8324
 4548TIP3    H213651   2.780   2.426   4.485  0.7954 -3.1942 -2.6077
 4549TIP3   OH213652   6.262   5.897   1.869  0.1894 -0.4381 -0.3191
 4549TIP3    H113653   6.336   5.846   1.902 -0.0673 -0.5033  0.1723
 4549TIP3    H213654   6.205   5.909   1.946  1.1688  2.2464  0.1029
 4550TIP3   OH213655   6.202   4.426   2.255 -0.3225  0.1110  0.1239
 4550TIP3    H113656   6.150   4.437   2.175  1.7658  3.8430 -0.9393
 4550TIP3    H213657   6.151   4.469   2.323  0.8734  3.2046 -0.7881
 4551TIP3   OH213658   5.077   1.991   0.600 -0.2842 -0.3974  0.1767
 4551TIP3    H113659   5.003   2.039   0.637  0.5540 -0.3068  1.8343
 4551TIP3    H213660   5.037   1.914   0.559 -1.2684 -0.5371  1.3391
 4552TIP3   OH213661   0.202   5.112   3.960 -0.1865  0.2511 -0.1403
 4552TIP3    H113662   0.148   5.191   3.966  0.7117  1.2002 -2.8598
 4552TIP3    H213663   0.269   5.124   4.028 -0.1325  1.8062 -0.4308
 4553TIP3   OH213664   5.792   2.339   2.329  0.3420 -0.1439  0.6152
 4553TIP3    H113665   5.739   2.344   2.250 -1.7618  0.0550  1.9738
 4553TIP3    H213666   5.863   2.279   2.307 -0.0486  0.0900 -1.4670
 4554TIP3   OH213667   4.395   4.673   0.683  0.2272  0.1012 -0.3022
 4554TIP3    H113668   4.466   4.611   0.697 -0.2145 -0.3495 -0.0592
 4554TIP3    H213669   4.438   4.750   0.645  0.4759 -1.2056 -2.8931
 4555TIP3   OH213670   3.131   3.458   4.660  0.1763 -0.1138  0.3441
 4555TIP3    H113671   3.136   3.378   4.608  0.4907 -0.9197  1.5921
 4555TIP3    H213672   3.200   3.514   4.625  0.5146 -0.7231  0.0278
 4556TIP3   OH213673   2.060   5.149   3.509 -0.6347  0.0908 -0.3761
 4556TIP3    H113674   2.023   5.062   3.523 -1.1387  0.3709  0.0648
 4556TIP3    H213675   2.152   5.133   3.490 -0.4921 -0.4773  0.7217
 4557TIP3   OH213676   5.469   1.005   3.845  0.0969 -0.2360 -0.2765
 4557TIP3    H113677   5.423   1.074   3.797 -0.0472 -1.6291 -2.2572
 4557TIP3    H213678   5.556   1.002   3.804  0.1065 -1.1812 -0.2157
 4558TIP3   OH213679   2.947   4.185   0.594  0.6107 -0.4926  0.0621
 4558TIP3    H113680   2.875   4.188   0.531  0.9228 -0.2787 -0.2928
 4558TIP3    H213681   2.910   4.218   0.675 -0.0456 -1.6454  0.2479
 4559TIP3   OH213682   2.012   4.862   0.008 -0.1557 -0.0444  0.1807
 4559TIP3    H113683   1.922   4.857   0.038 -1.9918  1.4138 -4.2974
 4559TIP3    H213684   2.037   4.771  -0.010 -0.9307 -0.3952  0.8294
 4560TIP3   OH213685   5.144   1.086   3.647 -0.7089 -0.1541 -0.3340
 4560TIP3    H113686   5.217   1.146   3.653  1.1360 -2.0432 -2.1604
 4560TIP3    H213687   5.163   1.018   3.711 -0.6883 -0.7852 -0.9918
 4561TIP3   OH213688   4.459   4.333   3.469  0.0591 -0.1890  0.7491
 4561TIP3    H113689   4.526   4.399   3.487 -1.0444  1.3476 -0.5652
 4561TIP3    H213690   4.485   4.295   3.385 -0.4094  0.0402  0.4952
 4562TIP3   OH213691   5.434   1.940   0.236 -0.0634  0.1450  0.4111
 4562TIP3    H113692   5.421   1.850   0.265  0.8525 -0.6034 -1.3105
 4562TIP3    H213693   5.526   1.943   0.208 -0.2221  1.4735 -0.0611
 4563TIP3   OH213694   6.035   4.301   2.778 -0.4314  0.7143 -0.7444
 4563TIP3    H113695   6.028   4.274   2.687 -4.2619 -1.2512 -0.0476
 4563TIP3    H213696   5.958   4.264   2.821  2.2529 -0.4086  3.8276
 4564TIP3   OH213697   1.583   3.115   5.094  0.4324  0.4611  0.2561
 4564TIP3    H113698   1.578   3.198   5.046  0.6958  0.3780  0.0847
 4564TIP3    H213699   1.537   3.053   5.038  0.1748  0.5074  0.4178
 4565TIP3   OH213700   2.021   1.914   4.093  0.0471 -0.4939 -0.6360
 4565TIP3    H113701   2.005   1.829   4.052 -0.1709 -1.0628  0.5530
 4565TIP3    H213702   2.115   1.916   4.111  0.0045 -0.6325 -0.3839
 4566TIP3   OH213703   0.279   1.751   1.131  0.3696 -0.0323 -1.1821
 4566TIP3    H113704   0.253   1.659   1.126  1.2232 -0.2618 -1.5767
 4566TIP3    H213705   0.211   1.797   1.082 -1.3732 -0.1343  0.9497
 4567TIP3   OH213706   0.093   1.153   2.004  0.4896 -0.0522 -0.1780
 4567TIP3    H113707   0.074   1.107   2.086  0.4443 -0.4659 -0.4137
 4567TIP3    H213708   0.187   1.170   2.007  0.0958  2.3656  1.1833
 4568TIP3   OH213709   2.993   4.283   4.895 -0.1757  0.4122  0.1437
 4568TIP3    H113710   3.036   4.246   4.972 -0.1624  1.9866  0.9286
 4568TIP3    H213711   2.902   4.252   4.902 -0.3599  1.1518  1.2239
 4569TIP3   OH213712   0.045   4.613   0.296 -0.6119 -0.1248  0.2185
 4569TIP3    H113713   0.012   4.702   0.287  0.0706 -0.0065 -1.5032
 4569TIP3    H213714   0.021   4.587   0.385 -3.1767  0.8120 -0.1127
 4570TIP3   OH213715   2.819   4.174   4.407 -0.3161 -0.1942 -0.4231
 4570TIP3    H113716   2.875   4.179   4.485  0.8864  0.8963 -1.3101
 4570TIP3    H213717   2.756   4.104   4.427  2.2921 -2.5993  0.0569
 4571TIP3   OH213718   0.810   5.298   1.315 -0.1946  0.5286 -0.2890
 4571TIP3    H113719   0.895   5.253   1.313 -1.4079 -1.8776 -0.8473
 4571TIP3    H213720   0.793   5.311   1.408 -0.5435 -1.7673  0.0254
 4572TIP3   OH213721   5.399   4.514   3.792 -0.0888 -0.1928  0.8113
 4572TIP3    H113722   5.404   4.421   3.812 -0.6039 -0.7303 -1.3209
 4572TIP3    H213723   5.416   4.520   3.698 -0.2500  1.8476  0.8591
 4573TIP3   OH213724   2.659   0.621   1.070 -0.1657 -0.5964  0.1410
 4573TIP3    H113725   2.633   0.551   1.010  0.1713  1.2013 -2.2148
 4573TIP3    H213726   2.721   0.579   1.129  0.5228 -2.1662 -1.5920
 4574TIP3   OH213727   6.258   4.557   3.950  0.3109  0.2944 -0.7124
 4574TIP3    H113728   6.214   4.500   3.888 -0.1031 -1.4003  1.0193
 4574TIP3    H213729   6.333   4.591   3.902 -0.0050 -0.9008 -2.1423
 4575TIP3   OH213730   0.860   5.587   2.671  0.2819  0.3610  0.0278
 4575TIP3    H113731   0.879   5.673   2.634 -3.0054  1.7009  1.0200
 4575TIP3    H213732   0.904   5.586   2.756 -0.2127  1.3919  0.3079
 4576TIP3   OH213733   6.126   1.773   0.376  0.3412  0.2313 -1.1368
 4576TIP3    H113734   6.189   1.708   0.346  0.0337  0.2893 -1.9457
 4576TIP3    H213735   6.137   1.776   0.471  2.1772  0.8709 -1.3297
 4577TIP3   OH213736   1.742   5.426   0.225  0.2270  0.2088 -0.6935
 4577TIP3    H113737   1.815   5.469   0.180 -0.9694  1.0645 -1.9129
 4577TIP3    H213738   1.715   5.356   0.166 -0.5628  0.5453 -0.7499
 4578TIP3   OH213739   4.133   2.207   2.420 -0.0467 -0.4153  0.1991
 4578TIP3    H113740   4.196   2.160   2.366 -0.1267  1.7155 -1.8766
 4578TIP3    H213741   4.144   2.299   2.396 -2.1225  0.3036  1.7111
 4579TIP3   OH213742   3.372   5.471   2.693 -0.2381  0.4085 -0.4089
 4579TIP3    H113743   3.332   5.557   2.695  0.5599  0.8850 -2.3081
 4579TIP3    H213744   3.461   5.486   2.662  0.3419 -0.9674  0.4801
 4580TIP3   OH213745   4.010   5.545   2.604  0.0124  0.4500  0.5697
 4580TIP3    H113746   4.026   5.598   2.682 -2.3893  0.4309  1.1300
 4580TIP3    H213747   4.015   5.454   2.636 -0.0121  0.4181  0.4847
 4581TIP3   OH213748   2.696   3.212   0.921 -0.2877 -0.0735 -0.0616
 4581TIP3    H113749   2.756   3.140   0.905  0.2104 -0.4108  2.8579
 4581TIP3    H213750   2.752   3.288   0.936 -0.7430  0.4407 -0.8707
 4582TIP3   OH213751   2.678   5.710   4.002 -0.3538 -0.3816 -0.2728
 4582TIP3    H113752   2.609   5.646   4.020 -1.5334  0.4675 -1.5500
 4582TIP3    H213753   2.633   5.794   4.000  1.1879  0.5644  1.4764
 4583TIP3   OH213754   3.352   0.200   3.406  0.0818  0.7865  0.2456
 4583TIP3    H113755   3.423   0.261   3.425  2.6401 -1.4945 -1.2299
 4583TIP3    H213756   3.341   0.206   3.311 -2.2490  1.5730  0.5138
 4584TIP3   OH213757   2.076   2.047   4.911  0.1511 -0.0963  0.5294
 4584TIP3    H113758   2.116   2.087   4.988 -0.6993 -1.6390  1.8363
 4584TIP3    H213759   1.997   2.005   4.944 -1.2491  0.7647 -1.5451
 4585TIP3   OH213760   3.196   0.154   2.245 -0.2504  0.3981  0.3573
 4585TIP3    H113761   3.286   0.185   2.258  0.1547 -0.8486  0.6636
 4585TIP3    H213762   3.177   0.175   2.153  0.5726  0.1520  0.1157
 4586TIP3   OH213763   2.129   5.952   4.994 -0.1418 -0.1394  0.1602
 4586TIP3    H113764   2.177   6.029   4.963 -1.6230  0.5915 -0.4087
 4586TIP3    H213765   2.098   5.909   4.915 -1.5729  0.1562  0.5480
 4587TIP3   OH213766   0.609   5.138   4.296 -0.0253 -0.1073 -0.1787
 4587TIP3    H113767   0.543   5.073   4.322 -0.4768 -0.0587 -1.1803
 4587TIP3    H213768   0.685   5.116   4.350  0.1511 -2.0650 -1.1336
 4588TIP3   OH213769   3.422   2.182   2.778 -0.7540  0.2147  1.0164
 4588TIP3    H113770   3.395   2.092   2.795 -2.1047  0.5368  0.6601
 4588TIP3    H213771   3.503   2.191   2.828 -0.6017 -1.1846  1.0796
 4589TIP3   OH213772   4.305   1.925   1.771 -0.2028  0.1801  0.6683
 4589TIP3    H113773   4.255   1.891   1.697 -1.1108 -0.1877  1.4345
 4589TIP3    H213774   4.244   1.921   1.845  0.9317 -0.1742  1.6003
 4590TIP3   OH213775   1.874   2.789   2.089 -0.5430  0.7174  0.3959
 4590TIP3    H113776   1.848   2.775   2.180 -1.4967 -0.4120 -0.0258
 4590TIP3    H213777   1.955   2.840   2.094 -1.2109  1.6832  1.8372
 4591TIP3   OH213778   6.120   1.164   4.286 -0.0857 -0.8643 -0.5146
 4591TIP3    H113779   6.186   1.116   4.336  1.1330 -0.2664 -1.4764
 4591TIP3    H213780   6.041   1.159   4.339  0.9396 -0.9314  1.0742
 4592TIP3   OH213781   4.571   3.632   4.789 -0.2718 -0.5950 -0.2511
 4592TIP3    H113782   4.553   3.719   4.824 -0.6123 -0.8072  0.1127
 4592TIP3    H213783   4.542   3.572   4.858  1.5117 -0.9757  0.2095
 4593TIP3   OH213784   2.791   3.031   2.380 -0.4032 -0.3361  0.2594
 4593TIP3    H113785   2.802   3.084   2.459 -1.3066 -2.2334  1.7336
 4593TIP3    H213786   2.698   3.033   2.362 -0.4552 -1.3572  0.3263
 4594TIP3   OH213787   2.108   5.189   4.754  0.5870  0.4073 -0.3297
 4594TIP3    H113788   2.107   5.210   4.847 -0.8953 -1.1661  0.0560
 4594TIP3    H213789   2.050   5.254   4.714  2.5947  2.2109 -0.4992
 4595TIP3   OH213790   6.041   0.262   0.118  0.2743 -0.2285  0.4963
 4595TIP3    H113791   5.949   0.287   0.124 -0.2281 -1.8508  0.0030
 4595TIP3    H213792   6.040   0.169   0.094  2.0430  0.1186 -1.1999
 4596TIP3   OH213793   4.582   4.080   1.897  0.2374 -0.5654  0.0829
 4596TIP3    H113794   4.492   4.059   1.922  0.7933 -0.1202  2.7451
 4596TIP3    H213795   4.587   4.175   1.902  0.5554 -0.4682 -1.3963
 4597TIP3   OH213796   4.275   2.803   0.363 -0.0766 -0.2985 -0.7202
 4597TIP3    H113797   4.355   2.843   0.330  0.6254 -0.0231  1.1926
 4597TIP3    H213798   4.225   2.876   0.401 -0.6597 -0.6523 -0.7898
 4598TIP3   OH213799   4.192   0.892   4.679  0.1722  0.3818 -0.1347
 4598TIP3    H113800   4.255   0.962   4.698  1.3815 -1.0095  1.2929
 4598TIP3    H213801   4.223   0.854   4.597  0.5376  0.4311 -0.0240
 4599TIP3   OH213802   4.575   4.950   2.897 -0.8637 -0.1894 -0.0549
 4599TIP3    H113803   4.545   4.999   2.973 -1.9743 -1.1660  0.1651
 4599TIP3    H213804   4.659   4.913   2.924 -0.5660  0.6334  0.1751
 4600TIP3   OH213805   2.579   4.667   4.041  0.4083 -0.2187  0.4020
 4600TIP3    H113806   2.525   4.721   4.099  1.4328  1.2374  0.0643
 4600TIP3    H213807   2.530   4.585   4.032 -1.4450  0.7944  0.6120
 4601TIP3   OH213808   3.825   2.704   3.610  0.5536 -0.0129 -0.1143
 4601TIP3    H113809   3.784   2.694   3.524 -0.4139 -1.5945  0.4916
 4601TIP3    H213810   3.811   2.620   3.653 -0.2632  1.1945  2.1347
 4602TIP3   OH213811   3.494   5.835   2.652 -0.3348  0.2636 -0.2700
 4602TIP3    H113812   3.411   5.787   2.648  0.4485 -1.5297  2.3448
 4602TIP3    H213813   3.548   5.794   2.585 -0.6324 -0.5668 -0.0200
 4603TIP3   OH213814   2.803   1.274   3.425 -0.0752  0.3264 -0.0323
 4603TIP3    H113815   2.878   1.334   3.431  0.1512  0.0030  0.4366
 4603TIP3    H213816   2.728   1.326   3.454 -0.2164  0.9453 -1.4033
 4604TIP3   OH213817   3.065   4.761   4.751 -0.5764 -0.0395  0.5131
 4604TIP3    H113818   3.153   4.736   4.722 -0.7986  0.1457 -0.3457
 4604TIP3    H213819   3.011   4.684   4.733 -0.7327  0.1056  0.3613
 4605TIP3   OH213820   5.375   2.667   3.633  0.1626 -0.0458  0.3142
 4605TIP3    H113821   5.403   2.717   3.556  1.0191 -0.1828  0.5251
 4605TIP3    H213822   5.423   2.585   3.628 -0.1084 -0.2388  0.7635
 4606TIP3   OH213823   5.757   2.577   0.131 -0.4976  0.0468  0.5863
 4606TIP3    H113824   5.838   2.547   0.091  0.6986  1.3632  1.8788
 4606TIP3    H213825   5.752   2.670   0.108  0.2377  0.8573  3.3404
 4607TIP3   OH213826   2.315   1.827   0.322  0.2187  0.1179 -0.0240
 4607TIP3    H113827   2.362   1.834   0.405  1.0365  0.3054 -0.4987
 4607TIP3    H213828   2.345   1.901   0.270 -0.4242  0.1037 -0.4297
 4608TIP3   OH213829   2.459   2.449   3.948  0.3368 -0.1649 -0.0054
 4608TIP3    H113830   2.512   2.375   3.920  0.1436 -0.0923 -0.5913
 4608TIP3    H213831   2.517   2.502   4.002  1.3874  0.7564 -1.9272
 4609TIP3   OH213832   2.546   1.272   4.658  0.0459 -0.6464  0.3449
 4609TIP3    H113833   2.456   1.241   4.664 -0.1119 -0.2507  0.0095
 4609TIP3    H213834   2.564   1.312   4.743 -0.8372  1.2892 -0.3390
 4610TIP3   OH213835   3.224   4.471   4.145 -0.3407 -0.6356  0.3660
 4610TIP3    H113836   3.295   4.408   4.156 -0.2151 -0.4630  0.5371
 4610TIP3    H213837   3.244   4.541   4.206 -0.9752 -0.8632  0.8428
 4611TIP3   OH213838   5.420   1.216   2.345 -0.1372 -0.1916 -0.0409
 4611TIP3    H113839   5.466   1.143   2.304 -0.0402  0.4676 -1.1585
 4611TIP3    H213840   5.489   1.279   2.367 -0.1524 -0.6604  1.4597
 4612TIP3   OH213841   0.409   1.541   3.583 -1.1558 -0.1780 -0.1309
 4612TIP3    H113842   0.447   1.629   3.579  1.8393 -1.3506 -0.0259
 4612TIP3    H213843   0.426   1.503   3.497 -2.3581 -0.7103 -0.1513
 4613TIP3   OH213844   2.167   1.066   2.590  0.4146  0.0349 -0.0141
 4613TIP3    H113845   2.206   0.995   2.539 -0.8458  0.0326 -1.0267
 4613TIP3    H213846   2.076   1.068   2.563  0.6262  2.7258 -0.8453
 4614TIP3   OH213847   6.224   1.057   0.840  0.0024 -0.2433  0.6219
 4614TIP3    H113848   6.271   0.990   0.790  0.0841  0.3439 -0.0937
 4614TIP3    H213849   6.158   1.007   0.890 -0.7369 -0.7592 -0.8098
 4615TIP3   OH213850   2.982   1.480   0.944 -0.5133  0.1823 -0.0455
 4615TIP3    H113851   3.040   1.405   0.954 -1.4910 -0.3304  2.7925
 4615TIP3    H213852   3.019   1.546   1.004 -2.7280 -0.1698  1.8609
 4616TIP3   OH213853   3.907   4.415   2.345 -0.3464  0.8569  0.1793
 4616TIP3    H113854   3.873   4.341   2.395 -0.3091  0.8455  0.1876
 4616TIP3    H213855   3.871   4.404   2.257 -0.8788  1.1900  0.3490
 4617TIP3   OH213856   1.663   4.223   3.731  0.0256  0.2481 -0.0957
 4617TIP3    H113857   1.623   4.296   3.779 -0.0994  1.5192 -2.0284
 4617TIP3    H213858   1.594   4.157   3.725 -0.6291  0.9283 -0.2823
 4618TIP3   OH213859   5.135   2.090   4.334 -0.0208  0.3903  0.2594
 4618TIP3    H113860   5.145   2.182   4.308 -1.2774  1.3358  2.8100
 4618TIP3    H213861   5.078   2.052   4.267 -0.2136  1.7095 -0.3471
 4619TIP3   OH213862   0.979   4.665   1.613 -0.0459  0.1249 -0.2945
 4619TIP3    H113863   1.064   4.621   1.601 -0.8333 -1.1283 -1.5346
 4619TIP3    H213864   0.981   4.738   1.551 -0.2065 -0.4214 -0.9498
 4620TIP3   OH213865   2.400   4.495   2.584 -0.2421  0.1940  0.4705
 4620TIP3    H113866   2.325   4.533   2.539 -0.1902  1.9033  1.7278
 4620TIP3    H213867   2.362   4.428   2.642 -0.6332  0.1370  0.1532
 4621TIP3   OH213868   1.793   1.014   2.016 -0.0463  0.3956  0.4460
 4621TIP3    H113869   1.789   1.081   2.084  1.4314 -1.9973  3.1111
 4621TIP3    H213870   1.705   1.013   1.978 -0.9678  1.7770  2.3971
 4622TIP3   OH213871   0.820   1.623   3.993  0.0755  0.1747  0.4555
 4622TIP3    H113872   0.817   1.597   3.901  0.3215 -0.0804  0.5209
 4622TIP3    H213873   0.913   1.635   4.011 -0.0220  0.9452  0.4690
 4623TIP3   OH213874   2.549   4.493   4.372  0.1488 -0.4150  0.5476
 4623TIP3    H113875   2.613   4.452   4.314 -2.5446 -2.8049 -1.0050
 4623TIP3    H213876   2.518   4.422   4.428 -2.3978  0.0968 -0.0517
 4624TIP3   OH213877   0.835   0.262   1.235 -0.1556 -0.0744  0.2794
 4624TIP3    H113878   0.870   0.263   1.324  0.3813 -3.1140  0.1937
 4624TIP3    H213879   0.749   0.222   1.243  0.5948 -2.0155 -0.7098
 4625TIP3   OH213880   5.066   5.905   2.940  0.1885 -0.3793  0.3861
 4625TIP3    H113881   4.985   5.950   2.966 -0.1645 -1.1138  0.5732
 4625TIP3    H213882   5.098   5.955   2.865 -0.3435  0.0180  0.4181
 4626TIP3   OH213883   0.318   4.220   0.250 -0.2904 -0.5161 -0.1708
 4626TIP3    H113884   0.319   4.188   0.340 -1.2446  0.9990  0.4249
 4626TIP3    H213885   0.334   4.314   0.258 -0.0073 -0.4135 -1.6246
 4627TIP3   OH213886   0.644   3.122   3.970 -0.2606  0.0005  0.4735
 4627TIP3    H113887   0.682   3.195   4.019  0.0993  0.2299 -0.1344
 4627TIP3    H213888   0.553   3.118   3.998 -0.1682  0.4088  0.8315
 4628TIP3   OH213889   0.793   4.720   2.683 -0.0680 -0.1964 -0.6651
 4628TIP3    H113890   0.794   4.698   2.776 -0.9175 -0.7222 -0.7645
 4628TIP3    H213891   0.885   4.721   2.657  0.1047 -1.6412 -0.1855
 4629TIP3   OH213892   4.953   5.616   1.311 -0.0720 -0.4900  0.3379
 4629TIP3    H113893   4.979   5.624   1.220  0.2820 -0.7823  0.4109
 4629TIP3    H213894   5.011   5.549   1.347 -0.9514 -1.1778  0.4961
 4630TIP3   OH213895   6.269   1.774   3.789  0.3898 -0.7460  0.4288
 4630TIP3    H113896   6.208   1.732   3.728  0.9261 -1.1752  0.1727
 4630TIP3    H213897   6.298   1.703   3.846  0.8459 -0.6007  0.3800
 4631TIP3   OH213898   1.487   4.072   4.974  0.2373  0.4015 -1.2668
 4631TIP3    H113899   1.560   4.129   5.000  0.5049 -1.2041  2.0088
 4631TIP3    H213900   1.517   4.032   4.892  2.1935  1.2279 -1.0233
 4632TIP3   OH213901   3.467   1.702   2.116  0.3196 -0.3757 -0.3166
 4632TIP3    H113902   3.414   1.669   2.188  0.6127  0.6112  0.3788
 4632TIP3    H213903   3.538   1.751   2.159 -0.4111  1.6336 -1.2659
 4633TIP3   OH213904   6.222   5.545   1.320  0.9611 -0.0309  0.2087
 4633TIP3    H113905   6.144   5.549   1.375  0.0146 -0.2861 -1.0753
 4633TIP3    H213906   6.255   5.456   1.332  1.3095  0.2025  1.0662
 4634TIP3   OH213907   4.791   1.197   0.458  0.0957 -0.5857 -0.5182
 4634TIP3    H113908   4.715   1.162   0.412  0.7201 -1.0568 -1.2122
 4634TIP3    H213909   4.822   1.123   0.512  0.2546 -0.5004 -0.4906
 4635TIP3   OH213910   0.816   2.823   4.928 -0.2281  0.1774  0.5151
 4635TIP3    H113911   0.807   2.732   4.958  0.6474 -0.2098 -0.3292
 4635TIP3    H213912   0.836   2.815   4.834 -1.4936  1.2935  0.1203
 4636TIP3   OH213913   0.148   0.898   2.746  0.0065  0.1863  0.3809
 4636TIP3    H113914   0.083   0.842   2.787 -0.6439  1.0797  0.6029
 4636TIP3    H213915   0.114   0.987   2.757  0.6600  0.5761 -0.5876
 4637TIP3   OH213916   3.703   1.556   1.685  0.3347  0.2531  0.0367
 4637TIP3    H113917   3.726   1.633   1.632 -0.5987 -0.7425 -1.9020
 4637TIP3    H213918   3.705   1.483   1.624  1.7692 -1.4293  1.9527
 4638TIP3   OH213919   4.714   4.010   3.864  0.4795  0.0768 -0.6003
 4638TIP3    H113920   4.808   4.008   3.884  0.3944  0.0063 -0.1895
 4638TIP3    H213921   4.687   3.919   3.870  0.2264  0.1920  0.0831
 4639TIP3   OH213922   1.848   3.172   0.452 -0.2134 -0.1523  0.1937
 4639TIP3    H113923   1.915   3.105   0.444  0.4665  0.3793  1.2262
 4639TIP3    H213924   1.765   3.125   0.441  0.2906 -0.9977 -0.0080
 4640TIP3   OH213925   1.418   2.213   1.319 -0.0758  0.3028 -0.3390
 4640TIP3    H113926   1.456   2.274   1.381  0.4221  0.5313 -0.8575
 4640TIP3    H213927   1.332   2.251   1.297  0.4236  1.0853 -1.0196
 4641TIP3   OH213928   0.126   2.310   2.369  0.3320 -0.3577 -0.1523
 4641TIP3    H113929   0.108   2.401   2.349 -1.6004 -0.7592 -0.4801
 4641TIP3    H213930   0.088   2.261   2.296 -4.3130 -1.6841  2.7238
 4642TIP3   OH213931   3.506   3.519   1.476  0.1532  0.1541 -0.5181
 4642TIP3    H113932   3.418   3.547   1.502  0.3782  0.5423 -0.1721
 4642TIP3    H213933   3.507   3.425   1.493  0.0124  0.2587  0.0677
 4643TIP3   OH213934   1.178   2.332   1.279  0.0074  0.0373 -0.3234
 4643TIP3    H113935   1.192   2.426   1.292  1.4950 -0.1369 -0.5505
 4643TIP3    H213936   1.136   2.325   1.193 -1.6563  0.5850  0.4116
 4644TIP3   OH213937   2.834   2.320   2.638 -0.4679  0.3267  0.0767
 4644TIP3    H113938   2.806   2.373   2.713  0.1557  0.9021 -0.0887
 4644TIP3    H213939   2.859   2.384   2.571  0.4842 -0.1622 -0.0535
 4645TIP3   OH213940   5.895   3.558   0.646  0.0539 -0.2092 -0.5622
 4645TIP3    H113941   5.971   3.561   0.705 -0.6371  0.9295  0.3026
 4645TIP3    H213942   5.902   3.472   0.604  2.0194  0.0006 -0.7880
 4646TIP3   OH213943   4.786   5.022   3.689  0.1122 -0.3690 -0.0292
 4646TIP3    H113944   4.858   5.017   3.627  0.5247 -0.0392  0.4175
 4646TIP3    H213945   4.709   4.995   3.639  0.6551 -1.4500 -0.3189
 4647TIP3   OH213946   1.390   0.404   3.501 -0.1590  0.2761 -0.2721
 4647TIP3    H113947   1.324   0.412   3.569  0.2613 -2.8632  0.6856
 4647TIP3    H213948   1.344   0.363   3.427  0.3847 -0.8709 -0.0114
 4648TIP3   OH213949   4.819   5.925   3.202  0.2731 -0.0205 -0.0627
 4648TIP3    H113950   4.742   5.871   3.215  1.3898 -1.1995  2.3406
 4648TIP3    H213951   4.799   5.978   3.125 -2.3992 -1.1424 -0.2392
 4649TIP3   OH213952   3.069   2.654   1.402  0.2557  0.0314  0.0457
 4649TIP3    H113953   3.081   2.738   1.448 -1.3436  0.8311 -0.9054
 4649TIP3    H213954   2.975   2.641   1.400  0.4325 -1.3358 -0.6658
 4650TIP3   OH213955   1.669   4.762   3.825  0.0138  0.4112  0.0421
 4650TIP3    H113956   1.685   4.759   3.920  1.3040  0.2898 -0.1547
 4650TIP3    H213957   1.596   4.823   3.815 -1.3862 -0.9530  1.2427
 4651TIP3   OH213958   2.630   2.262   1.937  0.0596  0.3196 -0.3084
 4651TIP3    H113959   2.637   2.258   1.841  2.0509 -1.5058 -0.1710
 4651TIP3    H213960   2.659   2.350   1.960  2.7466 -0.2488 -1.2500
 4652TIP3   OH213961   3.338   5.502   1.289 -0.1367 -0.0395 -0.3870
 4652TIP3    H113962   3.370   5.574   1.235 -0.2394  1.1127  1.0197
 4652TIP3    H213963   3.270   5.542   1.344  0.9617 -0.7747  1.6000
 4653TIP3   OH213964   1.226   5.289   3.191 -0.0874  0.1916 -0.3146
 4653TIP3    H113965   1.151   5.295   3.251  0.0732 -0.6949 -0.0087
 4653TIP3    H213966   1.210   5.209   3.141  1.7472 -1.2839  1.3127
 4654TIP3   OH213967   4.589   2.297   4.874  0.2679  0.0756 -0.1236
 4654TIP3    H113968   4.568   2.287   4.781  0.0475  0.0104 -0.0663
 4654TIP3    H213969   4.593   2.392   4.888 -0.5409  0.1011 -0.0093
 4655TIP3   OH213970   0.569   3.197   0.671  0.1912 -0.6705 -0.1848
 4655TIP3    H113971   0.553   3.277   0.622  1.9370 -0.2723 -0.1695
 4655TIP3    H213972   0.554   3.221   0.763 -0.7410 -0.7824 -0.2975
 4656TIP3   OH213973   4.193   2.060   0.172  0.4478  0.5520 -0.4684
 4656TIP3    H113974   4.107   2.048   0.134 -0.8168  0.4260  2.1926
 4656TIP3    H213975   4.180   2.048   0.266  3.7519 -1.5795 -0.0983
 4657TIP3   OH213976   3.899   5.421   2.354 -0.4109 -0.4164  0.1193
 4657TIP3    H113977   3.940   5.481   2.415  1.6313 -0.6620 -0.9435
 4657TIP3    H213978   3.826   5.471   2.317 -0.7798  0.2234  1.6250
 4658TIP3   OH213979   1.815   2.229   4.325  0.5026 -0.2474  0.1564
 4658TIP3    H113980   1.761   2.150   4.329 -1.0778  0.8364  1.3944
 4658TIP3    H213981   1.867   2.218   4.245  0.3960 -2.5486  0.3252
 4659TIP3   OH213982   5.350   3.001   4.882 -0.1423 -0.1568  0.2321
 4659TIP3    H113983   5.316   3.090   4.873 -1.1108 -0.6337 -1.1200
 4659TIP3    H213984   5.440   3.013   4.913  0.0606  1.3385 -0.8188
 4660TIP3   OH213985   4.789   3.560   1.252 -0.0547  0.1990 -0.6342
 4660TIP3    H113986   4.842   3.489   1.217  1.1576  0.4379  0.6215
 4660TIP3    H213987   4.838   3.590   1.329 -1.7262  0.8184  0.2320
 4661TIP3   OH213988   1.026   1.917   2.752  0.2533 -0.4588 -0.1896
 4661TIP3    H113989   1.039   1.895   2.660 -0.5847 -0.5697 -0.2923
 4661TIP3    H213990   0.939   1.882   2.773  0.5234 -0.6235  0.7026
 4662TIP3   OH213991   1.101   3.349   4.086 -0.1934 -0.1521 -0.3182
 4662TIP3    H113992   1.097   3.364   4.181  0.7682  0.1449 -0.3114
 4662TIP3    H213993   1.188   3.379   4.061 -0.7022  0.4699 -1.4210
 4663TIP3   OH213994   1.341   4.935   3.360  0.0237  0.5033 -0.7458
 4663TIP3    H113995   1.310   4.920   3.271  1.2511 -3.0745 -0.7451
 4663TIP3    H213996   1.283   4.882   3.415  0.8949  0.5291  0.2377
 4664TIP3   OH213997   2.870   5.098   1.094 -0.5170  0.0409  0.0416
 4664TIP3    H113998   2.964   5.088   1.075 -0.4267  1.5762 -0.5060
 4664TIP3    H213999   2.827   5.088   1.009 -0.7192  0.6005  0.0738
 4665TIP3   OH214000   2.824   2.173   4.914 -0.0491 -0.7877 -0.3176
 4665TIP3    H114001   2.823   2.092   4.964  2.9721 -1.6383 -1.3914
 4665TIP3    H214002   2.860   2.238   4.974 -1.8383 -0.3513  0.3312
 4666TIP3   OH214003   1.369   1.295   3.149 -0.3282 -0.1810 -0.0704
 4666TIP3    H114004   1.422   1.224   3.183 -1.1902 -0.9842 -0.3651
 4666TIP3    H214005   1.391   1.298   3.055 -0.2299  0.0076 -0.0428
 4667TIP3   OH214006   2.172   5.040   1.468  0.1777  0.0798 -0.1170
 4667TIP3    H114007   2.236   5.078   1.408  0.2971 -0.6032 -0.4332
 4667TIP3    H214008   2.106   5.000   1.412 -0.1575  0.1642  0.2091
 4668TIP3   OH214009   4.960   0.187   2.016  0.0178 -0.2011 -0.9260
 4668TIP3    H114010   5.001   0.195   1.929 -0.2562  1.5704 -0.9299
 4668TIP3    H214011   4.888   0.250   2.015 -0.4329 -0.6597  0.3529
 4669TIP3   OH214012   0.178   2.928   1.400  0.2067 -0.1590 -0.0790
 4669TIP3    H114013   0.253   2.871   1.384 -0.3152 -0.3464 -2.1527
 4669TIP3    H214014   0.161   2.920   1.494  1.0407 -2.2973 -0.0647
 4670TIP3   OH214015   2.228   3.463   2.762  0.4465  0.2474 -0.1587
 4670TIP3    H114016   2.183   3.525   2.704  1.0437  1.2149  0.3754
 4670TIP3    H214017   2.305   3.512   2.793  0.0518 -0.1805  1.5806
 4671TIP3   OH214018   6.210   4.356   1.923  0.3408  0.2758  0.1031
 4671TIP3    H114019   6.182   4.265   1.933 -1.0466  0.7199  0.4981
 4671TIP3    H214020   6.185   4.379   1.833  0.5724  0.3155  0.0473
 4672TIP3   OH214021   2.956   5.183   4.982 -0.4358  0.1067 -0.3587
 4672TIP3    H114022   2.931   5.151   4.895 -0.0853 -1.7961  0.1868
 4672TIP3    H214023   3.051   5.192   4.978 -0.1900 -1.6990  0.2922
 4673TIP3   OH214024   4.731   0.451   3.959 -0.4609 -0.3054 -0.3421
 4673TIP3    H114025   4.720   0.512   3.886  1.0529  1.0817  0.5278
 4673TIP3    H214026   4.692   0.369   3.927 -0.1621  0.3363 -2.5630
 4674TIP3   OH214027   3.566   4.317   4.650 -0.6733 -0.3404 -0.5036
 4674TIP3    H114028   3.504   4.300   4.721  0.3931 -1.0939  0.2810
 4674TIP3    H214029   3.564   4.412   4.639  0.4332  0.0148  1.7850
 4675TIP3   OH214030   3.827   3.225   1.086  0.2605  0.4081  0.1524
 4675TIP3    H114031   3.898   3.161   1.082  0.6550  0.8754 -0.4510
 4675TIP3    H214032   3.818   3.244   1.180 -0.8881 -1.6355  0.5081
 4676TIP3   OH214033   5.483   4.853   2.091  0.5959  0.2850  0.1943
 4676TIP3    H114034   5.511   4.781   2.148  0.7967  1.6030  1.8045
 4676TIP3    H214035   5.516   4.932   2.133 -1.5844  1.5332 -0.3116
 4677TIP3   OH214036   3.041   1.921   2.152  0.3495 -0.2700  0.1463
 4677TIP3    H114037   3.012   1.986   2.216  0.5387 -1.2874  1.2990
 4677TIP3    H214038   3.130   1.949   2.128  0.3550 -0.0016  0.4795
 4678TIP3   OH214039   4.583   0.054   3.036  0.5816 -0.2396 -1.1997
 4678TIP3    H114040   4.588   0.144   3.004  1.1615  0.2711  0.2636
 4678TIP3    H214041   4.494   0.026   3.015 -0.2125  1.3139 -0.1010
 4679TIP3   OH214042   4.240   0.855   2.369  0.5098 -0.4134  0.2644
 4679TIP3    H114043   4.181   0.800   2.318  0.2791 -0.0292  0.1081
 4679TIP3    H214044   4.226   0.943   2.334  1.0829 -0.2968  0.3102
 4680TIP3   OH214045   1.031   5.998   0.254  0.5028 -0.2441 -0.1435
 4680TIP3    H114046   0.952   5.975   0.206 -1.5610  1.9514  1.9550
 4680TIP3    H214047   1.043   5.926   0.315 -0.8062  0.0795  0.5321
 4681TIP3   OH214048   1.072   4.454   1.242  0.2316  0.3785 -0.3804
 4681TIP3    H114049   0.997   4.401   1.269  0.3029  0.6052  0.2735
 4681TIP3    H214050   1.125   4.464   1.321  2.2736 -1.8311 -1.3421
 4682TIP3   OH214051   2.761   2.363   4.677 -0.2100  0.4682  0.0945
 4682TIP3    H114052   2.668   2.356   4.701 -0.0070  1.3906  1.2069
 4682TIP3    H214053   2.806   2.307   4.741 -0.0062 -0.2036 -0.6201
 4683TIP3   OH214054   4.794   0.559   0.842 -0.4135 -0.3081  0.8809
 4683TIP3    H114055   4.790   0.654   0.845  0.2230 -0.2551  0.3283
 4683TIP3    H214056   4.777   0.531   0.932 -0.4173  0.3331  1.0855
 4684TIP3   OH214057   5.584   1.164   0.203 -0.2797 -0.2132  0.1010
 4684TIP3    H114058   5.559   1.255   0.188 -0.6714 -0.2794  0.3546
 4684TIP3    H214059   5.672   1.157   0.166 -0.0994  0.3628  0.4192
 4685TIP3   OH214060   1.426   3.396   0.576  0.7465  0.2462 -0.3799
 4685TIP3    H114061   1.474   3.390   0.659  0.1134  0.6270  0.0216
 4685TIP3    H214062   1.365   3.323   0.578 -0.0620  0.9244  0.0129
 4686TIP3   OH214063   3.740   5.449   1.566  0.2967  0.3862  0.0301
 4686TIP3    H114064   3.804   5.476   1.633  1.3641  0.2089 -0.8875
 4686TIP3    H214065   3.780   5.374   1.523 -0.7368  0.0038 -0.2960
 4687TIP3   OH214066   2.218   2.644   0.156 -0.0370 -0.1522  0.5704
 4687TIP3    H114067   2.127   2.671   0.166  0.1950  1.2893 -0.7636
 4687TIP3    H214068   2.214   2.550   0.143 -1.4956  0.0471 -0.8527
 4688TIP3   OH214069   2.304   2.060   2.302  0.0198 -0.4161  0.6683
 4688TIP3    H114070   2.299   2.063   2.397 -1.3639 -0.9085  0.6197
 4688TIP3    H214071   2.293   2.151   2.274 -1.1197 -0.4639  0.9269
 4689TIP3   OH214072   3.118   0.857   1.530 -0.4146 -0.0285  0.2424
 4689TIP3    H114073   3.062   0.782   1.549 -0.2716 -0.6817 -1.6557
 4689TIP3    H214074   3.154   0.838   1.443  0.3828  1.8022  0.1315
 4690TIP3   OH214075   1.701   2.836   3.641 -0.2588 -0.0903  0.3615
 4690TIP3    H114076   1.666   2.838   3.730 -0.5298 -2.2082  0.3594
 4690TIP3    H214077   1.640   2.780   3.593  0.4320  0.2122 -0.9132
 4691TIP3   OH214078   1.502   4.359   4.732  0.3413 -0.3742  0.4532
 4691TIP3    H114079   1.564   4.418   4.776 -0.9253  1.0350  0.4472
 4691TIP3    H214080   1.554   4.315   4.665  1.4784  0.2652  0.8870
 4692TIP3   OH214081   5.040   3.448   3.319  0.2692  0.3161  0.4423
 4692TIP3    H114082   5.055   3.542   3.303 -0.8382  0.3476 -0.5909
 4692TIP3    H214083   5.003   3.416   3.237  0.1238 -0.9219  0.9756
 4693TIP3   OH214084   6.343   3.447   0.095  0.1760  0.3660 -0.3780
 4693TIP3    H114085   6.306   3.534   0.106  1.6100  1.0054 -0.3571
 4693TIP3    H214086   6.321   3.422   0.005  0.7744  1.2753 -0.7899
 4694TIP3   OH214087   2.172   4.664   2.068 -0.5038 -0.6677  0.3387
 4694TIP3    H114088   2.094   4.609   2.076 -0.4524 -0.5997  1.3201
 4694TIP3    H214089   2.153   4.742   2.120 -0.3981  0.0693 -0.6747
 4695TIP3   OH214090   5.572   3.483   4.509  0.1508 -0.4113 -0.0475
 4695TIP3    H114091   5.596   3.499   4.418 -1.2009 -0.7366 -0.4878
 4695TIP3    H214092   5.649   3.511   4.560  0.6886  0.3389 -1.2355
 4696TIP3   OH214093   1.864   1.300   4.062  0.3348  0.1566  0.1027
 4696TIP3    H114094   1.925   1.291   4.136  0.2408  0.2334  0.1908
 4696TIP3    H214095   1.901   1.245   3.993 -1.3644 -2.7634  1.3271
 4697TIP3   OH214096   4.045   4.684   1.903 -0.1402 -0.3631  0.3745
 4697TIP3    H114097   4.071   4.639   1.823 -0.6802 -0.3054  0.1612
 4697TIP3    H214098   3.994   4.759   1.873 -0.8980 -0.7037  0.7883
 4698TIP3   OH214099   3.423   3.390   4.300 -0.2683  0.2505 -0.2905
 4698TIP3    H114100   3.511   3.364   4.273 -0.2098  2.1995 -2.2962
 4698TIP3    H214101   3.372   3.389   4.220 -1.6933  0.6266  0.5765
 4699TIP3   OH214102   6.062   5.316   3.868 -0.1744 -0.1258  0.5121
 4699TIP3    H114103   6.023   5.315   3.956 -0.7965  1.7810  0.3109
 4699TIP3    H214104   5.988   5.336   3.810  0.3328 -0.8373 -0.3900
 4700TIP3   OH214105   3.421   1.232   3.386  0.2829 -0.0716 -0.0030
 4700TIP3    H114106   3.496   1.185   3.422  1.8860  1.1993 -1.4605
 4700TIP3    H214107   3.439   1.324   3.406 -0.1079  0.3985 -1.6033
 4701TIP3   OH214108   0.935   5.414   0.775  0.1785  0.2912 -0.3212
 4701TIP3    H114109   0.901   5.492   0.730  2.5332  1.1226 -0.7925
 4701TIP3    H214110   0.918   5.430   0.868 -1.9996 -0.0516 -0.5976
 4702TIP3   OH214111   2.998   1.453   4.234  0.2654  0.1379 -0.5366
 4702TIP3    H114112   2.926   1.392   4.247 -0.1251  0.2758 -1.9339
 4702TIP3    H214113   3.033   1.468   4.322 -2.0418  0.8510  0.3086
 4703TIP3   OH214114   4.963   3.345   3.065  0.7365  0.7674 -0.2189
 4703TIP3    H114115   4.876   3.372   3.034  0.2556 -0.6456 -0.1670
 4703TIP3    H214116   4.973   3.255   3.034  0.2254 -0.7773  3.5047
 4704TIP3   OH214117   4.045   2.485   3.717 -0.6781  0.2589  0.0595
 4704TIP3    H114118   4.120   2.473   3.776  0.5773  2.4928 -0.9457
 4704TIP3    H214119   3.976   2.522   3.773 -1.2522 -2.1229  1.0668
 4705TIP3   OH214120   0.379   5.614   4.026  0.2961  0.6579  0.6464
 4705TIP3    H114121   0.401   5.706   4.012  0.1645  0.5978 -0.0078
 4705TIP3    H214122   0.402   5.597   4.117  0.7189  1.2251  0.6490
 4706TIP3   OH214123   0.627   3.474   4.313  0.0463  0.2696 -0.1291
 4706TIP3    H114124   0.647   3.437   4.227  1.8279 -0.5267  0.5714
 4706TIP3    H214125   0.692   3.544   4.325 -0.5693  0.7692  0.3269
 4707TIP3   OH214126   5.134   0.774   2.615 -0.0757  0.1627 -0.1708
 4707TIP3    H114127   5.202   0.708   2.601 -0.8217 -0.1641 -2.7750
 4707TIP3    H214128   5.140   0.795   2.708  1.1112 -2.5407  0.4639
 4708TIP3   OH214129   4.184   3.576   3.381  0.2344 -0.0462 -0.0800
 4708TIP3    H114130   4.202   3.590   3.288 -0.9053 -0.7473 -0.4305
 4708TIP3    H214131   4.091   3.599   3.391  0.5196  0.6691  1.0304
 4709TIP3   OH214132   5.891   4.551   4.505 -0.5345  0.2316  0.4639
 4709TIP3    H114133   5.942   4.527   4.582  1.9280  0.5458 -0.9632
 4709TIP3    H214134   5.853   4.469   4.475  1.0676 -0.4785  0.2731
 4710TIP3   OH214135   0.139   1.279   1.624  0.4523  0.4493 -0.6976
 4710TIP3    H114136   0.198   1.339   1.670 -0.4367  0.8016  0.0035
 4710TIP3    H214137   0.157   1.294   1.531  1.2519  0.7656 -0.4997
 4711TIP3   OH214138   2.073   0.294   4.227  0.5747 -0.2207  0.1254
 4711TIP3    H114139   2.094   0.373   4.276  1.2763  0.0794 -0.6443
 4711TIP3    H214140   2.107   0.222   4.280  0.8504  0.0652  0.3335
 4712TIP3   OH214141   2.185   1.485   3.353 -0.0277 -0.2980 -1.0649
 4712TIP3    H114142   2.125   1.487   3.278 -0.6214 -1.1309 -0.6245
 4712TIP3    H214143   2.130   1.460   3.427  0.4417  1.0295 -0.2329
 4713TIP3   OH214144   1.965   1.260   0.625  0.6333 -0.6617  0.4122
 4713TIP3    H114145   2.006   1.299   0.702  1.5270  0.0608 -0.4085
 4713TIP3    H214146   1.882   1.307   0.615  1.4716  0.7049 -0.2749
 4714TIP3   OH214147   5.745   4.706   3.003 -0.1447  0.0985 -0.6087
 4714TIP3    H114148   5.828   4.754   3.011 -0.1882  0.1350 -0.3783
 4714TIP3    H214149   5.767   4.629   2.951  0.3432 -0.6293  0.6537
 4715TIP3   OH214150   1.051   5.618   3.649 -0.2201  0.4769  0.2241
 4715TIP3    H114151   1.135   5.662   3.653  1.8654 -3.0575  0.0471
 4715TIP3    H214152   1.029   5.599   3.740  0.4615 -0.6492  0.1771
 4716TIP3   OH214153   4.379   3.468   2.665  0.3234  0.2151 -0.1568
 4716TIP3    H114154   4.407   3.422   2.585 -0.4789 -0.9367  0.1873
 4716TIP3    H214155   4.449   3.452   2.728  0.2492 -0.2049 -0.1737
 4717TIP3   OH214156   0.184   3.411   4.771 -0.4837  0.2173  0.2685
 4717TIP3    H114157   0.244   3.374   4.835 -0.5242  0.9848  0.7600
 4717TIP3    H214158   0.167   3.339   4.709 -1.0469 -0.7757  1.5360
 4718TIP3   OH214159   2.880   0.722   1.519  0.1588 -0.4568  0.1272
 4718TIP3    H114160   2.848   0.759   1.437 -0.8450 -0.5117  0.4790
 4718TIP3    H214161   2.864   0.628   1.511  0.0160 -0.4579  0.3987
 4719TIP3   OH214162   0.686   4.639   4.547  0.1898 -0.1248  0.2744
 4719TIP3    H114163   0.630   4.635   4.625 -0.1472  1.6400  0.1537
 4719TIP3    H214164   0.727   4.725   4.552  0.4197 -0.1186 -1.3393
 4720TIP3   OH214165   0.195   3.133   1.969  0.4232  0.2918  0.5267
 4720TIP3    H114166   0.291   3.129   1.971  0.4452  0.7000  0.2289
 4720TIP3    H214167   0.171   3.092   1.887  0.2644 -1.1558  1.2567
 4721TIP3   OH214168   5.387   1.857   0.610  0.2534  0.0562  0.0087
 4721TIP3    H114169   5.331   1.783   0.585  0.1030 -0.4925  1.7675
 4721TIP3    H214170   5.329   1.933   0.606 -0.2735 -0.3069  0.5020
 4722TIP3   OH214171   2.519   1.200   4.270 -0.0203 -0.3420 -0.0465
 4722TIP3    H114172   2.482   1.264   4.331 -1.1634 -1.0689  0.0491
 4722TIP3    H214173   2.503   1.115   4.312  1.2102 -0.7237 -0.3129
 4723TIP3   OH214174   3.432   3.064   3.111 -0.7898  0.1604  0.4798
 4723TIP3    H114175   3.461   3.114   3.035  2.0762 -1.9920  0.0020
 4723TIP3    H214176   3.349   3.105   3.136  0.2087  3.5895 -1.2203
 4724TIP3   OH214177   4.543   3.407   0.487 -0.1416  0.2799  0.1370
 4724TIP3    H114178   4.577   3.490   0.453 -0.9900  0.1589 -1.0732
 4724TIP3    H214179   4.448   3.417   0.483 -0.2610 -0.1845  1.4382
 4725TIP3   OH214180   0.591   0.978   2.453 -0.3930 -0.4427  0.2446
 4725TIP3    H114181   0.517   0.947   2.401  0.3975  0.8755 -1.7840
 4725TIP3    H214182   0.668   0.942   2.409  0.2609 -1.8537  2.3586
 4726TIP3   OH214183   2.253   1.693   2.103 -0.1934 -0.3000  0.1166
 4726TIP3    H114184   2.299   1.701   2.187  0.0181 -0.8496  0.0563
 4726TIP3    H214185   2.313   1.731   2.039  0.5371 -1.7370 -0.0790
 4727TIP3   OH214186   2.824   2.498   1.993  0.1646  0.5012 -0.4599
 4727TIP3    H114187   2.798   2.517   2.084  1.5838  2.0543 -0.3300
 4727TIP3    H214188   2.795   2.575   1.944  0.0135 -0.0325 -1.2259
 4728TIP3   OH214189   2.639   0.108   1.877 -0.6773 -0.6814  0.5977
 4728TIP3    H114190   2.674   0.024   1.906  0.1136 -0.2500  0.9315
 4728TIP3    H214191   2.571   0.129   1.941  0.8256  0.1034  2.0166
 4729TIP3   OH214192   3.365   4.917   4.451 -0.5114  0.1057  0.6504
 4729TIP3    H114193   3.410   4.950   4.528  1.6083  1.9159 -1.1877
 4729TIP3    H214194   3.419   4.843   4.422 -0.5845  0.1957  0.2741
 4730TIP3   OH214195   2.419   2.752   3.146  0.3244 -0.0760 -0.2725
 4730TIP3    H114196   2.501   2.754   3.097  0.6399  1.5121  0.2348
 4730TIP3    H214197   2.447   2.741   3.238 -0.0704 -0.1289 -0.1584
 4731TIP3   OH214198   0.487   1.071   3.561 -0.3079 -0.0256 -0.6407
 4731TIP3    H114199   0.472   1.157   3.600 -0.9005  0.1753 -1.2782
 4731TIP3    H214200   0.409   1.021   3.584 -0.7035  0.1197 -1.6009
 4732TIP3   OH214201   2.106   4.751   0.369 -0.1282  0.1859  0.4416
 4732TIP3    H114202   2.059   4.717   0.445 -0.8660  1.9363  0.8237
 4732TIP3    H214203   2.189   4.704   0.369 -0.4246 -0.3888  1.8823
 4733TIP3   OH214204   5.405   5.782   0.547 -0.2763  0.3393 -0.6039
 4733TIP3    H114205   5.486   5.830   0.563 -0.1891 -0.6928  2.8605
 4733TIP3    H214206   5.336   5.848   0.548  0.0997  0.7519  1.4273
 4734TIP3   OH214207   5.287   3.096   3.769 -0.2861  0.0832  0.5447
 4734TIP3    H114208   5.228   3.033   3.728  0.1400 -1.3217  1.9868
 4734TIP3    H214209   5.268   3.179   3.724 -2.4037 -0.5863  0.0598
 4735TIP3   OH214210   2.513   5.809   3.421 -0.5839  0.0269 -0.0050
 4735TIP3    H114211   2.504   5.714   3.427  2.0934 -0.2784  0.4976
 4735TIP3    H214212   2.482   5.831   3.334 -1.8210 -1.2062  0.0959
 4736TIP3   OH214213   4.234   1.595   4.693 -0.1357  0.0743 -0.2535
 4736TIP3    H114214   4.202   1.507   4.672  0.0247 -0.3308  1.0891
 4736TIP3    H214215   4.319   1.581   4.733 -0.3021  0.8012  0.3913
 4737TIP3   OH214216   0.187  -0.017  -0.011 -0.4576  0.0071  0.4457
 4737TIP3    H114217   0.243   0.041   0.041  0.3752 -0.9077  0.6198
 4737TIP3    H214218   0.098   0.014   0.005 -0.2944 -0.5690  2.8938
 4738TIP3   OH214219   4.253   4.271   4.611  0.0285  0.2566 -0.4099
 4738TIP3    H114220   4.307   4.195   4.593  2.1578  1.2095  1.3369
 4738TIP3    H214221   4.200   4.246   4.687  0.1691  0.2549 -0.3119
 4739TIP3   OH214222   4.691   0.970   2.039 -0.3339  0.7039 -0.1199
 4739TIP3    H114223   4.785   0.974   2.057 -0.3891 -0.8914  0.6968
 4739TIP3    H214224   4.651   1.023   2.107 -0.3021 -2.5862  2.7456
 4740TIP3   OH214225   3.801   4.706   2.987  0.0928 -0.0777 -0.3968
 4740TIP3    H114226   3.781   4.636   3.050 -1.9553  1.7887  1.2062
 4740TIP3    H214227   3.729   4.702   2.924  0.2114  0.2766 -0.5581
 4741TIP3   OH214228   0.130   4.933   0.021  0.1044 -0.1162 -0.0678
 4741TIP3    H114229   0.144   5.009  -0.036 -0.1164 -0.3580 -0.4526
 4741TIP3    H214230   0.218   4.907   0.048  0.3181 -0.6884 -1.2297
 4742TIP3   OH214231   0.765   0.901   4.637 -0.4170 -0.0515 -0.1743
 4742TIP3    H114232   0.750   0.819   4.684 -1.0889  0.6454  0.8694
 4742TIP3    H214233   0.743   0.881   4.546 -1.3906 -0.8106  0.2092
 4743TIP3   OH214234   3.957   2.437   1.298  0.5046  0.1271  0.6273
 4743TIP3    H114235   3.991   2.488   1.370 -0.6688 -0.6844  1.8087
 4743TIP3    H214236   3.918   2.360   1.339 -0.6982 -0.0922 -0.8144
 4744TIP3   OH214237   5.777   0.349   4.308 -0.1158 -0.2345  0.5061
 4744TIP3    H114238   5.729   0.424   4.343 -0.6462 -0.1599 -0.3503
 4744TIP3    H214239   5.726   0.320   4.233  0.4476 -1.0338  0.4133
 4745TIP3   OH214240   1.706   0.296   2.240  0.3332 -0.0562 -0.2388
 4745TIP3    H114241   1.668   0.327   2.322 -0.2337 -1.0744 -0.0961
 4745TIP3    H214242   1.748   0.213   2.263  0.9089  0.0705 -0.8094
 4746TIP3   OH214243   2.898   0.899   1.765 -0.1439 -0.0151 -0.2899
 4746TIP3    H114244   2.861   0.849   1.693 -0.0772  0.9927 -1.0505
 4746TIP3    H214245   2.951   0.967   1.723 -1.2078  1.4692  0.6415
 4747TIP3   OH214246   5.681   2.941   2.410 -0.5983  0.2987 -0.4032
 4747TIP3    H114247   5.719   2.981   2.332 -1.2676  1.7966  0.0151
 4747TIP3    H214248   5.756   2.898   2.453 -0.1780 -0.3059 -1.6972
 4748TIP3   OH214249   5.573   0.940   2.245  0.7169 -0.1144 -0.2049
 4748TIP3    H114250   5.541   0.861   2.287 -1.9902  0.4876 -0.9216
 4748TIP3    H214251   5.564   0.923   2.151 -0.2569  1.1250 -0.3660
 4749TIP3   OH214252   4.518   3.519   3.160 -0.0596 -0.3962 -0.0107
 4749TIP3    H114253   4.510   3.425   3.146 -0.0785 -0.4351  0.2479
 4749TIP3    H214254   4.506   3.558   3.074 -1.9407 -0.5191  0.1700
 4750TIP3   OH214255   2.736   3.269   1.716  0.2074 -0.4758  0.2964
 4750TIP3    H114256   2.746   3.213   1.793  1.7080 -0.3473  0.2244
 4750TIP3    H214257   2.790   3.228   1.648 -1.5669 -0.9178 -0.9120
 4751TIP3   OH214258   5.534   4.427   0.590 -0.2988  0.1680  0.0196
 4751TIP3    H114259   5.606   4.401   0.532 -0.2846  0.2801 -0.0122
 4751TIP3    H214260   5.575   4.482   0.656 -0.4635  0.7465 -0.3582
 4752TIP3   OH214261   4.979   2.329   1.891  0.6545  0.2485 -0.5907
 4752TIP3    H114262   5.017   2.248   1.857  0.3041 -0.2317  0.1205
 4752TIP3    H214263   4.930   2.365   1.817  2.2017  0.7236 -1.4229
 4753TIP3   OH214264   1.834   5.315   4.587  0.7432 -0.2315 -0.6214
 4753TIP3    H114265   1.827   5.219   4.583 -1.6355 -0.1046 -0.7939
 4753TIP3    H214266   1.753   5.343   4.628  1.4437  1.7313 -0.4976
 4754TIP3   OH214267   1.015   4.415   0.277  0.3614  0.0733  0.0382
 4754TIP3    H114268   0.937   4.468   0.261  0.1005 -0.3263 -0.0360
 4754TIP3    H214269   1.050   4.397   0.189  0.5108  0.2120  0.0689
 4755TIP3   OH214270   1.433   4.176   3.989  0.2313  0.0952  0.3536
 4755TIP3    H114271   1.487   4.252   3.967 -1.2051  0.8743 -0.7081
 4755TIP3    H214272   1.425   4.128   3.906 -0.2840 -0.2707  0.6138
 4756TIP3   OH214273   2.478   4.704   3.654 -0.2515  0.0001 -0.2326
 4756TIP3    H114274   2.423   4.627   3.639 -0.3913  0.4563 -2.2870
 4756TIP3    H214275   2.567   4.670   3.659 -0.2810 -0.2821 -1.4446
 4757TIP3   OH214276   4.452   0.882   1.273 -0.1475  0.2619  0.4496
 4757TIP3    H114277   4.436   0.963   1.323 -0.9923 -0.2762  1.0825
 4757TIP3    H214278   4.378   0.875   1.213  0.6534  0.6849 -0.6142
 4758TIP3   OH214279   1.471   5.042   1.739 -0.3861  0.2984 -0.5252
 4758TIP3    H114280   1.429   4.965   1.777  0.3673  0.2521  0.2700
 4758TIP3    H214281   1.400   5.094   1.703 -1.1391  0.2882  0.8909
 4759TIP3   OH214282   3.885   2.942   1.179  0.2533 -0.4888 -0.2886
 4759TIP3    H114283   3.954   3.007   1.193  0.5794 -0.9097  0.0921
 4759TIP3    H214284   3.836   2.941   1.261  0.7752 -1.3282  0.0292
 4760TIP3   OH214285   1.105   5.264   4.410  0.1871  0.0037 -0.2878
 4760TIP3    H114286   1.067   5.204   4.346  0.2842  0.3466 -0.6685
 4760TIP3    H214287   1.029   5.307   4.450 -0.0405 -1.9159  1.5603
 4761TIP3   OH214288   5.859   3.336   4.982  0.0919 -0.0530  0.0216
 4761TIP3    H114289   5.775   3.345   5.026 -0.1479  2.9325 -0.8231
 4761TIP3    H214290   5.923   3.373   5.044  0.9922 -2.8572  0.9254
 4762TIP3   OH214291   5.421   4.027   2.516 -0.6600 -0.3497 -0.5069
 4762TIP3    H114292   5.416   3.971   2.438 -0.3731  0.1967 -0.9223
 4762TIP3    H214293   5.367   3.982   2.581  1.6778 -2.5114  0.0734
 4763TIP3   OH214294   3.013   2.878   2.072 -0.1972 -0.3426 -0.1539
 4763TIP3    H114295   3.034   2.823   2.148  2.3068  0.0191 -0.5046
 4763TIP3    H214296   3.053   2.833   1.998 -2.4909 -0.6115 -1.3074
 4764TIP3   OH214297   5.257   5.863   2.045  0.1870  0.2179  0.1350
 4764TIP3    H114298   5.294   5.784   2.005  2.6909  1.4052 -0.1601
 4764TIP3    H214299   5.206   5.832   2.119 -0.6267 -1.7610 -1.1709
 4765TIP3   OH214300   3.138   5.846   4.841  0.1556 -0.3879  0.6251
 4765TIP3    H114301   3.125   5.845   4.746 -0.7444 -1.0822  0.7484
 4765TIP3    H214302   3.145   5.939   4.863  0.1999 -0.2174 -0.0957
 4766TIP3   OH214303   3.140   0.699   4.699 -0.2452 -0.0060  0.0308
 4766TIP3    H114304   3.167   0.717   4.609  1.3933 -0.3318  0.4308
 4766TIP3    H214305   3.181   0.615   4.720 -0.0897  0.3644  1.2787
 4767TIP3   OH214306   3.834   0.426   2.612  0.5167 -0.1365  0.1572
 4767TIP3    H114307   3.751   0.420   2.563  1.5236 -0.6034 -1.5822
 4767TIP3    H214308   3.889   0.358   2.574  2.1372  0.9953  0.3743
 4768TIP3   OH214309   4.717   3.666   2.639  0.1493 -0.3506 -0.3896
 4768TIP3    H114310   4.727   3.582   2.593  0.1241  0.9813 -2.9806
 4768TIP3    H214311   4.779   3.661   2.712  1.2448 -2.0346 -1.3674
 4769TIP3   OH214312   3.167   0.172   1.983  0.0230 -0.5376  0.8694
 4769TIP3    H114313   3.111   0.248   1.968  0.7207  0.0520  1.2328
 4769TIP3    H214314   3.201   0.149   1.896  3.1872  2.2040  1.1782
 4770TIP3   OH214315   2.903   1.676   1.353  0.3719 -0.0051  0.2106
 4770TIP3    H114316   2.861   1.728   1.421 -0.5982  0.1730 -0.5031
 4770TIP3    H214317   2.857   1.700   1.273  1.4427 -0.2707 -0.5014
 4771TIP3   OH214318   2.177   2.678   1.111  0.7591  0.0984  0.2692
 4771TIP3    H114319   2.261   2.693   1.153  0.9898  1.2793 -0.5597
 4771TIP3    H214320   2.170   2.583   1.102  1.1631 -0.1139  1.9905
 4772TIP3   OH214321   3.372   4.348   1.847  0.5557  0.3029  0.1570
 4772TIP3    H114322   3.327   4.430   1.823  1.3164  1.0448  1.1712
 4772TIP3    H214323   3.464   4.373   1.853  0.8815 -0.7862 -0.1024
 4773TIP3   OH214324   4.400   3.162   4.249  0.1812 -0.1776  0.0621
 4773TIP3    H114325   4.486   3.199   4.271  1.8249 -2.7418 -1.5618
 4773TIP3    H214326   4.412   3.068   4.257 -2.0741 -0.6753 -1.6171
 4774TIP3   OH214327   5.403   0.940   1.840 -0.0145 -0.3464 -0.2035
 4774TIP3    H114328   5.454   0.893   1.774 -1.1974  0.5245 -1.8137
 4774TIP3    H214329   5.343   0.875   1.875  1.8379 -1.2871  1.4422
 4775TIP3   OH214330   3.052   3.284   2.925 -0.4900 -0.6708 -0.2285
 4775TIP3    H114331   3.024   3.198   2.959 -1.6260 -0.0669  0.4126
 4775TIP3    H214332   3.002   3.347   2.976  0.5226  0.3983 -0.5264
 4776TIP3   OH214333   3.405   1.633   2.355  0.6864 -0.0316  0.0918
 4776TIP3    H114334   3.411   1.542   2.383 -0.4394 -0.1162  0.1124
 4776TIP3    H214335   3.418   1.684   2.436  0.9196 -0.1815  0.1494
 4777TIP3   OH214336   3.511   5.250   0.200 -0.3549 -0.1499 -0.2562
 4777TIP3    H114337   3.497   5.304   0.277 -0.5092  0.7958 -0.9272
 4777TIP3    H214338   3.466   5.167   0.220  0.7882 -0.4597  1.2133
 4778TIP3   OH214339   3.622   3.753   3.349 -0.3195  0.2213  0.5422
 4778TIP3    H114340   3.629   3.824   3.413  1.2272 -0.1589  0.8298
 4778TIP3    H214341   3.529   3.751   3.327 -0.4757  2.0517  0.8353
 4779TIP3   OH214342   6.252   5.202   5.061  0.4295 -0.0181 -0.8819
 4779TIP3    H114343   6.277   5.284   5.102  0.2592  0.5930 -1.9528
 4779TIP3    H214344   6.335   5.156   5.048  0.8486  1.0818 -2.4922
 4780TIP3   OH214345   2.993   2.327   1.861 -0.2802 -0.0426 -0.4132
 4780TIP3    H114346   3.002   2.377   1.780  1.4576  2.0146  0.9346
 4780TIP3    H214347   2.930   2.376   1.913  1.0973  0.5470  0.7494
 4781TIP3   OH214348   5.269   2.130   0.732 -0.1805  0.5962  0.3314
 4781TIP3    H114349   5.201   2.078   0.689 -0.5384  1.2681  0.0778
 4781TIP3    H214350   5.252   2.118   0.826  1.1219 -1.5640  0.3562
 4782TIP3   OH214351   2.795   5.251   0.099  0.2262 -0.8040  0.3768
 4782TIP3    H114352   2.871   5.248   0.157 -0.5735  0.3081  1.5359
 4782TIP3    H214353   2.724   5.214   0.151 -0.0637 -1.7764 -0.6742
 4783TIP3   OH214354   5.977   5.650   2.973 -0.2890 -0.0744 -0.4114
 4783TIP3    H114355   5.989   5.616   2.885  0.1152  2.5919 -1.4766
 4783TIP3    H214356   6.063   5.645   3.013 -0.2478 -0.3428 -0.5343
 4784TIP3   OH214357   0.422   3.709   1.752 -0.0852  0.4119 -0.2204
 4784TIP3    H114358   0.337   3.669   1.732  0.4140 -1.1624  0.6190
 4784TIP3    H214359   0.402   3.801   1.769 -2.0778 -0.3852  2.5366
 4785TIP3   OH214360   6.156   2.195   1.213 -0.0603  0.3388  0.4293
 4785TIP3    H114361   6.148   2.226   1.303 -1.7545 -1.6835  1.0727
 4785TIP3    H214362   6.084   2.237   1.166  0.6616  1.1840  0.0403
 4786TIP3   OH214363   3.078   0.616   5.110  0.1569 -0.5650 -0.1424
 4786TIP3    H114364   3.064   0.701   5.070 -0.8454 -0.0966  1.1650
 4786TIP3    H214365   3.069   0.554   5.037  1.2154  0.4302 -1.1669
 4787TIP3   OH214366   2.748   1.160   1.003 -0.0321 -0.3242 -0.2513
 4787TIP3    H114367   2.791   1.101   0.940 -1.0362  0.8168 -2.1042
 4787TIP3    H214368   2.656   1.135   0.999 -0.0615 -0.5056  1.1411
 4788TIP3   OH214369   2.523   0.268   3.436  0.3552  0.0968 -0.1386
 4788TIP3    H114370   2.522   0.184   3.390  0.0918 -0.6878  1.2455
 4788TIP3    H214371   2.594   0.260   3.500 -0.5970  0.3601  0.9814
 4789TIP3   OH214372   4.288   3.375   2.099  0.1337 -0.0088  0.5417
 4789TIP3    H114373   4.314   3.462   2.068  1.0937 -0.3631  0.3128
 4789TIP3    H214374   4.263   3.388   2.190 -2.3834  0.9951 -0.1801
 4790TIP3   OH214375   4.631   1.683   2.227 -0.4003  0.6270 -0.1580
 4790TIP3    H114376   4.540   1.673   2.197 -0.3819  0.3531 -0.1276
 4790TIP3    H214377   4.674   1.603   2.197 -0.2356  0.6312  0.0729
 4791TIP3   OH214378   5.300   4.834   1.008 -0.2411  0.4124  0.6451
 4791TIP3    H114379   5.381   4.885   1.005  0.8558 -1.2930 -1.2784
 4791TIP3    H214380   5.318   4.764   1.071  0.6397 -1.1504 -1.2222
 4792TIP3   OH214381   3.836   1.846   2.760 -0.0306  0.1817  0.0216
 4792TIP3    H114382   3.855   1.926   2.809  1.0746 -0.3103  0.4194
 4792TIP3    H214383   3.841   1.874   2.668  2.3628  0.2108  0.0753
 4793TIP3   OH214384   0.449   1.900   5.014  0.0142 -0.1708  0.6772
 4793TIP3    H114385   0.456   1.992   4.987  4.2840 -0.6910 -0.6732
 4793TIP3    H214386   0.450   1.851   4.932 -0.0484 -1.4758  1.4345
 4794TIP3   OH214387   5.192   1.669   0.549  0.0345  0.7199  0.7289
 4794TIP3    H114388   5.107   1.672   0.594 -0.9967  1.2106 -1.1082
 4794TIP3    H214389   5.183   1.596   0.487  1.1584  0.4437  0.8785
 4795TIP3   OH214390   6.332   2.084   5.032 -0.2358  0.2094 -0.0919
 4795TIP3    H114391   6.291   2.016   5.086  2.3808 -0.5059  1.1546
 4795TIP3    H214392   6.392   2.037   4.975  2.1356  1.4118  1.2597
 4796TIP3   OH214393   5.325   4.658   4.971  0.1517  0.5555  0.6094
 4796TIP3    H114394   5.264   4.710   4.919  1.1388  2.3921  1.1977
 4796TIP3    H214395   5.401   4.715   4.983  0.5762 -0.3647  2.7856
 4797TIP3   OH214396   5.052   4.101   4.106  0.1971  0.4176 -0.9615
 4797TIP3    H114397   5.115   4.062   4.167  1.3881  1.5632 -1.4091
 4797TIP3    H214398   5.045   4.038   4.035  2.3520  1.0768 -1.8398
 4798TIP3   OH214399   3.038   4.831   4.485 -0.0295 -0.1412  0.2572
 4798TIP3    H114400   3.025   4.818   4.579 -0.1838  0.4581  0.3225
 4798TIP3    H214401   3.113   4.890   4.478 -0.4386  0.3651  0.0320
 4799TIP3   OH214402   2.421   2.420   4.441  0.3682 -0.0079  0.3133
 4799TIP3    H114403   2.390   2.398   4.529  1.3394 -0.2173  0.6147
 4799TIP3    H214404   2.369   2.365   4.383 -1.1977  1.0612  0.6477
 4800TIP3   OH214405   1.125   2.349   2.302  0.2006  0.0466  0.3909
 4800TIP3    H114406   1.194   2.285   2.282  0.2559  0.3641 -0.4438
 4800TIP3    H214407   1.105   2.333   2.395  2.1633  0.6768  0.9770
 4801TIP3   OH214408   2.961   2.470   4.224  0.6004  0.2904  0.0146
 4801TIP3    H114409   2.955   2.558   4.185  1.0670  0.5943  0.6091
 4801TIP3    H214410   2.881   2.462   4.275  0.8114  0.6030  0.4075
 4802TIP3   OH214411   4.860   1.471   0.550 -0.0303 -0.5294 -0.0277
 4802TIP3    H114412   4.951   1.451   0.576  1.0861  0.1415 -3.0370
 4802TIP3    H214413   4.822   1.385   0.532  0.1152 -0.7941  0.8725
 4803TIP3   OH214414   3.359   5.882   3.120  0.4721  0.0561 -0.1322
 4803TIP3    H114415   3.434   5.829   3.093  0.6812 -0.7930  1.9601
 4803TIP3    H214416   3.284   5.824   3.106  0.6034 -0.4740  1.2121
 4804TIP3   OH214417   4.114   1.315   1.277 -0.3025 -0.2340 -0.1532
 4804TIP3    H114418   4.090   1.353   1.192  0.0627 -0.3477 -0.3110
 4804TIP3    H214419   4.143   1.390   1.329 -0.1087 -0.2195 -0.2789
 4805TIP3   OH214420   1.689   3.874   2.056 -0.5104 -0.4271 -0.0734
 4805TIP3    H114421   1.723   3.963   2.047  0.0561 -0.8116 -2.2166
 4805TIP3    H214422   1.597   3.885   2.077 -0.3173  0.6583  0.2278
 4806TIP3   OH214423   0.773   0.299   1.802  0.8058  0.3514 -0.3301
 4806TIP3    H114424   0.858   0.254   1.801  0.9595  0.6422 -0.7126
 4806TIP3    H214425   0.764   0.332   1.891  0.6053 -0.5916  0.0109
 4807TIP3   OH214426   2.592   2.710  -0.003 -0.2196  0.2199 -0.0518
 4807TIP3    H114427   2.629   2.755   0.073 -1.3486 -0.0982  0.7103
 4807TIP3    H214428   2.506   2.751  -0.016 -0.4289 -0.3655 -0.5667
 4808TIP3   OH214429   3.670   0.665   3.333  0.4844 -0.2569  0.4885
 4808TIP3    H114430   3.732   0.730   3.300 -0.2460 -0.0851 -0.5539
 4808TIP3    H214431   3.625   0.709   3.405 -0.7657  0.8139 -0.8900
 4809TIP3   OH214432   5.225   3.491   3.048  0.1734  0.3327  0.5939
 4809TIP3    H114433   5.133   3.467   3.065  0.3471 -0.8477 -0.0092
 4809TIP3    H214434   5.264   3.496   3.135 -0.2801  0.0132  0.8223
 4810TIP3   OH214435   2.573   3.249   4.912 -0.1123  0.3919 -0.1431
 4810TIP3    H114436   2.584   3.234   5.006  0.2553  2.4651  0.1753
 4810TIP3    H214437   2.508   3.183   4.886 -1.2314  0.6233  1.8247
 4811TIP3   OH214438   0.472   5.904   4.041 -0.1315  0.1432 -0.5488
 4811TIP3    H114439   0.551   5.958   4.030 -0.0224  0.2814  0.7375
 4811TIP3    H214440   0.404   5.967   4.065 -0.4798 -0.0638 -0.9828
 4812TIP3   OH214441   2.677   3.830   2.327 -0.1729 -0.4659 -0.7542
 4812TIP3    H114442   2.680   3.757   2.389 -2.1321 -0.0836 -0.1301
 4812TIP3    H214443   2.586   3.832   2.296  0.1332  0.9599 -1.6731
 4813TIP3   OH214444   4.617   4.151   1.059  0.1085  0.5004 -0.2614
 4813TIP3    H114445   4.704   4.155   1.018  0.7132 -0.5700  0.8356
 4813TIP3    H214446   4.557   4.138   0.986  1.1832 -1.5655 -0.8585
 4814TIP3   OH214447   3.891   4.609   2.138  0.2601 -0.3413 -0.0008
 4814TIP3    H114448   3.908   4.676   2.204  0.2662  0.2450 -0.5897
 4814TIP3    H214449   3.921   4.648   2.056 -1.9093 -0.1153 -0.7370
 4815TIP3   OH214450   0.426   1.850   3.222 -0.9777  0.6520 -0.5122
 4815TIP3    H114451   0.495   1.812   3.167 -1.0107 -0.8325  0.4237
 4815TIP3    H214452   0.365   1.890   3.159 -0.7492 -0.5415 -1.5352
 4816TIP3   OH214453   4.225   3.725   1.029  0.0470 -0.7352  0.5329
 4816TIP3    H114454   4.272   3.694   0.951 -0.2513  0.0389  0.0250
 4816TIP3    H214455   4.287   3.783   1.073 -0.6208  0.8979 -0.5455
 4817TIP3   OH214456   5.581   5.870   3.894  0.4128  0.6566  0.4267
 4817TIP3    H114457   5.531   5.936   3.941 -0.1461  0.4116  0.1909
 4817TIP3    H214458   5.596   5.801   3.958  0.7017  0.8572  0.5777
 4818TIP3   OH214459   5.338   5.333   1.052  0.4364 -0.4838 -0.8830
 4818TIP3    H114460   5.297   5.300   1.132  1.8068  0.3828  0.2307
 4818TIP3    H214461   5.337   5.428   1.061  2.7356 -0.4082 -0.6986
 4819TIP3   OH214462   0.603   5.120   3.347  0.0201  0.1067  0.2457
 4819TIP3    H114463   0.595   5.188   3.414  0.0474 -0.3000  0.6585
 4819TIP3    H214464   0.549   5.152   3.275 -1.8681 -0.5348  1.3277
 4820TIP3   OH214465   4.719   2.426   0.539  0.1041 -0.3937 -0.0465
 4820TIP3    H114466   4.656   2.391   0.476 -1.4241 -1.9541  2.1730
 4820TIP3    H214467   4.804   2.394   0.510 -0.2049  0.7430 -2.4473
 4821TIP3   OH214468   3.533   0.428   3.460  0.4466  0.1217  0.2558
 4821TIP3    H114469   3.601   0.484   3.423  0.6255 -0.6672 -0.6446
 4821TIP3    H214470   3.464   0.489   3.487  1.3460  0.8938  0.8384
 4822TIP3   OH214471   0.476   3.685   3.788  0.5799 -0.0381  0.1998
 4822TIP3    H114472   0.389   3.670   3.750  0.1823  1.2831  0.5313
 4822TIP3    H214473   0.531   3.617   3.750 -0.0898  0.4675 -1.7827
 4823TIP3   OH214474   5.904   1.480   2.968  0.2422  0.2716 -0.3139
 4823TIP3    H114475   5.831   1.437   3.014  0.5236 -1.3902 -1.3553
 4823TIP3    H214476   5.934   1.415   2.905  2.1207  1.2367 -0.4632
 4824TIP3   OH214477   4.884   2.524   1.695  0.4148 -0.3549 -0.2971
 4824TIP3    H114478   4.793   2.552   1.705  0.8693  1.1063  0.0631
 4824TIP3    H214479   4.904   2.539   1.603  1.2259  2.5549  0.2509
 4825TIP3   OH214480   2.054   1.267   1.024  0.0946  1.0841  0.1488
 4825TIP3    H114481   2.049   1.311   1.108 -0.1012  3.4124 -1.0137
 4825TIP3    H214482   1.975   1.213   1.020 -0.4360  1.7819  1.0104
 4826TIP3   OH214483   4.182   5.716   3.814 -0.0589 -0.1201 -0.7135
 4826TIP3    H114484   4.167   5.652   3.745  1.4950  0.0889 -1.2931
 4826TIP3    H214485   4.265   5.758   3.791 -0.2416  1.0021  0.4929
 4827TIP3   OH214486   5.154   4.555   0.746 -0.0461  0.5440  0.3182
 4827TIP3    H114487   5.218   4.615   0.708  1.2233 -0.7376  0.3480
 4827TIP3    H214488   5.091   4.612   0.789  0.6025  1.8835 -0.4246
 4828TIP3   OH214489   2.795   4.239   0.368 -0.0363  0.3786 -0.0981
 4828TIP3    H114490   2.857   4.204   0.304 -0.1887  1.3311 -0.7915
 4828TIP3    H214491   2.712   4.245   0.321 -0.5859 -0.5249  0.7100
 4829TIP3   OH214492   0.919   5.739   5.016 -0.2184 -0.2200 -0.0242
 4829TIP3    H114493   0.939   5.832   5.016 -0.5804 -0.1352  0.4846
 4829TIP3    H214494   0.921   5.713   4.924  1.4059 -0.0536 -0.0595
 4830TIP3   OH214495   2.710   3.996   0.824 -0.0056  0.2579  0.1437
 4830TIP3    H114496   2.621   4.014   0.794  0.1028 -0.0227 -0.3751
 4830TIP3    H214497   2.748   3.944   0.753  0.5377  0.2928  0.4072
 4831TIP3   OH214498   4.736   0.657   4.739  0.5534 -0.0297 -0.3236
 4831TIP3    H114499   4.804   0.662   4.673  2.7635 -0.4617  1.7591
 4831TIP3    H214500   4.705   0.566   4.736  0.9311 -0.1528 -0.5145
 4832TIP3   OH214501   5.697   5.463   2.645  0.1560 -0.3454  0.2191
 4832TIP3    H114502   5.765   5.397   2.634 -0.4745 -0.9347 -0.2617
 4832TIP3    H214503   5.715   5.529   2.579  0.5271 -0.2632  0.4018
 4833TIP3   OH214504   3.459   2.414   4.537 -0.7562 -0.1661 -0.1405
 4833TIP3    H114505   3.455   2.485   4.473  0.7460 -0.2519 -0.3671
 4833TIP3    H214506   3.389   2.435   4.599 -0.6146  1.2916 -0.4237
 4834TIP3   OH214507   4.924   0.555   3.550  0.0040  0.2111 -0.4884
 4834TIP3    H114508   4.964   0.469   3.559 -1.3492 -0.2941  1.3540
 4834TIP3    H214509   4.855   0.557   3.616 -0.5711  2.4073 -1.0445
 4835TIP3   OH214510   1.575   5.078   0.236  0.0457 -0.6120  0.5844
 4835TIP3    H114511   1.488   5.074   0.197 -0.6202  0.6373  1.8758
 4835TIP3    H214512   1.635   5.065   0.162 -1.2159 -0.4784 -0.4858
 4836TIP3   OH214513   5.652   0.962   3.635  0.2477  0.0323 -0.2708
 4836TIP3    H114514   5.583   0.903   3.606 -0.7429  1.0765 -0.0749
 4836TIP3    H214515   5.687   0.999   3.553 -1.5687  1.8766 -0.2656
 4837TIP3   OH214516   2.961   1.888   4.048 -0.2085 -0.2830 -0.0107
 4837TIP3    H114517   3.050   1.876   4.081  0.2311 -0.0591 -1.0837
 4837TIP3    H214518   2.907   1.833   4.105  0.8475 -1.8721 -0.4801
 4838TIP3   OH214519   5.121   2.105   3.848  0.1707  0.4363  0.1710
 4838TIP3    H114520   5.107   2.037   3.782 -0.0718  2.1676 -1.6806
 4838TIP3    H214521   5.064   2.080   3.921  1.5098 -2.2944  0.3752
 4839TIP3   OH214522   3.023   4.466   1.714 -0.1298 -0.2334 -0.1109
 4839TIP3    H114523   2.933   4.477   1.745 -0.1522  0.1618 -0.3147
 4839TIP3    H214524   3.077   4.482   1.791 -0.2359 -0.5370  0.0275
 4840TIP3   OH214525   4.171   0.210   2.599 -0.0762  0.3399  0.1666
 4840TIP3    H114526   4.157   0.118   2.575  0.0946 -0.1033  1.6562
 4840TIP3    H214527   4.223   0.246   2.528 -0.6654 -0.5512 -0.7384
 4841TIP3   OH214528   5.563   4.150   2.922  0.5384 -0.0821  0.7148
 4841TIP3    H114529   5.478   4.191   2.902  0.6664  0.9026  2.0091
 4841TIP3    H214530   5.540   4.074   2.975  0.3313 -1.4534 -1.2541
 4842TIP3   OH214531   1.023   5.259   4.859  0.1782  0.3683 -0.5275
 4842TIP3    H114532   1.022   5.207   4.779 -0.2995 -0.9586  0.2982
 4842TIP3    H214533   1.103   5.231   4.905 -0.0837  0.3540 -0.0714
 4843TIP3   OH214534   3.471   2.506   1.385  0.0734 -0.2582 -0.1058
 4843TIP3    H114535   3.486   2.600   1.375 -0.2222 -0.1973 -0.0022
 4843TIP3    H214536   3.536   2.478   1.449 -0.2251 -0.0085  0.3107
 4844TIP3   OH214537   1.474   5.506   2.798 -0.0171 -0.5466  0.6833
 4844TIP3    H114538   1.417   5.493   2.722  2.0483 -0.0577 -1.0209
 4844TIP3    H214539   1.499   5.417   2.824 -0.8334 -0.7233  0.9075
 4845TIP3   OH214540   4.201   0.380   4.244  0.3790  0.1164  0.4853
 4845TIP3    H114541   4.162   0.466   4.262  3.4166  1.4616  1.5019
 4845TIP3    H214542   4.127   0.323   4.227 -1.8826  2.6368  1.0681
 4846TIP3   OH214543   3.255   1.135   1.884 -0.0362 -0.3653  0.0906
 4846TIP3    H114544   3.168   1.114   1.918 -0.1510  0.2957  0.2051
 4846TIP3    H214545   3.272   1.225   1.913  0.2508 -0.1173 -0.8240
 4847TIP3   OH214546   3.823   1.059   3.865 -0.1191  0.0173  0.5704
 4847TIP3    H114547   3.791   1.070   3.954 -0.5591  3.0422  0.1599
 4847TIP3    H214548   3.746   1.072   3.810  0.8040  2.4573 -0.2946
 4848TIP3   OH214549   3.430   5.075   1.341  0.1990 -0.4159 -0.0956
 4848TIP3    H114550   3.370   5.125   1.286  0.6032  0.1987  0.0124
 4848TIP3    H214551   3.490   5.141   1.377  0.0832 -0.8307  0.8963
 4849TIP3   OH214552   3.908   0.653   1.313 -0.0594 -0.1120  0.4890
 4849TIP3    H114553   3.948   0.740   1.303 -1.3090  0.4479  0.1836
 4849TIP3    H214554   3.815   0.671   1.327 -0.0606 -1.3245  2.3730
 4850TIP3   OH214555   4.094   4.625   1.646 -0.6284 -0.1792 -0.2099
 4850TIP3    H114556   4.153   4.638   1.572 -1.0061 -0.8315 -0.6337
 4850TIP3    H214557   4.030   4.560   1.615 -1.2246  0.0846  0.4366
 4851TIP3   OH214558   2.344   2.017   2.561  0.2028 -0.0206 -0.1742
 4851TIP3    H114559   2.351   1.941   2.619  0.3948  0.3264  0.2669
 4851TIP3    H214560   2.429   2.059   2.567 -0.0510  0.4842 -0.0559
 4852TIP3   OH214561   2.478   2.699   3.418 -0.0913  0.0690 -0.3577
 4852TIP3    H114562   2.477   2.764   3.488  1.7330  1.0058 -1.1311
 4852TIP3    H214563   2.482   2.615   3.463  0.7463  0.6362  0.6642
 4853TIP3   OH214564   1.664   4.044   0.356  0.4190 -0.2010 -0.0470
 4853TIP3    H114565   1.595   4.031   0.421 -0.3850  0.9871 -0.6216
 4853TIP3    H214566   1.637   4.122   0.307  1.3278 -0.6780 -1.3773
 4854TIP3   OH214567   4.136   0.978   3.572 -0.1300 -0.1694  0.7267
 4854TIP3    H114568   4.191   1.038   3.622 -0.0101 -0.7599  1.3182
 4854TIP3    H214569   4.194   0.945   3.503 -0.1189  0.2012  0.5616
 4855TIP3   OH214570   4.724   3.161   2.533 -0.2868  0.4509  0.5553
 4855TIP3    H114571   4.646   3.109   2.517 -0.0148  0.7474 -2.0888
 4855TIP3    H214572   4.797   3.101   2.514  0.0742  0.9496  0.3465
 4856TIP3   OH214573   3.453   3.881   1.607  0.3526  0.3715  0.2412
 4856TIP3    H114574   3.407   3.883   1.691  0.7550  2.6452  0.4618
 4856TIP3    H214575   3.388   3.846   1.545 -0.2269 -0.5267  1.3232
 4857TIP3   OH214576   4.862   2.710   2.736 -0.4120  0.1607 -0.3942
 4857TIP3    H114577   4.884   2.680   2.648 -0.4446 -0.4378 -0.2057
 4857TIP3    H214578   4.946   2.714   2.782 -0.3012  1.2404 -0.6775
 4858TIP3   OH214579   0.273   3.502   0.748 -0.5646 -0.1537  0.5615
 4858TIP3    H114580   0.365   3.512   0.726 -0.7431  0.1146 -0.0870
 4858TIP3    H214581   0.237   3.590   0.744 -0.3966  0.1189  3.0584
 4859TIP3   OH214582   0.624   0.681   3.940 -0.1346 -0.0774  0.0697
 4859TIP3    H114583   0.566   0.648   4.008 -0.4708  1.7597  0.7323
 4859TIP3    H214584   0.566   0.718   3.874  0.2339  1.2417  0.4543
 4860TIP3   OH214585   5.439   2.810   0.971 -0.5065 -0.9029 -0.5552
 4860TIP3    H114586   5.356   2.845   0.939 -0.1121 -0.3182 -0.9602
 4860TIP3    H214587   5.425   2.715   0.975 -1.2739 -0.7873 -0.3757
 4861TIP3   OH214588   0.212   1.606   3.774 -0.3820  0.0674  0.3856
 4861TIP3    H114589   0.181   1.696   3.769  0.0143  0.1418 -1.1750
 4861TIP3    H214590   0.298   1.607   3.732  0.6493 -0.6346  2.3231
 4862TIP3   OH214591   0.989   5.597   3.174  0.7398 -0.3067  0.2149
 4862TIP3    H114592   0.938   5.565   3.248 -1.9752 -0.2094 -1.4506
 4862TIP3    H214593   0.966   5.689   3.166  1.7164 -0.0836 -0.1937
 4863TIP3   OH214594   4.606   2.976   4.472 -0.0581  0.5428  0.3827
 4863TIP3    H114595   4.519   2.945   4.445  0.4343 -0.7203  0.1735
 4863TIP3    H214596   4.641   3.021   4.395  0.4485 -1.1220 -0.4107
 4864TIP3   OH214597   4.348   4.396   2.150 -0.2368 -0.1467 -0.6046
 4864TIP3    H114598   4.363   4.488   2.126 -1.8907  0.1784 -0.4746
 4864TIP3    H214599   4.269   4.371   2.103 -1.0157 -0.8393  1.0026
 4865TIP3   OH214600   0.197   2.300   4.960 -0.3757  0.1844 -0.3715
 4865TIP3    H114601   0.260   2.335   5.023 -0.8208 -0.3737  0.4072
 4865TIP3    H214602   0.160   2.223   5.003 -0.5667 -0.3245 -1.3959
 4866TIP3   OH214603   6.154   1.096   2.294 -1.0003 -0.1396 -0.0270
 4866TIP3    H114604   6.080   1.093   2.234 -1.8977  1.1481  0.9673
 4866TIP3    H214605   6.123   1.148   2.368  0.8135  0.2123  0.5340
 4867TIP3   OH214606   1.849   0.670   3.958 -0.8754 -0.4905  0.5791
 4867TIP3    H114607   1.819   0.723   4.033 -2.5563  1.6678 -1.4547
 4867TIP3    H214608   1.769   0.636   3.919 -0.1674 -0.4508 -0.9952
 4868TIP3   OH214609   1.037   0.015   5.059  0.2772 -0.1807  0.0387
 4868TIP3    H114610   1.110  -0.020   5.008  0.0272 -0.2678 -0.2602
 4868TIP3    H214611   1.073   0.026   5.147  0.8241  0.3511 -0.2483
 4869TIP3   OH214612   4.273   3.089   1.000  0.0689  0.2431  0.3808
 4869TIP3    H114613   4.322   3.086   1.082 -0.9417  0.2113  1.0025
 4869TIP3    H214614   4.181   3.085   1.027 -0.3101  1.1082 -0.6986
 4870TIP3   OH214615   4.620   5.958   1.594 -0.1274 -0.2625 -0.2424
 4870TIP3    H114616   4.664   5.884   1.635  0.8715  0.3702 -0.1571
 4870TIP3    H214617   4.647   6.034   1.646 -0.4729  0.2767 -0.8407
 4871TIP3   OH214618   1.062   0.984   3.069  0.4284  0.6817 -0.6270
 4871TIP3    H114619   0.991   0.927   3.096  1.1211  0.2369  0.2770
 4871TIP3    H214620   1.027   1.073   3.078  0.4088  0.5264  1.1177
 4872TIP3   OH214621   4.158   3.266   1.492 -0.5343 -0.1373  0.0136
 4872TIP3    H114622   4.117   3.209   1.556 -0.1604  0.0838  0.4522
 4872TIP3    H214623   4.145   3.354   1.526  0.0706 -0.0496  0.0174
 4873TIP3   OH214624   5.882   0.724   4.786 -0.5191  0.0680  0.0504
 4873TIP3    H114625   5.964   0.686   4.753 -0.4303 -0.6478  1.0498
 4873TIP3    H214626   5.845   0.655   4.841 -1.1953  0.8349  0.5669
 4874TIP3   OH214627   4.101   5.571   3.033  0.4571  0.0211 -0.4463
 4874TIP3    H114628   4.071   5.644   3.087  2.3229  0.5133 -0.0024
 4874TIP3    H214629   4.026   5.512   3.029 -0.5173  1.1197  0.6517
 4875TIP3   OH214630   0.489   5.651   1.100  0.0944 -0.0277  0.5864
 4875TIP3    H114631   0.508   5.579   1.040 -1.6517  0.8539 -1.1646
 4875TIP3    H214632   0.572   5.697   1.110  0.9708 -1.5973  0.8222
 4876TIP3   OH214633  -0.008   3.483   2.189 -0.7024 -0.2827 -0.2476
 4876TIP3    H114634  -0.031   3.391   2.174  0.4873 -0.4506 -1.1034
 4876TIP3    H214635   0.078   3.494   2.150 -1.5198  1.6220 -1.6641
 4877TIP3   OH214636   4.002   4.924   4.317  0.2601  0.3479 -0.4082
 4877TIP3    H114637   3.942   4.999   4.322  1.5237  1.3018  1.3578
 4877TIP3    H214638   3.967   4.871   4.246 -1.5659  1.8349 -0.7060
 4878TIP3   OH214639   6.206   1.393   2.804  0.4254 -0.4203 -1.0468
 4878TIP3    H114640   6.119   1.355   2.787 -2.5238  3.6600  2.5392
 4878TIP3    H214641   6.208   1.471   2.749  0.8628  0.5755  0.3324
 4879TIP3   OH214642   2.794   0.180   0.117  0.7352  0.0448  0.2263
 4879TIP3    H114643   2.763   0.093   0.090 -1.8745  0.3394  1.8988
 4879TIP3    H214644   2.718   0.237   0.103  1.1453  1.2796  2.5889
 4880TIP3   OH214645   2.335   0.787   5.105 -0.4194 -0.2204  0.3184
 4880TIP3    H114646   2.275   0.727   5.060 -0.0996 -0.8933  0.7759
 4880TIP3    H214647   2.418   0.778   5.058  0.2914 -1.8926  1.7598
 4881TIP3   OH214648   3.907   3.381   3.364 -0.1195 -0.1448 -0.1501
 4881TIP3    H114649   3.818   3.408   3.389 -0.3071 -0.8363 -0.0406
 4881TIP3    H214650   3.894   3.322   3.289  0.1447 -1.2201  0.6221
 4882TIP3   OH214651   4.828   4.735   0.162 -0.4131  0.8116 -0.6149
 4882TIP3    H114652   4.924   4.737   0.156 -0.2025 -0.7565  1.1840
 4882TIP3    H214653   4.805   4.817   0.206  0.2206  0.7379 -0.1245
 4883TIP3   OH214654   4.975   2.987   2.683  0.5169 -0.0793 -1.0118
 4883TIP3    H114655   5.051   2.936   2.654  0.1901 -1.2584  0.1060
 4883TIP3    H214656   4.913   2.979   2.611  1.6487  1.4487 -2.2326
 4884TIP3   OH214657   3.854   0.301   3.545  0.0651 -0.0441 -0.0726
 4884TIP3    H114658   3.898   0.314   3.461 -0.4368  0.0146 -0.3367
 4884TIP3    H214659   3.809   0.217   3.535 -0.5732  0.2978 -0.1281
 4885TIP3   OH214660   4.860   0.712   3.961  0.3642  0.2726  0.6968
 4885TIP3    H114661   4.933   0.666   3.919 -1.1827 -2.7775  1.1060
 4885TIP3    H214662   4.879   0.707   4.054  0.0606  0.2100  0.7568
 4886TIP3   OH214663   3.030   5.247   3.817 -0.4830  0.4741 -0.6576
 4886TIP3    H114664   3.022   5.202   3.733 -1.6979 -1.4431  0.4311
 4886TIP3    H214665   2.947   5.296   3.826 -1.0413 -0.5644  0.0766
 4887TIP3   OH214666   3.895   5.394   3.073 -0.2342 -0.0466 -0.1999
 4887TIP3    H114667   3.836   5.400   3.147  1.7538  0.8269  1.4149
 4887TIP3    H214668   3.892   5.302   3.046  0.5572 -0.8941  2.3653
 4888TIP3   OH214669   0.607   4.117   4.716 -0.0457  0.4438  0.1501
 4888TIP3    H114670   0.651   4.109   4.631  0.1370 -0.4151  0.3084
 4888TIP3    H214671   0.535   4.177   4.701  0.9524  1.5976 -0.2169
 4889TIP3   OH214672   1.546   0.338   5.106 -0.3352 -0.1455 -0.2688
 4889TIP3    H114673   1.513   0.303   5.023  0.3682  0.4726 -0.8256
 4889TIP3    H214674   1.635   0.366   5.086  0.8009 -2.3043  1.3316
 4890TIP3   OH214675   4.493   0.227   3.259  0.0147  0.3923  0.1246
 4890TIP3    H114676   4.485   0.292   3.189 -0.1968  0.0217 -0.1959
 4890TIP3    H214677   4.526   0.148   3.216 -2.0826 -0.4997  0.0294
 4891TIP3   OH214678   1.156   0.844   5.092 -0.5357  0.8736 -1.3380
 4891TIP3    H114679   1.146   0.925   5.042  2.1511  1.7607 -0.5948
 4891TIP3    H214680   1.135   0.869   5.182 -0.5236  0.5362 -1.2406
 4892TIP3   OH214681   1.461   3.721   1.900  0.1494 -0.4405 -0.2642
 4892TIP3    H114682   1.477   3.721   1.806 -0.4821  0.2746 -0.3817
 4892TIP3    H214683   1.367   3.732   1.908  0.0252 -1.7375  0.4474
 4893TIP3   OH214684   2.249   1.310   2.540 -0.7303 -0.0910  0.2324
 4893TIP3    H114685   2.210   1.229   2.572 -0.3294 -0.5168 -0.3497
 4893TIP3    H214686   2.342   1.303   2.562 -1.1452  1.5736  2.9880
 4894TIP3   OH214687   3.751   1.332   0.011  0.4720  0.3847  0.8906
 4894TIP3    H114688   3.733   1.334   0.105  0.2071  0.1411  0.8442
 4894TIP3    H214689   3.685   1.274  -0.025 -0.0074  1.2001  0.4250
 4895TIP3   OH214690   4.216   1.695   2.545  0.3928  0.3325 -0.3554
 4895TIP3    H114691   4.220   1.664   2.636 -0.7992 -0.0563 -0.4235
 4895TIP3    H214692   4.295   1.749   2.535  0.4850  0.4662  0.9374
 4896TIP3   OH214693   0.434   0.576   3.329  0.2313 -0.5176  0.3585
 4896TIP3    H114694   0.353   0.527   3.324  0.1528 -0.5249  1.3860
 4896TIP3    H214695   0.436   0.609   3.419  2.2023 -2.0119  0.9414
 4897TIP3   OH214696   1.867   1.499   0.372 -0.2877 -0.4488 -0.0623
 4897TIP3    H114697   1.813   1.488   0.450 -0.7085 -0.3836 -0.3401
 4897TIP3    H214698   1.912   1.582   0.386 -2.1902  0.8123 -0.9439
 4898TIP3   OH214699   0.464   2.377   1.278 -0.0039 -0.1255  0.2375
 4898TIP3    H114700   0.456   2.330   1.361  1.1855  1.4380  1.3013
 4898TIP3    H214701   0.555   2.408   1.277 -0.2544  0.6267 -1.2400
 4899TIP3   OH214702   3.754   5.691   0.571  0.3433 -0.4652  0.3554
 4899TIP3    H114703   3.736   5.757   0.503 -1.2610 -2.8649 -1.7599
 4899TIP3    H214704   3.848   5.700   0.588  0.6568  0.8144 -1.5975
 4900TIP3   OH214705   4.070   4.504   4.196 -0.0373 -0.1749  0.0224
 4900TIP3    H114706   4.127   4.432   4.169  0.5413  0.6569 -1.0397
 4900TIP3    H214707   4.037   4.478   4.282 -0.1333 -1.8697 -0.5001
 4901TIP3   OH214708   4.400   4.072   3.718 -0.1758  0.1212  0.3569
 4901TIP3    H114709   4.363   4.048   3.633 -0.1611 -0.4037  0.4913
 4901TIP3    H214710   4.419   3.988   3.760  0.6743  0.3808  0.5087
 4902TIP3   OH214711   3.268   2.198   1.606 -0.4846  0.8619 -0.0764
 4902TIP3    H114712   3.178   2.175   1.584 -0.4783  0.9937 -0.2405
 4902TIP3    H214713   3.271   2.294   1.600 -0.1580  0.8140 -0.7571
 4903TIP3   OH214714   0.574   3.676   0.927  0.2112 -0.1433  0.0569
 4903TIP3    H114715   0.646   3.663   0.866 -0.7549 -0.8991 -0.9647
 4903TIP3    H214716   0.523   3.748   0.889  0.8262  0.9179  1.1802
 4904TIP3   OH214717   1.128   5.851   2.801  0.1065  0.2031  0.0312
 4904TIP3    H114718   1.126   5.757   2.822  0.9730  0.0464 -0.5693
 4904TIP3    H214719   1.211   5.864   2.755 -0.8285  0.9189 -1.5355
 4905TIP3   OH214720   2.331   1.377   0.638 -0.5066 -0.4651 -0.3183
 4905TIP3    H114721   2.305   1.421   0.719 -1.2222 -0.0969 -0.7338
 4905TIP3    H214722   2.411   1.422   0.610  0.1167 -1.0199  0.5084
 4906TIP3   OH214723   1.778   5.729   4.988 -0.5804  0.8621 -0.2437
 4906TIP3    H114724   1.833   5.766   4.919 -1.0169  0.3763 -0.8694
 4906TIP3    H214725   1.722   5.802   5.016 -2.0573  0.5097 -2.0857
 4907TIP3   OH214726   2.345   0.298   3.791 -0.2519 -0.5945  0.2913
 4907TIP3    H114727   2.345   0.202   3.795 -2.5491 -0.6846 -0.5866
 4907TIP3    H214728   2.323   0.318   3.700 -0.7428  0.7571  0.6920
 4908TIP3   OH214729   0.537   5.266   1.729 -0.7537 -0.2425  0.5271
 4908TIP3    H114730   0.552   5.341   1.786  1.2264  0.4398 -0.7729
 4908TIP3    H214731   0.457   5.287   1.681  0.3207  1.6277 -0.5894
 4909TIP3   OH214732   1.586   0.375   0.452 -0.1035  0.3749  0.0233
 4909TIP3    H114733   1.569   0.313   0.381 -2.6575  1.0548 -0.0588
 4909TIP3    H214734   1.609   0.320   0.527 -1.1776 -0.6304 -0.3474
 4910TIP3   OH214735   0.609   5.427   4.499  0.0074  0.1106 -0.7016
 4910TIP3    H114736   0.536   5.379   4.538 -0.1929  0.4830 -0.6075
 4910TIP3    H214737   0.639   5.485   4.569  0.4098 -0.0574 -0.7325
 4911TIP3   OH214738   1.450   4.880   0.979 -0.3733  0.0359  0.1798
 4911TIP3    H114739   1.487   4.968   0.972 -0.0500 -0.1206 -0.1011
 4911TIP3    H214740   1.355   4.894   0.980 -0.3045  0.4504  1.1591
 4912TIP3   OH214741   0.790   0.652   1.520  0.3174 -0.3174  0.2118
 4912TIP3    H114742   0.699   0.632   1.497  0.7968 -1.4316 -0.8514
 4912TIP3    H214743   0.799   0.621   1.610 -0.6752  0.9747  0.7981
 4913TIP3   OH214744   4.023   0.118   3.727 -0.1531  0.2779  0.2279
 4913TIP3    H114745   3.969   0.043   3.749 -1.2625  0.7624 -0.7379
 4913TIP3    H214746   3.985   0.152   3.646 -0.8772  2.9943  1.5877
 4914TIP3   OH214747   4.202   2.704   4.435  0.2589  0.5247 -0.0021
 4914TIP3    H114748   4.140   2.640   4.400  1.6151 -1.0520  0.3437
 4914TIP3    H214749   4.147   2.776   4.467 -1.3053 -0.3028 -0.7134
 4915TIP3   OH214750   4.245   1.825   4.179  0.2877 -0.4098 -0.1117
 4915TIP3    H114751   4.268   1.901   4.233 -1.2707 -0.0660  0.1178
 4915TIP3    H214752   4.322   1.811   4.123  0.6760  1.2377 -0.0421
 4916TIP3   OH214753   5.468   0.014   0.396 -0.0417  0.7921 -0.0453
 4916TIP3    H114754   5.380  -0.020   0.410 -0.3662  0.3621 -2.6597
 4916TIP3    H214755   5.472   0.094   0.449 -0.9255 -0.6613  2.4071
 4917TIP3   OH214756   2.088   1.660   4.356 -0.4041 -0.0901 -0.6744
 4917TIP3    H114757   2.007   1.710   4.371 -1.1385 -0.6410 -2.5262
 4917TIP3    H214758   2.066   1.572   4.386  0.0471  0.0830  0.2147
 4918TIP3   OH214759   1.717   0.024   3.815  0.2163  0.4053 -0.3107
 4918TIP3    H114760   1.685   0.110   3.843  0.4884 -0.3419  2.5942
 4918TIP3    H214761   1.811   0.027   3.833  0.8191  0.4721 -3.0488
 4919TIP3   OH214762   1.429   4.158   2.680 -0.0920  0.3803 -0.1645
 4919TIP3    H114763   1.433   4.254   2.682 -0.0129  0.3722  0.9725
 4919TIP3    H214764   1.336   4.138   2.681 -0.3733  0.4980  5.0465
 4920TIP3   OH214765   2.878   0.788   5.002  0.3903 -0.2639 -0.2604
 4920TIP3    H114766   2.900   0.831   4.919 -0.3613 -0.6049 -0.6508
 4920TIP3    H214767   2.846   0.701   4.976 -2.1792  0.4569  0.1521
 4921TIP3   OH214768   5.014   1.686   0.779  0.0459  0.1287  0.5111
 4921TIP3    H114769   4.962   1.766   0.767 -2.8981 -1.8917 -1.7306
 4921TIP3    H214770   4.965   1.635   0.844  1.8884  0.0442  1.9257
 4922TIP3   OH214771   2.248   0.842   1.045 -0.0719  0.1157  0.0833
 4922TIP3    H114772   2.230   0.902   1.118 -1.6993  0.1020 -0.2848
 4922TIP3    H214773   2.343   0.833   1.046 -0.0828 -1.0113  3.1160
 4923TIP3   OH214774   3.639   3.468   4.674 -0.2684 -0.6223 -0.3636
 4923TIP3    H114775   3.732   3.489   4.682 -0.4765 -0.5771  4.0625
 4923TIP3    H214776   3.637   3.381   4.634  1.5071 -0.0374 -1.8558
 4924TIP3   OH214777   0.090   4.680   1.559 -0.2136  0.6213  0.2285
 4924TIP3    H114778   0.038   4.640   1.490 -0.7803  0.3542  0.8011
 4924TIP3    H214779   0.124   4.606   1.609 -0.8848  0.8376  1.0194
 4925TIP3   OH214780   3.285   4.839   4.082  0.0997  0.6080  0.5143
 4925TIP3    H114781   3.286   4.925   4.038 -1.7885  0.0844 -0.6767
 4925TIP3    H214782   3.374   4.806   4.071  0.9683  2.5605  1.3316
 4926TIP3   OH214783   1.874   3.249   3.901  0.2054  0.1954  0.4086
 4926TIP3    H114784   1.804   3.201   3.857  0.1954  2.3358 -2.1452
 4926TIP3    H214785   1.874   3.215   3.990 -1.5206 -2.5602 -0.5120
 4927TIP3   OH214786   2.645   1.377   1.917  0.4010  0.2619 -0.1647
 4927TIP3    H114787   2.717   1.438   1.906  1.4242 -0.8508  0.1755
 4927TIP3    H214788   2.618   1.388   2.008  0.7236  0.0418 -0.0453
 4928TIP3   OH214789   3.973   3.421   2.696 -0.2920 -0.0257 -0.2681
 4928TIP3    H114790   3.986   3.501   2.645 -0.7276  0.6052  0.5682
 4928TIP3    H214791   3.944   3.453   2.782  2.2442 -0.9166  1.0373
 4929TIP3   OH214792   2.602   1.855   2.983  0.2189  0.1971 -0.0278
 4929TIP3    H114793   2.683   1.826   2.940  1.0162  4.1067 -1.5769
 4929TIP3    H214794   2.625   1.866   3.075  1.4217  0.9848 -0.4056
 4930TIP3   OH214795   4.326   1.095   1.349  0.8626 -0.0522  0.8534
 4930TIP3    H114796   4.269   1.165   1.316  1.5787  1.3069  2.3765
 4930TIP3    H214797   4.281   1.064   1.428  0.3243 -1.6798 -0.0443
 4931TIP3   OH214798   2.710   0.116   1.121 -0.0626 -0.0091  0.1545
 4931TIP3    H114799   2.649   0.190   1.124 -0.9395 -0.7378  0.9997
 4931TIP3    H214800   2.692   0.067   1.201  1.7087 -0.2100  0.4746
 4932TIP3   OH214801   1.385   0.327   4.844  0.1139  0.0505 -0.3803
 4932TIP3    H114802   1.313   0.295   4.898  0.6043 -0.1994  0.1347
 4932TIP3    H214803   1.353   0.316   4.754  0.5917 -2.9056 -0.3116
 4933TIP3   OH214804   1.061   2.485   0.522 -0.5249  0.1205  0.3580
 4933TIP3    H114805   1.123   2.414   0.504 -0.5576 -0.2094  1.4233
 4933TIP3    H214806   1.038   2.520   0.436  0.4467 -0.3440 -0.1071
 4934TIP3   OH214807   4.686   1.375   5.001 -0.5963  0.1729  0.1359
 4934TIP3    H114808   4.741   1.323   4.942 -0.3066 -0.0423  0.5921
 4934TIP3    H214809   4.748   1.425   5.054 -0.7999 -0.6129  1.1569
 4935TIP3   OH214810   0.401   4.523   4.368  0.0260  0.2761  0.3352
 4935TIP3    H114811   0.440   4.437   4.385 -1.7097 -0.9846 -1.5183
 4935TIP3    H214812   0.388   4.561   4.455  0.9282 -1.2965  1.2110
 4936TIP3   OH214813   0.378   4.991   1.867 -0.3057 -0.3218 -0.7093
 4936TIP3    H114814   0.450   5.033   1.915  1.5251 -2.8750 -1.0087
 4936TIP3    H214815   0.299   5.034   1.900  1.1902  1.0164  1.3949
 4937TIP3   OH214816   5.487   4.065   4.441  0.3356  0.1968 -0.4094
 4937TIP3    H114817   5.516   4.155   4.429  1.8763  0.0363  1.5304
 4937TIP3    H214818   5.407   4.073   4.493  0.8950  0.4529  0.4364
 4938TIP3   OH214819   5.808   5.158   3.752 -0.1653 -0.1650 -0.2423
 4938TIP3    H114820   5.741   5.218   3.718  1.4158  1.7812 -0.1125
 4938TIP3    H214821   5.877   5.160   3.686  1.2640  0.6324  1.2019
 4939TIP3   OH214822   2.499   5.606   0.762  0.6477  0.3097  0.6946
 4939TIP3    H114823   2.427   5.555   0.725  0.2463 -0.2229  2.1258
 4939TIP3    H214824   2.457   5.683   0.799  1.0285  0.7904  0.1371
 4940TIP3   OH214825   5.867   2.753   2.506 -0.0236 -0.2079  0.5662
 4940TIP3    H114826   5.845   2.662   2.525  2.5599 -0.8849  0.6949
 4940TIP3    H214827   5.951   2.767   2.549  0.3746  1.7829 -0.7315
 4941TIP3   OH214828   1.633   4.267   4.477  0.5495  0.2841 -0.7643
 4941TIP3    H114829   1.689   4.325   4.425  0.5931  0.7620 -0.1976
 4941TIP3    H214830   1.561   4.245   4.419  1.0779  0.0476 -1.3431
 4942TIP3   OH214831   4.949   5.543   0.155 -0.2109  0.0111  0.1509
 4942TIP3    H114832   4.965   5.632   0.124 -1.6773 -0.3877 -1.9075
 4942TIP3    H214833   5.017   5.528   0.221  1.0162  2.0927 -0.5588
 4943TIP3   OH214834   0.669   4.298   1.537 -0.0403 -0.1442  0.0954
 4943TIP3    H114835   0.657   4.367   1.473  1.1815 -0.4569 -0.4941
 4943TIP3    H214836   0.583   4.258   1.545 -0.4618  0.6092 -0.5166
 4944TIP3   OH214837   4.545   2.481   3.946 -0.6007 -0.3488 -0.0118
 4944TIP3    H114838   4.599   2.409   3.979  0.4594  0.6436  0.5210
 4944TIP3    H214839   4.455   2.449   3.953 -0.0877 -2.4082 -1.8089
 4945TIP3   OH214840   4.708   1.284   1.073 -0.3574 -0.1769 -0.1518
 4945TIP3    H114841   4.788   1.275   1.022 -0.7672  0.4255 -0.9162
 4945TIP3    H214842   4.640   1.244   1.020 -0.5820 -0.6242  0.4607
 4946TIP3   OH214843   0.829   5.418   1.037 -0.7577 -0.5358  0.6397
 4946TIP3    H114844   0.798   5.498   1.078  1.7134  0.9033 -0.0814
 4946TIP3    H214845   0.850   5.360   1.110 -2.0108 -0.3250  1.1883
 4947TIP3   OH214846   2.705   5.016   4.840 -0.7163 -0.0398  0.0756
 4947TIP3    H114847   2.763   4.976   4.905  0.4860  0.1147 -0.8672
 4947TIP3    H214848   2.649   4.944   4.810 -0.3533 -0.4182  0.2949
 4948TIP3   OH214849   2.092   1.309   1.321  0.0099 -0.0415 -0.2849
 4948TIP3    H114850   2.115   1.400   1.341 -0.4409  0.2741 -1.1531
 4948TIP3    H214851   2.175   1.262   1.324  0.3275  0.5053 -0.3886
 4949TIP3   OH214852   2.011   5.841   1.965  0.2198 -0.4976 -0.0165
 4949TIP3    H114853   2.015   5.896   1.887 -0.4583 -0.0245  0.2707
 4949TIP3    H214854   1.918   5.825   1.979  0.2835 -0.0765  1.0325
 4950TIP3   OH214855   4.576   0.734   1.731  0.5447 -0.1303  0.0288
 4950TIP3    H114856   4.494   0.752   1.777  0.4101 -0.8096  0.0538
 4950TIP3    H214857   4.556   0.749   1.639  0.1125 -1.2852 -0.0716
 4951TIP3   OH214858   5.937   1.578   2.440  0.2588 -0.5017 -0.1337
 4951TIP3    H114859   5.872   1.587   2.509  1.1025  3.2938  0.3571
 4951TIP3    H214860   5.898   1.623   2.365  0.6166 -1.9760 -1.2598
 4952TIP3   OH214861   3.510   5.587   0.651  0.2761 -0.3963 -0.1879
 4952TIP3    H114862   3.558   5.655   0.603  1.0583  0.2523  1.4307
 4952TIP3    H214863   3.564   5.509   0.642  0.0730 -0.4595 -0.9130
 4953TIP3   OH214864   4.988   5.897   4.613 -0.1373 -0.0665 -0.3374
 4953TIP3    H114865   4.897   5.869   4.625 -0.8548  2.2740  0.2975
 4953TIP3    H214866   5.023   5.838   4.547 -1.8190 -1.6360  0.0937
 4954TIP3   OH214867   2.261   4.711   3.920  0.4011  0.0324 -0.2851
 4954TIP3    H114868   2.330   4.756   3.872 -0.4298  0.4193 -1.1671
 4954TIP3    H214869   2.206   4.672   3.852 -0.4767  0.0785  0.3722
 4955TIP3   OH214870   2.366   1.101   2.265 -0.1073 -0.7383  0.1066
 4955TIP3    H114871   2.397   1.086   2.176  1.5899  2.5607  0.0307
 4955TIP3    H214872   2.441   1.083   2.321 -0.2069  0.2633  0.5835
 4956TIP3   OH214873   2.121   1.174   4.196 -0.0563 -0.4260 -0.2635
 4956TIP3    H114874   2.063   1.150   4.268 -1.2636  0.3202 -0.9377
 4956TIP3    H214875   2.189   1.227   4.237 -0.6639 -0.1091  0.3723
 4957TIP3   OH214876   6.262   5.515   5.101  0.3890 -0.2501  0.3922
 4957TIP3    H114877   6.169   5.489   5.102  0.7457 -1.6140  0.9091
 4957TIP3    H214878   6.276   5.557   5.185 -0.4188  2.6607 -0.8077
 4958TIP3   OH214879   1.180   1.293   4.818 -0.0351 -0.3079  0.2378
 4958TIP3    H114880   1.198   1.278   4.725  2.4999 -0.0343  0.6173
 4958TIP3    H214881   1.098   1.342   4.818 -0.8843 -1.5730 -1.7506
 4959TIP3   OH214882   5.962   1.268   2.764  0.7936  0.0591 -0.1370
 4959TIP3    H114883   5.895   1.278   2.697 -0.9004  0.5202  1.5600
 4959TIP3    H214884   5.974   1.173   2.772  0.6598 -0.0127 -0.7140
 4960TIP3   OH214885   0.981   4.363   2.842  0.4275 -0.3057 -0.4604
 4960TIP3    H114886   0.900   4.398   2.879 -0.1700 -0.8135 -1.2579
 4960TIP3    H214887   1.002   4.289   2.898  1.1408  0.6742  0.6149
 4961TIP3   OH214888   5.401   5.712   4.672  0.3289  0.2894  0.4804
 4961TIP3    H114889   5.453   5.766   4.612  0.5926 -1.2079 -0.7046
 4961TIP3    H214890   5.403   5.760   4.755  2.5050  0.9318  0.1197
 4962TIP3   OH214891   3.136   5.038   3.653 -0.0625  0.4377  0.5448
 4962TIP3    H114892   3.098   4.975   3.713  2.3054 -0.8185  0.8353
 4962TIP3    H214893   3.209   5.077   3.701  0.2947  1.2871 -0.6304
 4963TIP3   OH214894   3.651   2.463   4.992  0.1508 -0.1110  0.0018
 4963TIP3    H114895   3.719   2.525   4.966 -0.4187  0.6796  0.3793
 4963TIP3    H214896   3.591   2.513   5.047 -0.0025 -1.1476  0.8113
 4964TIP3   OH214897   4.300   0.708   5.063  0.1196 -0.6439  0.2135
 4964TIP3    H114898   4.339   0.773   5.120 -1.2500  1.7263 -1.3869
 4964TIP3    H214899   4.367   0.693   4.995 -0.0302  0.0666 -0.0987
 4965TIP3   OH214900   3.762   2.301   0.125  0.2446 -0.3416 -0.0153
 4965TIP3    H114901   3.713   2.378   0.154 -0.3267 -0.2297 -1.2023
 4965TIP3    H214902   3.723   2.228   0.172 -0.3152 -0.1010 -0.0932
 4966TIP3   OH214903   1.749   2.729   1.314 -0.3102 -0.3175  0.1523
 4966TIP3    H114904   1.737   2.661   1.380 -0.0585  1.6909  2.4125
 4966TIP3    H214905   1.692   2.801   1.343 -1.4704  0.1064 -2.7575
 4967TIP3   OH214906   0.340   3.332   1.642  0.0056  0.1826 -0.5297
 4967TIP3    H114907   0.376   3.306   1.727 -0.0351  0.8663 -0.2957
 4967TIP3    H214908   0.299   3.417   1.658 -2.3298 -0.8577 -0.6396
 4968TIP3   OH214909   2.498   3.305   2.448  0.2761  0.5073 -0.0507
 4968TIP3    H114910   2.432   3.288   2.381  0.3532 -1.3423  0.2987
 4968TIP3    H214911   2.582   3.292   2.404  0.3444  0.0314  0.2196
 4969TIP3   OH214912   5.977   4.076   2.993 -0.5845 -0.2496 -0.3931
 4969TIP3    H114913   5.959   4.029   2.911  0.4070 -3.1455  0.9017
 4969TIP3    H214914   6.056   4.034   3.028 -0.1971  1.8080  1.4154
 4970TIP3   OH214915   5.260   0.388   1.587 -0.0162  0.0242  0.0166
 4970TIP3    H114916   5.319   0.318   1.617 -0.3110 -0.9669 -1.5621
 4970TIP3    H214917   5.307   0.469   1.607  0.5156 -0.6253  1.5352
 4971TIP3   OH214918   4.408   2.674   2.035  0.3121  0.2091  0.5614
 4971TIP3    H114919   4.372   2.759   2.060 -1.5704 -0.6060  0.7944
 4971TIP3    H214920   4.386   2.664   1.943  0.5158 -0.0237  0.5352
 4972TIP3   OH214921   0.933   0.554   3.550 -0.4314  0.2840  0.2708
 4972TIP3    H114922   0.906   0.463   3.535 -0.5339  0.4072 -0.3286
 4972TIP3    H214923   1.021   0.547   3.586  0.6656  0.0098 -2.3057
 4973TIP3   OH214924   4.622   0.769   5.137  0.6058  0.0326 -0.3584
 4973TIP3    H114925   4.671   0.699   5.181 -0.4684  0.0743  0.9920
 4973TIP3    H214926   4.589   0.728   5.056 -0.4154 -1.2300  0.6339
 4974TIP3   OH214927   0.854   2.407   3.543  0.2260 -0.1418 -0.0074
 4974TIP3    H114928   0.854   2.324   3.495  0.9824  0.0246 -0.3074
 4974TIP3    H214929   0.833   2.382   3.633 -0.3343 -0.5611 -0.2451
 4975TIP3   OH214930   2.063   1.998   1.857 -0.2372  0.5826  0.3844
 4975TIP3    H114931   2.053   1.917   1.907  0.7525  0.1536 -0.0823
 4975TIP3    H214932   2.092   2.062   1.922  3.5489 -0.5509  0.0662
 4976TIP3   OH214933   5.066   4.982   2.598  0.1197 -0.0226  0.9684
 4976TIP3    H114934   4.997   4.918   2.584  0.6303 -0.7157  1.5465
 4976TIP3    H214935   5.105   4.996   2.512  0.0118 -0.4937  0.8423
 4977TIP3   OH214936   4.405   0.325   1.048 -0.2650 -0.1788 -0.4242
 4977TIP3    H114937   4.418   0.326   1.143 -0.3216  0.2983 -0.4185
 4977TIP3    H214938   4.360   0.243   1.030  0.6606 -0.7569 -0.1581
 4978TIP3   OH214939   0.519   0.164   1.762 -0.0404  0.2203  0.0607
 4978TIP3    H114940   0.532   0.106   1.838 -0.4895 -1.3823 -1.0345
 4978TIP3    H214941   0.599   0.217   1.759  0.2159 -0.0440  1.3276
 4979TIP3   OH214942   3.888   4.487   1.497 -0.1029 -0.9323  0.4537
 4979TIP3    H114943   3.927   4.464   1.413 -0.7701 -0.1301 -0.0847
 4979TIP3    H214944   3.829   4.559   1.478 -1.9094 -2.1284  1.2212
 4980TIP3   OH214945   1.431   3.676   3.250 -0.0569 -0.1649 -0.3548
 4980TIP3    H114946   1.523   3.683   3.224 -0.3340  1.2711 -1.0021
 4980TIP3    H214947   1.419   3.744   3.315 -0.6580 -0.3782 -0.2353
 4981TIP3   OH214948   2.365   1.971   3.655 -0.4161  0.3057  0.3010
 4981TIP3    H114949   2.294   1.986   3.592 -1.0393 -2.0119  0.3717
 4981TIP3    H214950   2.328   1.995   3.740 -0.5402  0.6655  0.1491
 4982TIP3   OH214951   1.213   2.199   3.941 -0.3262  0.0152 -0.0866
 4982TIP3    H114952   1.260   2.277   3.912 -0.8703  0.5604  0.4646
 4982TIP3    H214953   1.252   2.178   4.026 -0.3801 -0.1449 -0.1009
 4983TIP3   OH214954   2.245   0.525   4.989  0.8669  0.2373 -0.1975
 4983TIP3    H114955   2.315   0.521   4.924 -1.0638 -0.4974 -2.3260
 4983TIP3    H214956   2.257   0.447   5.042 -0.8534 -2.4294 -3.3922
 4984TIP3   OH214957   2.429   3.864   3.658  0.1107  0.4477 -0.4282
 4984TIP3    H114958   2.335   3.856   3.643 -0.2286  0.8792  1.2699
 4984TIP3    H214959   2.441   3.955   3.684  0.7130 -0.0528  1.1292
 4985TIP3   OH214960   0.986   2.956   2.330  0.7451 -0.2368  0.2542
 4985TIP3    H114961   0.969   2.883   2.389  0.0332 -0.0921  0.2315
 4985TIP3    H214962   1.080   2.971   2.338  0.8609 -0.9986  0.4373
 4986TIP3   OH214963   3.258   4.630   4.347 -0.0548 -0.9091  0.0859
 4986TIP3    H114964   3.235   4.722   4.354  0.5484 -0.8000  0.7607
 4986TIP3    H214965   3.186   4.583   4.390 -1.4009 -0.9232 -2.0324
 4987TIP3   OH214966   4.471   3.323  -0.006  0.0680 -0.4572  0.9410
 4987TIP3    H114967   4.444   3.343   0.083  3.8163  1.0474  1.8750
 4987TIP3    H214968   4.561   3.354  -0.013  0.6834 -2.4393 -2.7409
 4988TIP3   OH214969   4.418   3.543   1.495  0.0926 -0.1105 -0.3627
 4988TIP3    H114970   4.396   3.604   1.425 -1.1974 -0.0968  0.0275
 4988TIP3    H214971   4.511   3.559   1.512 -0.4638  2.6903  0.6172
 4989TIP3   OH214972   0.231   5.829   0.920  0.7373 -0.6934  0.3571
 4989TIP3    H114973   0.305   5.886   0.901 -0.0257 -0.2304 -1.4417
 4989TIP3    H214974   0.156   5.889   0.929  0.4617 -1.1855  1.6777
 4990TIP3   OH214975   1.584   4.674   2.445  0.0054 -0.3457 -0.2297
 4990TIP3    H114976   1.586   4.670   2.350 -0.3086  0.9374 -0.3161
 4990TIP3    H214977   1.523   4.745   2.465 -0.7441 -1.2836  0.9572
 4991TIP3   OH214978   4.925   5.497   0.677  0.1546 -0.0143  0.2731
 4991TIP3    H114979   4.985   5.477   0.750  2.2491  1.6550 -0.8749
 4991TIP3    H214980   4.976   5.479   0.598 -1.5578 -0.3623 -0.8028
 4992TIP3   OH214981   3.847   4.406   4.651  0.4797 -0.0151 -0.1287
 4992TIP3    H114982   3.859   4.483   4.707  0.1547 -0.1020  0.0622
 4992TIP3    H214983   3.755   4.382   4.663 -0.2882  1.4237 -2.5615
 4993TIP3   OH214984   0.688   2.147   1.437  0.1259  0.0821 -0.2799
 4993TIP3    H114985   0.613   2.127   1.381  0.0071 -0.4889  0.0781
 4993TIP3    H214986   0.708   2.065   1.482  1.6598 -0.0865 -1.1732
 4994TIP3   OH214987   1.482   1.119   3.338 -0.1902  0.3425 -0.3001
 4994TIP3    H114988   1.413   1.106   3.403 -0.4340  1.5612 -0.2937
 4994TIP3    H214989   1.535   1.039   3.342 -1.3139 -0.4043  0.0337
 4995TIP3   OH214990   5.220   4.107   4.542  0.0688 -0.3464 -0.2388
 4995TIP3    H114991   5.199   4.196   4.513 -1.9884  0.2709  2.6475
 4995TIP3    H214992   5.145   4.082   4.597  0.9006 -3.6293 -0.4034
 4996TIP3   OH214993   5.017   1.664   4.203  0.3257 -0.0298  0.3543
 4996TIP3    H114994   4.937   1.708   4.232  0.1357  0.1907 -0.4659
 4996TIP3    H214995   5.086   1.701   4.258  0.0998  1.0081 -0.0251
 4997TIP3   OH214996   5.630   5.629   0.117 -0.0415  0.4931  0.2675
 4997TIP3    H114997   5.591   5.675   0.043 -3.8321 -0.0795  1.7318
 4997TIP3    H214998   5.616   5.536   0.098 -1.5718  0.3526  1.8822
 4998TIP3   OH214999   4.485   5.718   3.750  1.0103  0.1556 -0.0688
 4998TIP3    H115000   4.516   5.809   3.754  0.9293  0.1764  0.0692
 4998TIP3    H215001   4.504   5.690   3.661 -0.6104  0.8876 -0.6772
 4999TIP3   OH215002   2.585   0.845   0.509 -0.0363  0.1481 -0.2245
 4999TIP3    H115003   2.574   0.793   0.589  0.4299  0.4631  0.0531
 4999TIP3    H215004   2.593   0.935   0.540  1.1570  0.1654 -0.5452
 5000TIP3   OH215005   3.789   5.563   0.869 -1.1115 -0.7271 -0.2837
 5000TIP3    H115006   3.809   5.632   0.805 -2.3458 -0.1628 -0.0820
 5000TIP3    H215007   3.748   5.609   0.942 -2.1131 -1.6883 -0.2127
 5001TIP3   OH215008   3.607   3.839   0.336 -0.5089 -0.3703  0.2042
 5001TIP3    H115009   3.590   3.762   0.391 -0.3523 -0.8623 -0.4187
 5001TIP3    H215010   3.523   3.859   0.295 -0.4397 -0.5103 -0.0076
 5002TIP3   OH215011   0.351   3.186   4.941 -0.3683 -0.0312 -0.1470
 5002TIP3    H115012   0.411   3.206   5.013 -0.9802 -2.2541  1.0533
 5002TIP3    H215013   0.271   3.157   4.983 -1.7915  1.3504 -1.7507
 5003TIP3   OH215014   0.977   2.848   1.483  0.2344  0.4473  0.0257
 5003TIP3    H115015   1.047   2.912   1.475  0.6290 -0.1792 -2.0723
 5003TIP3    H215016   1.020   2.769   1.514  0.0594  0.6385  0.7921
 5004TIP3   OH215017   3.012   3.617   3.964  0.3940 -0.2114 -0.5259
 5004TIP3    H115018   3.032   3.616   4.058  1.9364  0.3749 -0.8194
 5004TIP3    H215019   2.916   3.620   3.960  0.2896 -0.6862  1.0142
 5005TIP3   OH215020   3.074   4.436   3.099 -0.3517  0.2261  0.6521
 5005TIP3    H115021   3.135   4.502   3.131  2.2341 -1.2066 -0.9968
 5005TIP3    H215022   3.021   4.482   3.034  1.4286  0.7099 -0.5028
 5006TIP3   OH215023   1.800   4.210   1.292 -0.2087 -0.1255 -0.2465
 5006TIP3    H115024   1.843   4.140   1.243 -0.4785 -0.9624  0.6721
 5006TIP3    H215025   1.713   4.175   1.311 -0.4501  0.5840 -0.0340
 5007TIP3   OH215026   2.220   5.192   0.626 -0.2964 -0.2091 -0.2381
 5007TIP3    H115027   2.307   5.167   0.595 -0.1074  0.3854 -0.2007
 5007TIP3    H215028   2.170   5.208   0.547 -0.0666  0.4588 -0.2540
 5008TIP3   OH215029   5.392   1.936   1.180  0.1814 -0.4841  0.4082
 5008TIP3    H115030   5.421   1.857   1.134 -1.3453  0.3037 -2.1399
 5008TIP3    H215031   5.297   1.927   1.184  0.1212  0.4895  1.5746
 5009TIP3   OH215032   1.235   5.926   3.301 -0.5671 -0.2687 -0.7636
 5009TIP3    H115033   1.232   5.980   3.380  0.2577 -0.0996 -0.8413
 5009TIP3    H215034   1.262   5.985   3.231 -4.0699  0.3185 -1.8460
 5010TIP3   OH215035   0.867   0.103   4.303 -0.1999 -0.1023 -0.0523
 5010TIP3    H115036   0.791   0.140   4.260  1.6657  0.7111 -2.9223
 5010TIP3    H215037   0.937   0.106   4.237  3.0755  1.6313  3.1046
 5011TIP3   OH215038   2.763   1.881   3.824  0.1363 -0.4037  0.3578
 5011TIP3    H115039   2.764   1.800   3.774  0.5964 -1.1188  1.4817
 5011TIP3    H215040   2.817   1.863   3.901  0.4478  1.0501  0.5240
 5012TIP3   OH215041   4.916   4.799   4.452  0.5743 -0.4974 -0.2658
 5012TIP3    H115042   4.978   4.740   4.410  1.6760  0.1735  0.3659
 5012TIP3    H215043   4.947   4.887   4.428  1.7122 -0.0400  2.4668
 5013TIP3   OH215044   5.548   1.694   0.761 -0.4228  0.6005 -0.2584
 5013TIP3    H115045   5.511   1.767   0.712 -0.2533  1.2407  0.5387
 5013TIP3    H215046   5.473   1.655   0.805 -0.2739  1.5099  0.8556
 5014TIP3   OH215047   1.713   2.024   2.344  0.3820 -0.3543 -0.1925
 5014TIP3    H115048   1.749   1.952   2.396 -1.7020 -0.7909  0.7560
 5014TIP3    H215049   1.697   1.986   2.258  3.8413  0.3688 -1.3468
 5015TIP3   OH215050   0.946   2.035   0.904 -0.0745 -0.3891 -0.1335
 5015TIP3    H115051   0.855   2.022   0.880 -1.6910  0.6494  4.4720
 5015TIP3    H215052   0.961   2.129   0.894  0.6225 -0.5790 -1.0515
 5016TIP3   OH215053   6.087   3.355   1.229 -0.0698 -0.4123  0.0208
 5016TIP3    H115054   6.015   3.307   1.189 -0.3597 -0.2183  0.3009
 5016TIP3    H215055   6.046   3.433   1.267  0.3097 -0.2221  0.0504
 5017TIP3   OH215056   6.233   3.162  -0.008 -0.2911 -0.6882  0.4420
 5017TIP3    H115057   6.259   3.160   0.084  3.4554 -0.8736 -0.4510
 5017TIP3    H215058   6.301   3.112  -0.053 -0.7833  1.2273 -2.6861
 5018TIP3   OH215059   1.836   5.584   3.434  0.1428  0.5431 -0.5861
 5018TIP3    H115060   1.911   5.578   3.493  0.1537  0.7116 -0.5822
 5018TIP3    H215061   1.833   5.499   3.390  0.6677  0.7377 -0.9939
 5019TIP3   OH215062   3.039   3.153   3.297  0.1903 -0.2333  0.1161
 5019TIP3    H115063   2.973   3.200   3.348  1.1481 -0.2801  1.4778
 5019TIP3    H215064   2.989   3.090   3.245 -0.7932 -1.4281  2.3379
 5020TIP3   OH215065   1.833   1.244   3.654 -0.7026 -0.0587  0.1253
 5020TIP3    H115066   1.765   1.244   3.586 -1.8383  0.4830  1.2410
 5020TIP3    H215067   1.797   1.296   3.725  0.0303 -1.4492  1.5862
 5021TIP3   OH215068   2.072   0.217   3.490 -0.3391  0.5441 -0.1004
 5021TIP3    H115069   2.118   0.146   3.535  0.6991  1.0133 -0.3816
 5021TIP3    H215070   2.009   0.173   3.433 -0.2406 -0.1171  0.2960
 5022TIP3   OH215071   0.743   5.582   0.419 -0.4670 -0.1488  0.1165
 5022TIP3    H115072   0.798   5.507   0.398  0.9173  0.9031 -0.1536
 5022TIP3    H215073   0.677   5.583   0.349  1.0261  0.3331 -1.3342
 5023TIP3   OH215074   2.442   4.546   1.337 -0.3220  0.3982 -0.0117
 5023TIP3    H115075   2.536   4.531   1.331 -0.3823  0.4464 -1.4609
 5023TIP3    H215076   2.433   4.641   1.342 -0.3053  0.4330 -0.5459
 5024TIP3   OH215077   5.094   3.458   0.826  0.1087 -0.2841 -0.2563
 5024TIP3    H115078   5.133   3.535   0.867 -0.3370 -0.1441 -0.0911
 5024TIP3    H215079   5.166   3.416   0.780  0.6786 -0.5732  0.8611
 5025TIP3   OH215080   1.510   0.240   3.165  0.4008  0.1293 -0.2381
 5025TIP3    H115081   1.491   0.208   3.077 -0.0144  0.7486 -0.3803
 5025TIP3    H215082   1.424   0.241   3.208  0.4210  0.9651 -0.2144
 5026TIP3   OH215083   5.294   3.236   1.087 -0.0401 -0.7368  0.3083
 5026TIP3    H115084   5.386   3.212   1.095  0.1498 -0.2718 -0.2868
 5026TIP3    H215085   5.263   3.187   1.011 -0.4450 -1.3341  0.8539
 5027TIP3   OH215086   3.929   4.940   4.896 -0.4112 -0.0756 -0.0856
 5027TIP3    H115087   3.890   4.853   4.902  0.6017 -0.8341 -2.9767
 5027TIP3    H215088   4.018   4.928   4.928 -0.0074 -0.3525 -1.2574
 5028TIP3   OH215089   4.710   3.491   0.053  0.1611  0.0397  0.0993
 5028TIP3    H115090   4.748   3.548   0.119 -0.0084 -0.8388  0.9807
 5028TIP3    H215091   4.784   3.462  -0.000  0.1846  1.4504 -0.6786
 5029TIP3   OH215092   1.257   5.539   3.111  0.0536  0.1660  0.4058
 5029TIP3    H115093   1.173   5.576   3.139  0.4351  1.0906  0.3618
 5029TIP3    H215094   1.252   5.447   3.137 -0.9719  0.2086  0.4020
 5030TIP3   OH215095   1.511   4.658   4.510 -0.3879  0.0554 -0.3774
 5030TIP3    H115096   1.472   4.572   4.496 -0.3814  0.1103 -0.7436
 5030TIP3    H215097   1.436   4.718   4.512 -0.4865 -0.0836  0.9683
 5031TIP3   OH215098   0.600   0.867   2.739  0.0657  0.1026 -0.7745
 5031TIP3    H115099   0.600   0.925   2.663 -0.4778  0.8880 -0.1942
 5031TIP3    H215100   0.610   0.926   2.814 -1.3008 -0.4531 -0.1102
 5032TIP3   OH215101   3.158   2.029   3.206  0.0582  0.5309 -0.3091
 5032TIP3    H115102   3.113   2.094   3.152 -0.7463  0.2613  0.0328
 5032TIP3    H215103   3.102   2.018   3.282 -0.2696 -1.2406 -0.7753
 5033TIP3   OH215104   4.142   4.514   5.067 -0.1395 -0.0583 -0.2134
 5033TIP3    H115105   4.131   4.543   4.977 -0.7806  0.4221  0.0184
 5033TIP3    H215106   4.223   4.462   5.066 -0.7026 -0.9451 -1.2785
 5034TIP3   OH215107   1.199   0.088   4.671  0.2903 -0.0901  0.2632
 5034TIP3    H115108   1.108   0.090   4.642  1.0117  0.4214 -2.1591
 5034TIP3    H215109   1.237   0.169   4.638  2.4480 -1.8338 -1.9462
 5035TIP3   OH215110   6.087   2.208   0.479 -0.1434  0.0091  0.2622
 5035TIP3    H115111   6.010   2.205   0.536 -0.9269 -1.4975 -0.8053
 5035TIP3    H215112   6.051   2.217   0.391  1.0103  1.3472 -0.1068
 5036TIP3   OH215113   3.561   0.860   3.503  0.7616  0.0328  0.9777
 5036TIP3    H115114   3.590   0.946   3.472 -1.9314  0.9100  0.5842
 5036TIP3    H215115   3.481   0.879   3.552  0.2321 -2.2446  1.0791
 5037TIP3   OH215116   1.053   3.323   4.733  0.4618  0.3285  0.3238
 5037TIP3    H115117   1.043   3.416   4.755  2.7373  1.0146 -1.1436
 5037TIP3    H215118   0.998   3.310   4.656  0.1829  0.4551  0.4980
 5038TIP3   OH215119   2.307   0.017   4.796 -0.0936 -0.3034  0.3713
 5038TIP3    H115120   2.288   0.056   4.881 -0.4692  0.7938 -0.2072
 5038TIP3    H215121   2.308   0.090   4.735  0.4352 -1.0447 -0.5387
 5039TIP3   OH215122   4.149   1.826   0.458 -0.1917  0.5065 -0.1429
 5039TIP3    H115123   4.095   1.827   0.536  0.7879  3.1035  0.6068
 5039TIP3    H215124   4.165   1.918   0.438  1.1202 -0.1096 -2.3365
 5040TIP3   OH215125   0.880   0.906   1.463 -0.4067  0.2176 -0.3134
 5040TIP3    H115126   0.851   0.815   1.469  0.4684 -0.1420 -1.2223
 5040TIP3    H215127   0.832   0.951   1.532 -1.4631 -0.7737 -0.3645
 5041TIP3   OH215128   2.606   1.340   4.056  0.2543  0.5301  0.6198
 5041TIP3    H115129   2.561   1.280   4.115  1.6929  0.6922  1.9295
 5041TIP3    H215130   2.549   1.344   3.978 -0.3165 -1.7884  0.8497
 5042TIP3   OH215131   4.038   1.811   2.934 -0.2853 -0.0268  0.0847
 5042TIP3    H115132   4.003   1.772   3.014  0.9387 -1.2403  0.0746
 5042TIP3    H215133   3.984   1.775   2.864  0.3794 -1.1915  0.1439
 5043TIP3   OH215134   2.798   2.113   4.093 -0.3291 -0.2327 -0.0573
 5043TIP3    H115135   2.861   2.183   4.109 -1.1325  0.6565 -0.6573
 5043TIP3    H215136   2.852   2.035   4.077  0.6007  0.4347 -0.2633
 5044TIP3   OH215137   4.183   0.023   3.932 -0.0543  0.0035 -0.1882
 5044TIP3    H115138   4.138   0.064   3.859  1.7198 -0.2401 -1.4822
 5044TIP3    H215139   4.218  -0.059   3.897 -0.7783 -1.0797  1.4750
 5045TIP3   OH215140   3.738   1.626   3.636  0.1417 -0.1958 -0.2260
 5045TIP3    H115141   3.759   1.542   3.596  0.1802 -0.4311  0.2796
 5045TIP3    H215142   3.823   1.668   3.650  0.3159 -1.0885  1.6915
 5046TIP3   OH215143   1.384   3.899   4.221  0.3449  0.7513  0.2495
 5046TIP3    H115144   1.352   3.891   4.131 -0.9315  0.2057  0.7302
 5046TIP3    H215145   1.459   3.959   4.214  1.2365 -0.4789 -1.3751
 5047TIP3   OH215146   3.806   2.559   3.862  0.7116  0.5086  0.1870
 5047TIP3    H115147   3.753   2.624   3.908  0.8679  0.3613  0.5724
 5047TIP3    H215148   3.771   2.475   3.889  2.2197  0.3435  1.7950
 5048TIP3   OH215149   1.489   3.819   3.507  0.1802  0.5160  0.4935
 5048TIP3    H115150   1.548   3.860   3.444 -0.1257  0.7745  0.3669
 5048TIP3    H215151   1.403   3.858   3.487  0.0065  0.2929  0.8002
 5049TIP3   OH215152   1.985   5.375   1.359 -0.1621 -0.1061  0.0274
 5049TIP3    H115153   2.056   5.405   1.303 -0.2480  0.2145  0.0879
 5049TIP3    H215154   1.986   5.434   1.434 -0.4340 -0.1519  0.0711
 5050TIP3   OH215155   5.454   1.471   0.593  0.2795  0.6053  0.3045
 5050TIP3    H115156   5.510   1.412   0.542  2.3463 -0.4279  3.4747
 5050TIP3    H215157   5.514   1.516   0.652 -2.0059  0.6972  2.7418
 5051TIP3   OH215158   2.366   1.672   4.225 -0.2660  0.5619  0.4350
 5051TIP3    H115159   2.372   1.576   4.217 -1.4609  0.5740 -0.9116
 5051TIP3    H215160   2.292   1.686   4.285 -0.2789  0.6506  0.3980
 5052TIP3   OH215161   6.143   5.047   3.878  0.1644  0.0933  0.6769
 5052TIP3    H115162   6.062   5.017   3.919 -1.8947  1.2444 -2.2665
 5052TIP3    H215163   6.130   5.141   3.865  1.2486  0.0186 -1.3109
 5053TIP3   OH215164   5.565   3.323   0.029  1.1441  0.0593 -0.1931
 5053TIP3    H115165   5.633   3.257   0.014  0.6919 -0.6342  0.7275
 5053TIP3    H215166   5.518   3.292   0.106  0.9342  1.4872  0.2751
 5054TIP3   OH215167   1.614   2.148   3.247  0.2968 -0.8104  0.3736
 5054TIP3    H115168   1.542   2.157   3.184 -1.5882 -0.5569  2.4664
 5054TIP3    H215169   1.649   2.237   3.256  1.8700 -1.1272 -1.6152
 5055TIP3   OH215170   5.331   5.926   0.167 -0.3973  0.0794  0.5380
 5055TIP3    H115171   5.379   5.998   0.208  1.8044 -1.1772  0.2916
 5055TIP3    H215172   5.319   5.955   0.076  1.5819 -0.3190  0.1066
 5056TIP3   OH215173   5.648   5.616   4.797 -0.1107 -0.4927 -0.1898
 5056TIP3    H115174   5.737   5.626   4.830 -0.1444 -2.5375  0.6969
 5056TIP3    H215175   5.593   5.665   4.857  0.3998  0.9617 -0.8649
 5057TIP3   OH215176   5.884   2.816   0.839 -0.5366  0.6303 -0.2265
 5057TIP3    H115177   5.952   2.883   0.835 -0.4125  0.5794  0.8678
 5057TIP3    H215178   5.922   2.747   0.894 -0.5345 -0.4990 -1.5533
 5058TIP3   OH215179   4.379   2.491   5.077 -0.5308  0.3492 -0.5174
 5058TIP3    H115180   4.374   2.501   4.982 -2.4241  0.0171 -0.4881
 5058TIP3    H215181   4.288   2.499   5.107  0.0522  0.6082  1.2852
 5059TIP3   OH215182   1.021   0.336   4.743  0.2640 -0.2036  0.1388
 5059TIP3    H115183   1.039   0.396   4.671  0.0371 -0.0022  0.2465
 5059TIP3    H215184   0.975   0.262   4.703 -1.9093  0.9210  0.3751
 5060TIP3   OH215185   3.140   5.093   0.995 -0.1739  0.1246 -0.2698
 5060TIP3    H115186   3.197   5.159   1.035 -0.8718  0.4517  0.1962
 5060TIP3    H215187   3.200   5.036   0.947  0.2868  2.3949 -2.5929
 5061TIP3   OH215188   4.682   2.263   3.969  0.3973  0.1293  0.3813
 5061TIP3    H115189   4.766   2.290   4.006  0.2480  1.5897 -0.2521
 5061TIP3    H215190   4.705   2.214   3.890  0.6797  1.7396 -0.5747
 5062TIP3   OH215191   4.016   3.324   0.387 -0.3432  0.0259  0.0317
 5062TIP3    H115192   4.025   3.275   0.469  0.1808  0.2507  0.1129
 5062TIP3    H215193   3.939   3.379   0.401 -0.4969 -0.2308  0.2179
 5063TIP3   OH215194   4.691   5.337   0.828  0.8832  0.6239  0.0600
 5063TIP3    H115195   4.751   5.367   0.896  0.1499  0.5837  0.7397
 5063TIP3    H215196   4.634   5.412   0.812  0.5261  0.3613  0.0913
 5064TIP3   OH215197   3.292   5.317   2.296 -0.0553 -0.7758  0.4445
 5064TIP3    H115198   3.265   5.246   2.238 -1.8176  0.7756 -0.7727
 5064TIP3    H215199   3.278   5.283   2.384 -2.6149 -1.3912 -0.1026
 5065TIP3   OH215200   5.263   3.488   4.622  0.2174 -0.2540  0.5414
 5065TIP3    H115201   5.303   3.474   4.537  0.8801  1.4703  0.5310
 5065TIP3    H215202   5.334   3.521   4.677 -0.3411 -0.7754  1.6110
 5066TIP3   OH215203   1.505   1.719   5.167 -0.1158 -0.4345  0.3687
 5066TIP3    H115204   1.539   1.659   5.233  3.7154  0.7228 -0.3500
 5066TIP3    H215205   1.539   1.686   5.084  1.1212  2.0141 -0.1705
 5067TIP3   OH215206   3.246   3.604   1.531 -0.4829 -0.6931  0.4473
 5067TIP3    H115207   3.186   3.530   1.538 -2.3501  0.7106  0.1803
 5067TIP3    H215208   3.219   3.663   1.601  0.7139 -0.0827  0.4197
 5068TIP3   OH215209   2.873   0.557   4.123 -0.2572 -0.0712 -0.0776
 5068TIP3    H115210   2.793   0.605   4.103 -1.4350 -2.6400 -1.9122
 5068TIP3    H215211   2.910   0.534   4.038  2.2280  0.5755  0.7215
 5069TIP3   OH215212   4.366   1.103   3.990 -0.1792  0.1462 -0.0889
 5069TIP3    H115213   4.389   1.018   4.027  2.1608  1.3101  1.4028
 5069TIP3    H215214   4.298   1.137   4.048  1.2513  0.6202  1.4061
 5070TIP3   OH215215   2.305   2.575   2.916 -0.0679 -0.5860 -0.4321
 5070TIP3    H115216   2.319   2.625   2.996 -0.3301 -0.8501 -0.2208
 5070TIP3    H215217   2.256   2.498   2.944 -0.9427 -0.2465 -0.9800
 5071TIP3   OH215218   0.508   5.938   3.748 -0.4570  0.2615  0.5404
 5071TIP3    H115219   0.414   5.939   3.727 -0.6459 -0.7986  1.2396
 5071TIP3    H215220   0.511   5.906   3.839  0.6207 -0.4644  0.2613
 5072TIP3   OH215221   5.999   0.305   1.428  0.7639  0.3821 -0.0943
 5072TIP3    H115222   6.043   0.347   1.503  2.3164 -0.5856 -0.4220
 5072TIP3    H215223   5.919   0.269   1.465 -0.5733  3.3602  0.2594
 5073TIP3   OH215224   0.318   3.572   2.914  0.5945  0.0664  0.2521
 5073TIP3    H115225   0.338   3.520   2.836  1.1847  0.3857  0.1919
 5073TIP3    H215226   0.267   3.646   2.881 -0.0030 -0.3166  0.3014
 5074TIP3   OH215227   0.131   4.962   2.539 -1.2133  0.0475 -0.0321
 5074TIP3    H115228   0.077   4.971   2.460 -1.0826  0.6924 -0.0520
 5074TIP3    H215229   0.102   4.879   2.578 -0.7624 -0.6490 -1.1389
 5075TIP3   OH215230   0.594   1.602   4.670  0.1631 -0.0973  0.2026
 5075TIP3    H115231   0.605   1.584   4.577  0.6903  0.2396  0.1949
 5075TIP3    H215232   0.575   1.517   4.710  1.3476 -0.4675 -0.0110
 5076TIP3   OH215233   4.569   5.712   3.248  0.3961  0.1222  0.0186
 5076TIP3    H115234   4.509   5.647   3.213  1.3520 -0.0324 -1.3803
 5076TIP3    H215235   4.546   5.793   3.202 -0.1005  0.5641  1.0021
 5077TIP3   OH215236   0.632   4.948   2.689 -0.4186  0.4435 -0.3024
 5077TIP3    H115237   0.543   4.914   2.687 -0.2418 -0.2274  1.3852
 5077TIP3    H215238   0.688   4.870   2.687  0.1160  0.8316 -0.8184
 5078TIP3   OH215239   3.127   0.121   4.036 -0.2832 -0.3057 -0.5850
 5078TIP3    H115240   3.206   0.159   4.074 -0.8696  0.1993  0.1657
 5078TIP3    H215241   3.097   0.186   3.973 -0.5864 -0.0893 -0.2213
 5079TIP3   OH215242   0.456   5.970   3.090  0.1344 -0.3085 -0.1436
 5079TIP3    H115243   0.522   6.035   3.114 -1.3454  1.1883  0.0672
 5079TIP3    H215244   0.496   5.919   3.020  0.9604  1.5806 -1.1059
 5080TIP3   OH215245   1.855   2.493   4.723  0.2029  0.2774  0.1144
 5080TIP3    H115246   1.899   2.408   4.734  1.3785  0.7946 -0.4228
 5080TIP3    H215247   1.888   2.527   4.640 -0.9272  0.8835 -0.1133
 5081TIP3   OH215248   4.761   0.047   0.301  0.9798  0.3985 -0.2033
 5081TIP3    H115249   4.792   0.051   0.211  0.2181  2.7490 -0.4457
 5081TIP3    H215250   4.673   0.085   0.297  0.7490  0.1044  1.4578
 5082TIP3   OH215251   0.879   1.257   1.240  0.1669 -0.0251  0.6340
 5082TIP3    H115252   0.784   1.250   1.232  0.2623 -0.1184 -0.5745
 5082TIP3    H215253   0.897   1.349   1.224  0.3641 -0.2070 -0.2431
 5083TIP3   OH215254   4.782   1.775   4.270 -0.1655  0.0253  0.3707
 5083TIP3    H115255   4.744   1.796   4.355 -1.2267 -2.1009  0.5076
 5083TIP3    H215256   4.707   1.761   4.213  0.5010 -0.3783 -0.4361
 5084TIP3   OH215257   4.830   3.927   2.965  0.3668 -0.1597 -0.1745
 5084TIP3    H115258   4.810   4.012   3.004 -2.4278  0.0877 -1.8632
 5084TIP3    H215259   4.808   3.936   2.873 -2.5357 -3.3225 -0.0035
 5085TIP3   OH215260   2.695   3.658   2.904  0.3536  0.1267 -0.1090
 5085TIP3    H115261   2.691   3.570   2.866 -0.5806 -0.1150  0.5176
 5085TIP3    H215262   2.723   3.714   2.831 -0.1740 -0.5168 -0.8256
 5086TIP3   OH215263   4.884   4.224   4.518  0.5977 -0.5086 -0.3150
 5086TIP3    H115264   4.823   4.296   4.533  0.9600 -0.3042  0.2003
 5086TIP3    H215265   4.944   4.227   4.592  0.7107 -1.2506 -0.3636
 5087TIP3   OH215266   5.942   5.075   2.658 -0.3330  0.2108 -0.0258
 5087TIP3    H115267   5.920   4.999   2.605  1.2411 -0.5683  0.3857
 5087TIP3    H215268   5.871   5.080   2.723 -1.0958 -0.1458 -0.8120
 5088TIP3   OH215269   6.164   5.964   4.605 -0.3399  0.3332  0.0955
 5088TIP3    H115270   6.117   6.036   4.562 -0.3012 -0.0950 -0.6805
 5088TIP3    H215271   6.095   5.905   4.636 -0.3548  0.4646  0.3176
 5089TIP3   OH215272   2.201   3.540   3.552 -0.5287 -0.2627  0.2137
 5089TIP3    H115273   2.175   3.632   3.557 -1.6268 -0.5187 -0.4761
 5089TIP3    H215274   2.213   3.514   3.643 -1.3008  0.2753  0.4840
 5090TIP3   OH215275   4.572   1.616   0.669  0.0852 -0.2276 -0.4449
 5090TIP3    H115276   4.564   1.679   0.597  0.7584  0.0306 -0.3004
 5090TIP3    H215277   4.620   1.542   0.632 -0.7694 -0.6945 -0.6341
 5091TIP3   OH215278   4.957   4.882   4.055 -0.1480 -0.0972  0.0551
 5091TIP3    H115279   4.865   4.908   4.058 -0.0326  0.4848 -1.0645
 5091TIP3    H215280   4.957   4.791   4.086 -1.4735 -1.0016 -2.3729
 5092TIP3   OH215281   0.623   2.282   4.084  0.2503  0.6157 -0.5486
 5092TIP3    H115282   0.661   2.265   3.998 -0.3491  1.1607 -0.9262
 5092TIP3    H215283   0.673   2.357   4.117 -1.5239  2.4331 -1.7539
 5093TIP3   OH215284   4.251   3.018   3.127  0.8507 -0.4905  0.5060
 5093TIP3    H115285   4.227   3.064   3.047 -0.6794 -0.3081  1.0424
 5093TIP3    H215286   4.330   2.968   3.103  1.1940  0.5845 -0.7172
 5094TIP3   OH215287   2.351   1.684   3.429  0.0772  0.0130 -0.4176
 5094TIP3    H115288   2.296   1.627   3.375 -1.4163  1.2488 -0.2438
 5094TIP3    H215289   2.290   1.742   3.473  1.4794  0.8601  0.4730
 5095TIP3   OH215290   3.592   5.843   2.921  0.0731  0.5446 -0.3212
 5095TIP3    H115291   3.557   5.858   2.833 -0.9508 -1.0033 -0.2194
 5095TIP3    H215292   3.654   5.770   2.909  0.9887  1.2392  0.0350
 5096TIP3   OH215293   2.689   4.906   2.913  0.0039  0.3199  0.0878
 5096TIP3    H115294   2.713   4.984   2.863  0.5670  1.1622  1.5980
 5096TIP3    H215295   2.773   4.864   2.932  0.1313  1.5347  2.6416
 5097TIP3   OH215296   0.846   0.629   1.787 -0.1337 -0.0489 -0.4037
 5097TIP3    H115297   0.911   0.691   1.755 -0.3531  0.4152  0.0373
 5097TIP3    H215298   0.895   0.567   1.842 -0.0920  0.4165  0.0887
 5098TIP3   OH215299   0.199   0.379   1.180  0.2651  0.3049 -0.0339
 5098TIP3    H115300   0.239   0.463   1.157  2.6802 -1.1108 -1.4444
 5098TIP3    H215301   0.212   0.372   1.274  0.2694  1.3663  0.0643
 5099TIP3   OH215302   0.651   0.372   1.457  0.5348  0.1493 -0.0753
 5099TIP3    H115303   0.610   0.382   1.543 -0.4261  1.8025 -0.6774
 5099TIP3    H215304   0.583   0.331   1.403  1.1303 -0.8768 -0.0701
 5100TIP3   OH215305   2.459   4.526   0.668  0.4771  1.1922 -0.3261
 5100TIP3    H115306   2.481   4.552   0.757  1.5388  1.9654 -0.7805
 5100TIP3    H215307   2.544   4.511   0.626 -0.0080  0.6821 -1.1579
 5101TIP3   OH215308   0.347   4.764   1.408  0.0588  0.4967 -0.3096
 5101TIP3    H115309   0.330   4.827   1.338  0.1470  0.2925 -0.5185
 5101TIP3    H215310   0.261   4.747   1.446 -0.2814 -0.7141 -1.5198
 5102TIP3   OH215311   3.634   2.282   4.787  0.3981  0.4556 -0.3694
 5102TIP3    H115312   3.637   2.351   4.852  0.3909 -0.6146  0.8000
 5102TIP3    H215313   3.613   2.203   4.836  0.1516 -0.3487 -1.7024
 5103TIP3   OH215314   1.256   2.613   0.675  0.4645 -0.0043 -0.0213
 5103TIP3    H115315   1.303   2.635   0.594 -0.6388 -0.2479 -0.7421
 5103TIP3    H215316   1.171   2.580   0.646 -1.4217  3.2348  1.2944
 5104TIP3   OH215317   4.657   0.316   2.958 -0.7275  0.2519 -0.3078
 5104TIP3    H115318   4.654   0.407   2.929  1.4521  0.2318 -0.7388
 5104TIP3    H215319   4.745   0.304   2.992 -0.4091 -2.0943 -1.6863
 5105TIP3   OH215320   0.617   0.172   3.410  0.2561  0.7802 -0.3758
 5105TIP3    H115321   0.640   0.103   3.348  3.7364  0.8566  0.5878
 5105TIP3    H215322   0.553   0.131   3.469 -1.5524  0.0742 -2.6858
 5106TIP3   OH215323   5.530   3.780   5.079  0.3536 -0.1354  0.1651
 5106TIP3    H115324   5.482   3.808   5.001 -0.4281 -4.0346 -0.9672
 5106TIP3    H215325   5.493   3.833   5.150  0.3115  2.7561 -1.8372
 5107TIP3   OH215326   5.931   5.777   3.293  0.1088  0.4210  0.1204
 5107TIP3    H115327   5.988   5.819   3.358  1.9117 -0.5511 -0.7598
 5107TIP3    H215328   5.905   5.848   3.234  0.0918  0.9504  0.7507
 5108TIP3   OH215329   5.388   4.016   1.454 -0.0874 -0.0586 -0.1142
 5108TIP3    H115330   5.476   3.983   1.472  0.5272  1.2762 -0.5162
 5108TIP3    H215331   5.398   4.111   1.453 -1.8199  0.1948  1.2758
 5109TIP3   OH215332   1.990   5.237   2.721 -0.0601 -0.1082  0.4698
 5109TIP3    H115333   2.013   5.197   2.637  0.1319  2.2537 -0.6647
 5109TIP3    H215334   2.049   5.195   2.784  1.6635 -0.0451 -1.0273
 5110TIP3   OH215335   4.852   1.141   3.252 -0.3368 -0.1256 -0.2990
 5110TIP3    H115336   4.862   1.198   3.175  0.8334 -0.2775 -0.2843
 5110TIP3    H215337   4.858   1.200   3.327  0.7126 -0.2293 -0.2876
 5111TIP3   OH215338   3.466   3.742   4.873  0.3052 -0.2332 -0.3840
 5111TIP3    H115339   3.458   3.781   4.960 -0.3035 -0.5899 -0.2785
 5111TIP3    H215340   3.379   3.750   4.834  0.9529  1.4158 -1.6197
 5112TIP3   OH215341   3.462   2.018   2.326 -0.3144  0.1072 -0.7824
 5112TIP3    H115342   3.538   2.048   2.376  0.3627  0.8756 -2.1991
 5112TIP3    H215343   3.404   1.978   2.391  1.4774 -0.8816  0.2914
 5113TIP3   OH215344   5.719   2.638   1.829  0.7719 -0.0930  0.4787
 5113TIP3    H115345   5.746   2.552   1.860 -0.5188 -0.7888 -0.2182
 5113TIP3    H215346   5.648   2.664   1.888  2.5500  1.5022  2.0200
 5114TIP3   OH215347   0.143   2.660   1.153  0.0475 -0.1463 -0.0463
 5114TIP3    H115348   0.084   2.735   1.159 -0.3442 -0.4941  0.5658
 5114TIP3    H215349   0.155   2.633   1.244  1.4974  0.1813 -0.1161
 5115TIP3   OH215350   3.979   0.186   1.035 -0.5700  0.5297 -0.3603
 5115TIP3    H115351   3.900   0.238   1.025 -0.9754 -0.0719 -0.3143
 5115TIP3    H215352   3.954   0.113   1.091  0.0769  0.4598 -0.1484
 5116TIP3   OH215353   4.858   0.766   1.729 -0.2534  0.0112  0.0216
 5116TIP3    H115354   4.856   0.860   1.748 -1.4888 -0.2399  1.3277
 5116TIP3    H215355   4.766   0.740   1.730  0.0285 -1.1047 -0.9745
 5117TIP3   OH215356   1.549   5.145   0.877 -0.1587 -0.0325 -0.2807
 5117TIP3    H115357   1.547   5.128   0.783  1.2189 -2.2882  0.0167
 5117TIP3    H215358   1.640   5.128   0.902 -0.6910 -0.3551  1.5872
 5118TIP3   OH215359   4.434   3.405   1.786 -1.1522  0.5379  0.5193
 5118TIP3    H115360   4.482   3.487   1.797  0.2268 -0.1861  0.2103
 5118TIP3    H215361   4.359   3.412   1.845 -1.0624  2.0076  0.4907
 5119TIP3   OH215362   3.372   4.819   3.673  0.1078 -0.2290  0.9505
 5119TIP3    H115363   3.448   4.842   3.725  0.0356  2.5034 -0.0267
 5119TIP3    H215364   3.308   4.888   3.690 -1.0561 -0.8843 -0.4603
 5120TIP3   OH215365   3.755   4.204   1.877 -0.5625 -0.1219 -0.8305
 5120TIP3    H115366   3.680   4.199   1.935 -0.3879  0.1072 -0.5800
 5120TIP3    H215367   3.776   4.113   1.855 -1.6820 -0.1333 -1.9027
 5121TIP3   OH215368   4.268   4.658   2.067 -0.1810  0.9231 -0.7788
 5121TIP3    H115369   4.251   4.680   2.158  0.7069  0.9335 -0.6083
 5121TIP3    H215370   4.189   4.686   2.021 -1.8413 -1.5764  0.3264
 5122TIP3   OH215371   4.788   1.050   2.771 -0.2398 -0.1557 -0.4912
 5122TIP3    H115372   4.752   1.130   2.811 -0.0566 -0.8711  1.1733
 5122TIP3    H215373   4.816   1.078   2.684 -1.7475  1.1966 -0.5917
 5123TIP3   OH215374   0.420   2.630   4.296 -0.0607 -0.7490  0.2717
 5123TIP3    H115375   0.353   2.565   4.317  0.5992 -1.6268 -0.2635
 5123TIP3    H215376   0.372   2.711   4.285 -0.7305 -0.7606  2.6076
 5124TIP3   OH215377   4.334   1.597   0.144  0.0606 -0.4127  0.0610
 5124TIP3    H115378   4.304   1.587   0.235 -0.1595  1.4255  0.2306
 5124TIP3    H215379   4.429   1.604   0.151 -0.0016  0.3430  0.2294
 5125TIP3   OH215380   4.596   4.189   4.850 -0.2751 -0.2825 -0.7404
 5125TIP3    H115381   4.672   4.224   4.895 -0.9565  0.7723 -0.3592
 5125TIP3    H215382   4.536   4.263   4.843 -1.5001 -1.2161 -0.5151
 5126TIP3   OH215383   2.874   4.952   0.252 -0.0238 -0.0729  0.0614
 5126TIP3    H115384   2.941   4.885   0.243  1.7583  1.5477  0.4807
 5126TIP3    H215385   2.858   4.982   0.163 -1.0503 -1.2226 -0.1588
 5127TIP3   OH215386   6.297   2.633   1.704 -0.1077  0.0880 -0.4388
 5127TIP3    H115387   6.215   2.591   1.728 -0.4308  1.4563  0.9723
 5127TIP3    H215388   6.293   2.641   1.608 -0.8929 -1.2686 -0.5382
 5128TIP3   OH215389   2.510   5.110   3.871  0.7597 -0.0564  0.1788
 5128TIP3    H115390   2.578   5.045   3.889  1.3310  0.6754  0.7370
 5128TIP3    H215391   2.486   5.144   3.957  1.5831  1.5642 -0.1896
 5129TIP3   OH215392   1.957   4.383   2.141  1.1867 -0.1485 -0.6031
 5129TIP3    H115393   1.907   4.459   2.111  2.2230  0.8930  0.1994
 5129TIP3    H215394   2.015   4.363   2.067  0.0368 -1.0048 -1.3146
 5130TIP3   OH215395   3.407   4.399   3.163 -0.2430 -0.3823  0.4178
 5130TIP3    H115396   3.390   4.307   3.142  0.7233 -0.2045 -1.2274
 5130TIP3    H215397   3.502   4.409   3.157 -0.4296  1.0313 -0.7843
 5131TIP3   OH215398   3.567   5.137   2.576 -0.8830  0.7771  0.2314
 5131TIP3    H115399   3.566   5.104   2.487 -1.5082 -0.3887  0.6590
 5131TIP3    H215400   3.581   5.232   2.566  0.2296  0.5101 -1.0347
 5132TIP3   OH215401   4.561   0.097   2.564  0.0788 -0.0597  0.0771
 5132TIP3    H115402   4.528   0.173   2.611  0.9269  0.2023  0.2642
 5132TIP3    H215403   4.508   0.024   2.597 -2.4567  0.7460 -1.8942
 5133TIP3   OH215404   3.255   2.301   2.565 -0.3677  0.4553 -0.0568
 5133TIP3    H115405   3.202   2.223   2.582  0.4465 -0.1967 -0.4262
 5133TIP3    H215406   3.310   2.310   2.642  1.0475 -0.6178 -0.8793
 5134TIP3   OH215407   3.373   5.348   1.975 -0.3188 -0.2449  0.1183
 5134TIP3    H115408   3.370   5.326   1.882 -1.2789 -0.9781  0.3021
 5134TIP3    H215409   3.359   5.265   2.020  0.5419  0.0349  0.9382
 5135TIP3   OH215410   4.497   3.209   2.226 -0.2433 -0.3113  0.3455
 5135TIP3    H115411   4.453   3.227   2.143 -0.1969  0.2281  0.4315
 5135TIP3    H215412   4.554   3.135   2.207 -0.3207 -0.2691 -0.0738
 5136TIP3   OH215413   1.086   4.048   3.299 -0.2350  0.1421  0.4252
 5136TIP3    H115414   1.120   4.108   3.365  1.8545 -1.5963  1.0234
 5136TIP3    H215415   1.118   3.962   3.326 -1.1962 -0.9350 -1.6631
 5137TIP3   OH215416   3.268   5.091   3.932 -0.3204 -0.7969 -0.0551
 5137TIP3    H115417   3.342   5.099   3.872 -1.1799  1.0864 -0.9490
 5137TIP3    H215418   3.247   5.181   3.957 -1.5106 -1.3807  1.1662
 5138TIP3   OH215419   6.212   3.666   1.997 -0.3208  0.5032  0.4633
 5138TIP3    H115420   6.287   3.616   2.030 -1.1010 -1.6337 -0.8166
 5138TIP3    H215421   6.225   3.754   2.032  1.5672 -0.3635  2.1459
 5139TIP3   OH215422   3.101   5.684   3.935 -0.1223  0.5151 -0.1885
 5139TIP3    H115423   3.068   5.771   3.912 -0.2229  0.3431 -0.7294
 5139TIP3    H215424   3.095   5.634   3.853  1.5425  0.4910 -0.3146
 5140TIP3   OH215425   0.990   3.578   4.819  0.7172  0.3493 -0.0059
 5140TIP3    H115426   1.038   3.644   4.770 -0.6046  1.7741  0.5168
 5140TIP3    H215427   0.900   3.610   4.820  0.2118 -0.9961  1.0720
 5141TIP3   OH215428   4.016   0.589   4.270 -0.2312 -0.1254 -0.3112
 5141TIP3    H115429   3.928   0.624   4.252 -0.0799  0.4826  0.0985
 5141TIP3    H215430   4.073   0.638   4.211 -0.3358 -1.6089 -1.7138
 5142TIP3   OH215431   0.106   1.373   1.364 -0.4161 -0.2283 -0.0099
 5142TIP3    H115432   0.050   1.451   1.373 -1.2319 -0.8338  0.2168
 5142TIP3    H215433   0.103   1.352   1.271  0.0600  0.1840 -0.1266
 5143TIP3   OH215434   4.031   5.291   2.729 -0.1534 -0.0953  0.1579
 5143TIP3    H115435   4.119   5.258   2.746  0.0039  0.9888  1.6911
 5143TIP3    H215436   3.972   5.219   2.754  0.2859 -0.9699 -1.2617
 5144TIP3   OH215437   5.626   1.728   3.146  0.0190 -0.3051 -0.2257
 5144TIP3    H115438   5.654   1.762   3.231 -2.4934  0.1734  0.4896
 5144TIP3    H215439   5.623   1.806   3.089 -2.4148  0.1945  0.4786
 5145TIP3   OH215440   3.220   0.213   1.449  0.2485  0.0043  0.7119
 5145TIP3    H115441   3.130   0.189   1.424  0.2438  1.7555 -1.2030
 5145TIP3    H215442   3.275   0.149   1.403  0.0290 -0.2504  0.7984
 5146TIP3   OH215443   2.277   3.099   2.004 -0.3548  0.4754  0.5222
 5146TIP3    H115444   2.290   3.014   1.963 -0.0620  0.2094  1.1470
 5146TIP3    H215445   2.348   3.153   1.970 -1.0013  0.7201 -0.4921
 5147TIP3   OH215446   5.091   2.649   3.637 -0.3497 -0.3488 -0.1051
 5147TIP3    H115447   5.058   2.698   3.561 -0.5816 -0.7728 -0.2813
 5147TIP3    H215448   5.186   2.641   3.621  0.0108  1.5700  0.7995
 5148TIP3   OH215449   2.214   1.083   1.705  0.2475 -0.3210  0.0576
 5148TIP3    H115450   2.277   1.114   1.770  0.7488 -2.0571  0.4599
 5148TIP3    H215451   2.129   1.109   1.740  0.6064  0.0840  0.6524
 5149TIP3   OH215452   1.386   0.426   3.973 -0.0205 -0.1181  0.4918
 5149TIP3    H115453   1.453   0.358   3.986 -0.8500 -0.7988  1.3929
 5149TIP3    H215454   1.418   0.478   3.899  1.0806 -0.9422  0.3641
 5150TIP3   OH215455   3.807   3.871   1.693  0.8111  0.1261  0.1245
 5150TIP3    H115456   3.777   3.906   1.609  1.0307 -1.8077 -0.8070
 5150TIP3    H215457   3.898   3.846   1.677  1.2665  0.9441  1.3428
 5151TIP3   OH215458   5.338   2.225   1.758  0.4392 -0.6552  0.0098
 5151TIP3    H115459   5.261   2.177   1.789  0.8945 -0.5555  1.3567
 5151TIP3    H215460   5.413   2.174   1.791  0.9417 -0.1514 -0.3330
 5152TIP3   OH215461   1.756   5.039   4.670  0.2901 -1.1833 -0.1825
 5152TIP3    H115462   1.823   4.976   4.695 -0.9582 -2.0156  1.2323
 5152TIP3    H215463   1.675   5.005   4.708 -1.0463 -0.4377 -2.1614
 5153TIP3   OH215464   3.187   1.191   4.678 -0.0315 -0.6689  0.0413
 5153TIP3    H115465   3.247   1.206   4.605 -1.3872 -0.0118 -1.0040
 5153TIP3    H215466   3.240   1.148   4.745  0.8663 -3.0395 -2.0205
 5154TIP3   OH215467   4.157   3.400   0.812 -0.0502  0.2134 -0.2827
 5154TIP3    H115468   4.245   3.386   0.848 -0.2393  0.6292  0.3591
 5154TIP3    H215469   4.129   3.484   0.850 -1.8378 -1.2272  1.7675
 5155TIP3   OH215470   4.136   1.130   2.727  0.3717 -0.3899  0.1677
 5155TIP3    H115471   4.220   1.086   2.739  0.6489  0.0671 -0.0559
 5155TIP3    H215472   4.153   1.195   2.658 -0.6062 -1.4905 -1.1665
 5156TIP3   OH215473   2.034   1.468   2.616  0.0751 -0.6419  0.0687
 5156TIP3    H115474   2.062   1.513   2.696 -1.7692  0.0115  0.3949
 5156TIP3    H215475   2.106   1.409   2.596  1.1873  0.1723  1.4364
 5157TIP3   OH215476   5.705   5.366   2.059  0.3589 -0.5931 -0.4300
 5157TIP3    H115477   5.706   5.281   2.016  1.9913 -0.1843 -1.2905
 5157TIP3    H215478   5.664   5.349   2.144  1.4015 -2.4189 -0.2336
 5158TIP3   OH215479   1.279   5.951   4.491  0.6006  0.1537  0.1952
 5158TIP3    H115480   1.247   5.870   4.532 -0.1277  0.7106  0.7497
 5158TIP3    H215481   1.258   5.940   4.399 -1.2910  0.5099  0.5362
 5159TIP3   OH215482   5.329   3.379   0.480  0.2615 -0.6997 -0.5977
 5159TIP3    H115483   5.292   3.443   0.419  0.6549  0.6149  0.4738
 5159TIP3    H215484   5.264   3.309   0.484 -0.7199  0.1546 -0.9976
 5160TIP3   OH215485   4.608   2.281   0.335 -0.6169  0.4996 -0.0049
 5160TIP3    H115486   4.538   2.276   0.269  0.1925  0.8430 -0.9090
 5160TIP3    H215487   4.623   2.190   0.360 -2.5059  0.5201  1.4465
 5161TIP3   OH215488   2.849   0.941   2.564 -0.0448  0.3848  0.1527
 5161TIP3    H115489   2.783   0.898   2.619 -1.4874  0.7927 -1.1953
 5161TIP3    H215490   2.902   0.991   2.626 -3.2891  3.0648  1.0495
 5162TIP3   OH215491  -0.017   4.713   3.657 -0.1869 -0.0362  0.3754
 5162TIP3    H115492   0.020   4.728   3.743  1.0243 -0.1407 -0.1096
 5162TIP3    H215493   0.011   4.788   3.605  1.2711 -1.1675 -0.5893
 5163TIP3   OH215494   3.428   1.898   1.190  0.4990 -0.0969  0.1648
 5163TIP3    H115495   3.492   1.929   1.126  2.6017 -0.7844  1.8317
 5163TIP3    H215496   3.454   1.807   1.208 -0.2798 -0.0548  1.6868
 5164TIP3   OH215497   4.050   0.361   4.989 -0.1172 -0.4169 -0.4151
 5164TIP3    H115498   4.074   0.301   5.059 -0.8449  0.3310  0.4988
 5164TIP3    H215499   3.955   0.357   4.984 -0.4114  2.1858  1.1557
 5165TIP3   OH215500   1.134   5.997   1.047  0.2854 -0.5107  0.1762
 5165TIP3    H115501   1.072   6.006   0.974 -0.1717  1.0589  0.7310
 5165TIP3    H215502   1.195   5.930   1.017 -1.1395 -1.4539 -0.7623
 5166TIP3   OH215503   3.571   4.184   0.193  0.2897  0.3024  0.0258
 5166TIP3    H115504   3.493   4.143   0.154  0.3134 -0.0440  0.3314
 5166TIP3    H215505   3.576   4.146   0.281  1.3409 -0.3966 -0.3160
 5167TIP3   OH215506   0.809   3.178   1.745  0.1594 -0.2188 -0.1291
 5167TIP3    H115507   0.857   3.171   1.828  0.1194  0.0245 -0.0856
 5167TIP3    H215508   0.797   3.087   1.717  2.9300 -0.2839 -1.4533
 5168TIP3   OH215509   1.121   5.487   0.458 -0.2241  0.4663  0.2840
 5168TIP3    H115510   1.134   5.429   0.533 -0.8282  0.3558  0.3074
 5168TIP3    H215511   1.170   5.566   0.480  0.6175 -0.0304  0.2469
 5169TIP3   OH215512   3.867   1.921   4.370  0.3106  0.0667  0.2497
 5169TIP3    H115513   3.880   1.886   4.282 -0.6352 -1.7688  0.8060
 5169TIP3    H215514   3.953   1.916   4.411 -0.1307 -3.8350  1.0386
 5170TIP3   OH215515   4.248   1.224   0.377  0.3823 -0.1451  0.2277
 5170TIP3    H115516   4.206   1.235   0.292  1.5947 -0.3677 -0.4159
 5170TIP3    H215517   4.198   1.155   0.420 -2.1011  1.9140  0.9405
 5171TIP3   OH215518   5.038   1.616   2.296 -0.2107  0.5840  0.5153
 5171TIP3    H115519   5.108   1.674   2.326 -0.9662  0.9371  1.7079
 5171TIP3    H215520   5.083   1.542   2.257  0.7929  1.7632 -0.6787
 5172TIP3   OH215521   4.208   3.311   4.438 -0.1628 -0.6183 -0.2239
 5172TIP3    H115522   4.297   3.288   4.410 -0.3863  0.2417 -1.7949
 5172TIP3    H215523   4.155   3.236   4.412 -0.1048 -0.5279 -0.6206
 5173TIP3   OH215524   4.990   3.970   0.306  0.2091 -0.1505 -0.1274
 5173TIP3    H115525   5.056   4.032   0.274  0.8573  0.6060  2.4390
 5173TIP3    H215526   4.943   3.943   0.227  0.1302  3.3098 -1.4425
 5174TIP3   OH215527   3.788   0.996   2.377  0.1958 -0.2453  0.3525
 5174TIP3    H115528   3.863   1.001   2.317  0.6461  2.3157  1.0326
 5174TIP3    H215529   3.826   0.967   2.460 -0.1283 -1.9187 -0.0330
 5175TIP3   OH215530   0.889   5.699   2.291 -0.3813 -0.3914  0.1300
 5175TIP3    H115531   0.951   5.649   2.345 -1.3072 -0.9718  0.6899
 5175TIP3    H215532   0.903   5.666   2.202  0.0945 -0.5278  0.2498
 5176TIP3   OH215533   0.223   0.096   1.427 -0.2875  0.7294  0.0267
 5176TIP3    H115534   0.281   0.039   1.478  0.0426  0.5997 -0.4866
 5176TIP3    H215535   0.236   0.183   1.465 -0.8325  0.4640  0.8499
 5177TIP3   OH215536   5.205   4.909   1.373  0.2600 -0.2101  0.5579
 5177TIP3    H115537   5.124   4.947   1.408 -0.4946  0.3451 -1.6049
 5177TIP3    H215538   5.250   4.872   1.449 -2.2433 -0.9298  1.7903
 5178TIP3   OH215539   2.666   5.939   2.210 -0.0651  0.0875 -0.0286
 5178TIP3    H115540   2.636   5.904   2.126 -0.7144 -1.1826  0.6946
 5178TIP3    H215541   2.744   5.888   2.231  1.1877  1.6425 -0.6834
 5179TIP3   OH215542   3.342   1.159   1.392 -0.2455 -0.2620  0.5986
 5179TIP3    H115543   3.389   1.171   1.475  0.0380 -0.5501  0.4840
 5179TIP3    H215544   3.359   1.068   1.368  2.1561  0.5486 -1.2466
 5180TIP3   OH215545   6.261   4.578   1.346 -0.6551 -0.1917 -0.1550
 5180TIP3    H115546   6.309   4.594   1.265  0.6084 -0.6729  0.4677
 5180TIP3    H215547   6.180   4.534   1.318 -1.6258  2.2016 -1.3808
 5181TIP3   OH215548   3.732   5.611   2.188  0.2044  0.1587 -0.2164
 5181TIP3    H115549   3.643   5.594   2.220  0.1941 -0.1701 -0.4160
 5181TIP3    H215550   3.734   5.574   2.100 -0.3000  2.6022 -1.3234
 5182TIP3   OH215551   3.188   3.458   4.122  0.3229 -0.1432  0.1877
 5182TIP3    H115552   3.117   3.413   4.166  0.2131 -1.2227 -1.0583
 5182TIP3    H215553   3.198   3.414   4.038  0.8719  1.5130 -0.6807
 5183TIP3   OH215554   2.393   3.169   3.958 -1.1679 -0.1756  0.7572
 5183TIP3    H115555   2.376   3.076   3.967  1.4077 -0.5732  2.8504
 5183TIP3    H215556   2.320   3.212   4.003 -1.7311 -1.2617  0.8922
 5184TIP3   OH215557   2.688   2.597   2.229 -0.1086  0.3263 -0.0620
 5184TIP3    H115558   2.739   2.665   2.275 -0.9734  0.6432  0.4620
 5184TIP3    H215559   2.609   2.643   2.200  0.2200  0.0133 -1.4969
 5185TIP3   OH215560   6.156   1.596   3.108 -0.6576 -0.1801 -0.1944
 5185TIP3    H115561   6.147   1.500   3.110 -1.2445 -0.1221 -0.0222
 5185TIP3    H215562   6.079   1.629   3.153  0.8849  0.3123  2.3073
 5186TIP3   OH215563   3.946   2.236   1.768  0.2568  0.6924 -0.0093
 5186TIP3    H115564   3.887   2.162   1.785  1.7543 -0.7604 -0.8174
 5186TIP3    H215565   3.888   2.312   1.765 -1.5284 -0.5947 -0.3403
 5187TIP3   OH215566   5.861   5.423   3.669  0.4163 -0.5432  0.4751
 5187TIP3    H115567   5.772   5.394   3.692  0.1991  0.3672  0.8605
 5187TIP3    H215568   5.850   5.515   3.647  1.2224 -0.5170  0.1772
 5188TIP3   OH215569   4.147   4.812   4.984 -0.0816  0.0408  0.4948
 5188TIP3    H115570   4.195   4.787   4.905 -1.1760 -0.7037  0.0436
 5188TIP3    H215571   4.192   4.766   5.055 -0.5096 -1.1953 -0.0054
 5189TIP3   OH215572   4.756   1.073   4.134  0.0327  0.0925  0.0738
 5189TIP3    H115573   4.709   1.124   4.068 -1.5425 -0.0146  1.0702
 5189TIP3    H215574   4.846   1.071   4.102 -0.3984  1.2320 -1.3466
 5190TIP3   OH215575   1.431   1.533   0.691  0.4550  0.4112  0.5043
 5190TIP3    H115576   1.441   1.604   0.629 -0.2859  1.1558  1.2145
 5190TIP3    H215577   1.348   1.551   0.736  2.2473  1.4956  3.7078
 5191TIP3   OH215578   5.678   1.986   2.070  0.0875 -0.2569 -0.6906
 5191TIP3    H115579   5.773   2.002   2.070  0.3995 -1.8448  1.1227
 5191TIP3    H215580   5.640   2.072   2.092  1.2035  0.0176  0.2649
 5192TIP3   OH215581   1.051   2.494   3.961 -0.2347 -0.2901  0.0854
 5192TIP3    H115582   1.065   2.457   3.874  1.0405  0.3635 -0.0164
 5192TIP3    H215583   0.962   2.529   3.958  0.2981  1.0906 -1.5058
 5193TIP3   OH215584   5.428   0.614   2.914 -0.3650  0.3410  0.2480
 5193TIP3    H115585   5.358   0.570   2.961  0.4783  0.4419  1.6316
 5193TIP3    H215586   5.503   0.612   2.973  0.4790  1.2432 -0.7378
 5194TIP3   OH215587   1.021   5.012   1.988  0.3828  0.3646 -0.7277
 5194TIP3    H115588   1.007   5.071   1.914 -0.6964  1.0556 -0.0082
 5194TIP3    H215589   0.951   5.034   2.050  1.0606 -0.4106  0.3572
 5195TIP3   OH215590   1.811   3.434   3.064 -0.2549 -0.4342 -0.1602
 5195TIP3    H115591   1.872   3.500   3.031  0.0635 -0.1099  1.0095
 5195TIP3    H215592   1.750   3.484   3.119  0.1444 -1.1219  0.9505
 5196TIP3   OH215593   4.870   5.874   2.521 -0.3860  0.0571  0.4335
 5196TIP3    H115594   4.818   5.822   2.460  0.6541 -0.9851  0.3947
 5196TIP3    H215595   4.958   5.838   2.514 -0.3814 -0.6881  3.1818
 5197TIP3   OH215596   6.305   1.593   5.142  0.3104 -0.3387 -0.0990
 5197TIP3    H115597   6.395   1.565   5.160  0.3044  0.7316  1.8599
 5197TIP3    H215598   6.250   1.527   5.184  0.2253  0.2447  0.7141
 5198TIP3   OH215599   5.052   4.281   0.462 -0.1911  0.1983 -0.8511
 5198TIP3    H115600   5.014   4.297   0.548  1.0026  0.4535 -0.3388
 5198TIP3    H215601   5.136   4.327   0.464  0.5388 -1.0350 -1.6065
 5199TIP3   OH215602   1.209   5.344   3.567  0.0203 -0.2259 -0.2363
 5199TIP3    H115603   1.161   5.413   3.614 -2.1146 -2.0104  0.4152
 5199TIP3    H215604   1.258   5.299   3.636  3.2032  1.8699 -0.9641
 5200TIP3   OH215605   4.756   2.671   4.475  0.0501 -0.4066 -0.4010
 5200TIP3    H115606   4.712   2.686   4.559 -1.0001  0.3897 -1.0694
 5200TIP3    H215607   4.822   2.605   4.495 -0.9216 -1.0752  0.8180
 5201TIP3   OH215608   0.957   0.956   0.720 -0.1064  0.3382  0.4892
 5201TIP3    H115609   0.982   1.035   0.672 -0.6594  0.4562  0.3789
 5201TIP3    H215610   1.039   0.920   0.753  0.2818  0.2296 -0.5790
 5202TIP3   OH215611   3.923   2.362   0.392 -0.2701  0.2218  0.3551
 5202TIP3    H115612   3.847   2.304   0.396 -0.9679  1.0609 -0.1072
 5202TIP3    H215613   3.886   2.447   0.365  0.8547  0.6140 -0.0111
 5203TIP3   OH215614   1.700   5.635   2.712  0.4153 -0.1538  0.3671
 5203TIP3    H115615   1.713   5.590   2.629 -0.7146  1.3560 -0.6665
 5203TIP3    H215616   1.623   5.593   2.750  0.0841  0.0938 -0.0260
 5204TIP3   OH215617   5.530   1.406   1.994  0.3424 -0.6067  0.4557
 5204TIP3    H115618   5.554   1.419   1.902 -0.1054  1.6275  0.6110
 5204TIP3    H215619   5.466   1.334   1.991 -1.5677  1.0132 -1.3435
 5205TIP3   OH215620   3.035   5.501   2.223  0.7177  0.1696 -0.2629
 5205TIP3    H115621   3.119   5.498   2.178  0.1259 -0.1618 -1.3786
 5205TIP3    H215622   2.980   5.438   2.176  0.3189 -0.8139  1.4381
 5206TIP3   OH215623   3.758   0.883   0.598  1.0001 -0.0452  0.3275
 5206TIP3    H115624   3.824   0.815   0.609  0.4519 -0.7730 -0.6764
 5206TIP3    H215625   3.678   0.845   0.636  0.9844  0.5291  0.8716
 5207TIP3   OH215626   4.955   1.275   1.927  0.0803 -0.1562 -0.7046
 5207TIP3    H115627   5.021   1.343   1.938  0.5383 -0.2578 -2.5446
 5207TIP3    H215628   4.881   1.318   1.885 -0.1755 -0.4901 -0.6058
 5208TIP3   OH215629   5.214   5.226   1.498  0.8992  0.1584 -0.2109
 5208TIP3    H115630   5.258   5.277   1.565 -0.3092  2.3908 -0.9879
 5208TIP3    H215631   5.281   5.210   1.431  1.2428  0.9764 -0.0667
 5209TIP3   OH215632   0.025   0.142   3.866  0.6565 -0.0423 -0.0939
 5209TIP3    H115633  -0.020   0.218   3.829 -0.7561 -0.4077  0.7976
 5209TIP3    H215634   0.021   0.075   3.798 -0.4650 -0.1740  0.0902
 5210TIP3   OH215635   0.225   0.380   1.932 -0.1779  0.2034 -0.0376
 5210TIP3    H115636   0.285   0.450   1.908  0.2659 -0.5895 -1.3574
 5210TIP3    H215637   0.199   0.400   2.022  0.6467  1.5467 -0.0754
 5211TIP3   OH215638   3.470   1.645   3.672  0.0479 -0.7263 -0.8432
 5211TIP3    H115639   3.564   1.633   3.656 -0.1928 -1.5469 -1.7374
 5211TIP3    H215640   3.449   1.727   3.627  0.8474  0.9957  1.6843
 5212TIP3   OH215641   0.404   2.448   3.197  0.0011 -0.5751 -0.3857
 5212TIP3    H115642   0.350   2.401   3.261 -0.0645 -1.2141 -0.8933
 5212TIP3    H215643   0.343   2.507   3.153 -0.0965 -0.6394 -0.3369
 5213TIP3   OH215644   4.898   4.865   1.453 -0.3584  0.1823 -0.3526
 5213TIP3    H115645   4.908   4.773   1.429  1.2943  0.5517 -1.1948
 5213TIP3    H215646   4.837   4.900   1.388  1.3710  0.3589 -1.9441
 5214TIP3   OH215647   2.167   1.109   0.445  0.8397  0.5106  0.2780
 5214TIP3    H115648   2.083   1.064   0.452  0.9615  0.1006 -0.7559
 5214TIP3    H215649   2.232   1.042   0.466  0.9896  0.3541 -0.6565
 5215TIP3   OH215650   1.330   0.331   4.561 -0.0021 -0.6152  0.1664
 5215TIP3    H115651   1.423   0.344   4.541  0.5115  0.8488  2.9876
 5215TIP3    H215652   1.284   0.377   4.491  1.4165 -0.5143 -0.7520
 5216TIP3   OH215653   0.053   5.291   1.281  0.4083  0.3857  0.4702
 5216TIP3    H115654   0.032   5.249   1.365  1.0417 -0.1239  0.3816
 5216TIP3    H215655   0.117   5.359   1.303 -0.3078  1.0493  0.5554
 5217TIP3   OH215656   3.707   0.693   3.001 -0.1903 -0.0341 -0.3556
 5217TIP3    H115657   3.723   0.688   2.907 -2.2833 -2.8588 -0.6909
 5217TIP3    H215658   3.786   0.656   3.041 -0.5445 -1.8541 -1.2418
 5218TIP3   OH215659   1.390   5.483   0.550  0.0848 -0.6233 -0.0532
 5218TIP3    H115660   1.362   5.410   0.494 -1.4803 -0.6435  0.6906
 5218TIP3    H215661   1.454   5.531   0.497  0.5727 -2.0880 -0.8527
 5219TIP3   OH215662   1.977   0.405   2.246  0.1391 -0.2097 -0.3190
 5219TIP3    H115663   2.024   0.322   2.260 -1.8503 -1.4559 -0.6079
 5219TIP3    H215664   1.894   0.379   2.206 -0.4561  1.9738 -0.6388
 5220TIP3   OH215665   4.404   3.361   4.037 -0.1092 -0.0381  0.7080
 5220TIP3    H115666   4.414   3.440   4.089  0.3694  0.6824 -0.4387
 5220TIP3    H215667   4.393   3.291   4.102 -1.2232  1.0315  1.7302
 5221TIP3   OH215668   1.119   1.250   0.777 -0.7192  0.8426  0.4923
 5221TIP3    H115669   1.047   1.206   0.822 -0.4110 -0.0551  0.1316
 5221TIP3    H215670   1.137   1.327   0.831  0.6854 -0.9855  2.8200
 5222TIP3   OH215671   3.719   2.267   5.177 -0.1286  0.5865 -0.0312
 5222TIP3    H115672   3.721   2.359   5.151 -1.1634  0.2343 -1.4549
 5222TIP3    H215673   3.723   2.218   5.095 -1.1177 -0.6045  0.5909
 5223TIP3   OH215674   5.336   0.316   0.288 -0.6340  0.2294 -0.3385
 5223TIP3    H115675   5.304   0.297   0.376  1.3966  0.5311  0.5232
 5223TIP3    H215676   5.295   0.249   0.233 -1.9546  0.0435  0.8091
 5224TIP3   OH215677   2.423   0.210   2.024  0.1894  0.3856  0.2504
 5224TIP3    H115678   2.438   0.252   2.109 -2.3442 -0.4305  1.1776
 5224TIP3    H215679   2.335   0.236   1.999 -0.4629 -2.1821 -0.4105
 5225TIP3   OH215680   4.980   1.028   2.162 -0.0430  0.3156 -0.2643
 5225TIP3    H115681   5.043   1.026   2.090 -1.1568  0.1907 -1.2645
 5225TIP3    H215682   5.001   0.950   2.214 -0.6359 -0.8598 -1.7176
 5226TIP3   OH215683   2.006   5.502   2.390 -0.4306  0.5268 -0.0061
 5226TIP3    H115684   1.998   5.594   2.366 -1.4390  0.2756 -0.7135
 5226TIP3    H215685   1.926   5.483   2.439 -0.7039 -0.2098 -0.7178
 5227TIP3   OH215686   3.843   5.860   1.537 -0.8258 -0.4914 -0.2563
 5227TIP3    H115687   3.854   5.886   1.446  1.3111  2.4498  0.6779
 5227TIP3    H215688   3.893   5.925   1.587 -1.9107 -1.9498  3.0384
 5228TIP3   OH215689   5.532   3.540   1.260 -0.1766  0.1895  0.2440
 5228TIP3    H115690   5.469   3.606   1.289 -1.7123 -0.6159 -1.0926
 5228TIP3    H215691   5.606   3.591   1.227 -1.5367  1.3134 -1.2300
 5229TIP3   OH215692   6.076   3.707   0.458  0.5454  0.1955  0.0708
 5229TIP3    H115693   6.040   3.718   0.546  0.6014  0.0481  0.1124
 5229TIP3    H215694   6.170   3.694   0.472  0.2551 -2.1393  0.1618
 5230TIP3   OH215695   0.708   5.173   0.258 -0.2368  0.4145 -0.0533
 5230TIP3    H115696   0.631   5.229   0.252 -0.7238  0.0610  1.9788
 5230TIP3    H215697   0.725   5.144   0.168 -1.5845  1.6624 -0.7351
 5231TIP3   OH215698   1.889   1.398   4.720 -0.2556 -0.0017 -0.1229
 5231TIP3    H115699   1.937   1.410   4.802  0.0610  1.7455 -0.5224
 5231TIP3    H215700   1.834   1.322   4.735  1.1488 -0.8319  1.0610
 5232TIP3   OH215701   5.444   0.255   1.369 -0.3516  0.3946 -0.5916
 5232TIP3    H115702   5.359   0.293   1.348 -0.4637  0.8068  0.5040
 5232TIP3    H215703   5.465   0.290   1.456  1.2358  0.8152 -1.0978
 5233TIP3   OH215704   0.419   2.236   2.869  0.5532  0.1131 -0.5700
 5233TIP3    H115705   0.453   2.311   2.917  0.0629 -0.1510  0.2196
 5233TIP3    H215706   0.434   2.257   2.777 -0.5641  1.6978 -0.4393
 5234TIP3   OH215707   1.367   5.525   0.848  0.2039 -0.0729 -0.3593
 5234TIP3    H115708   1.354   5.524   0.754 -0.3230  2.1788 -0.3720
 5234TIP3    H215709   1.455   5.562   0.860  0.2684 -0.3413  0.0388
 5235TIP3   OH215710   3.854   1.382   3.204 -0.1292  0.1196  0.2519
 5235TIP3    H115711   3.897   1.421   3.128  0.5622 -1.4093 -0.1656
 5235TIP3    H215712   3.820   1.298   3.172  2.0203 -1.5742  2.0677
 5236TIP3   OH215713   0.988   0.624   0.792  0.4552 -0.2791 -0.3413
 5236TIP3    H115714   0.914   0.613   0.851  0.9391 -1.8762  0.0123
 5236TIP3    H215715   1.065   0.604   0.845  0.8874 -1.9257 -1.5233
 5237TIP3   OH215716   3.714   0.820   0.047  0.0227  0.5833  0.2430
 5237TIP3    H115717   3.624   0.790   0.059  0.2408 -0.7395 -1.0343
 5237TIP3    H215718   3.762   0.742   0.019  1.6607  1.1781  1.2557
 5238TIP3   OH215719   4.341   2.419   4.311  0.4724 -0.0330 -0.4271
 5238TIP3    H115720   4.377   2.468   4.384  0.3578  2.8041 -2.1100
 5238TIP3    H215721   4.256   2.460   4.294  1.0611  0.3326 -2.9314
 5239TIP3   OH215722   4.266   3.853   4.517 -0.5631 -0.1688 -0.1357
 5239TIP3    H115723   4.314   3.926   4.478 -1.0961  0.3367  0.1477
 5239TIP3    H215724   4.328   3.779   4.513  0.5478  0.6487  0.9247
 5240TIP3   OH215725   0.687   2.089   3.126  0.5648 -0.0169  0.3916
 5240TIP3    H115726   0.757   2.129   3.074  0.7124 -1.3946 -0.4985
 5240TIP3    H215727   0.612   2.084   3.066  0.8137 -1.8544  0.1829
 5241TIP3   OH215728   3.965   0.100   1.853  0.1218  1.0734 -0.2441
 5241TIP3    H115729   3.922   0.023   1.818  0.3089  0.6447  0.4388
 5241TIP3    H215730   3.902   0.172   1.839 -0.0217  0.8172 -0.9410
 5242TIP3   OH215731   0.779   5.799   2.891 -0.3030 -0.0650 -0.5699
 5242TIP3    H115732   0.807   5.837   2.808 -1.4168  0.8229 -0.5627
 5242TIP3    H215733   0.857   5.805   2.947  0.5232 -0.8718 -1.5895
 5243TIP3   OH215734   6.028   5.089   4.349 -0.1556  0.6903  0.6863
 5243TIP3    H115735   6.115   5.053   4.333  0.1464  1.6310  0.1189
 5243TIP3    H215736   6.016   5.081   4.444  1.0677  1.6577  0.9497
 5244TIP3   OH215737   1.487   2.250   3.671 -0.0468 -0.1929  0.1730
 5244TIP3    H115738   1.538   2.327   3.647  0.1550 -0.2116  0.5198
 5244TIP3    H215739   1.409   2.285   3.714  1.2919 -0.1577  2.8445
 5245TIP3   OH215740   0.694   3.568   1.474 -0.2388 -0.0110  0.7676
 5245TIP3    H115741   0.681   3.530   1.561  0.2007  1.5845  1.5670
 5245TIP3    H215742   0.607   3.568   1.434 -0.6035  0.0006  1.5443
 5246TIP3   OH215743   1.314   3.829   2.905  0.1599  0.2142  0.3576
 5246TIP3    H115744   1.218   3.824   2.898  0.2105 -1.0993  0.2241
 5246TIP3    H215745   1.332   3.799   2.994  0.4605  0.0048  0.2291
 5247TIP3   OH215746   4.995   5.205   4.789 -0.2132 -0.4107 -0.9006
 5247TIP3    H115747   4.985   5.296   4.763 -0.0645 -0.7805 -2.3638
 5247TIP3    H215748   5.064   5.206   4.856  0.1722  0.4779 -1.2952
 5248TIP3   OH215749   6.286   2.707   1.442 -0.1128 -0.3281 -0.4713
 5248TIP3    H115750   6.263   2.799   1.432  1.5086  0.3240  1.2302
 5248TIP3    H215751   6.206   2.660   1.419 -0.8757  1.4649 -1.7049
 5249TIP3   OH215752   6.163   0.378   0.360 -0.0274  0.4099 -0.0278
 5249TIP3    H115753   6.136   0.322   0.288  0.2694 -1.0946  0.9751
 5249TIP3    H215754   6.097   0.364   0.428 -1.7122  3.6762 -0.7879
 5250TIP3   OH215755   4.509   2.310   4.619 -0.0907 -0.2427  0.2709
 5250TIP3    H115756   4.434   2.252   4.608  0.6111 -1.5744  1.9597
 5250TIP3    H215757   4.477   2.397   4.595 -2.0389 -0.8541  0.5198
 5251TIP3   OH215758   3.483   4.750   1.836 -0.5123 -0.3986  0.4215
 5251TIP3    H115759   3.438   4.807   1.774 -0.3946 -0.0270  0.6730
 5251TIP3    H215760   3.485   4.665   1.793 -2.6475 -0.7889  0.9424
 5252TIP3   OH215761   1.571   3.676   1.265  0.3023 -0.3817  0.0993
 5252TIP3    H115762   1.652   3.728   1.259 -0.6337  1.1738  0.4166
 5252TIP3    H215763   1.518   3.721   1.331 -0.6608 -1.6203  0.2031
 5253TIP3   OH215764   1.433   4.198   2.101  0.6799  0.4577 -0.3354
 5253TIP3    H115765   1.359   4.221   2.045  2.3027  1.3479 -2.2451
 5253TIP3    H215766   1.418   4.106   2.124 -2.2420  1.2732  1.4489
 5254TIP3   OH215767   3.485   3.209   1.486  0.0829  0.2488  0.0234
 5254TIP3    H115768   3.496   3.172   1.398 -1.2762 -0.5359  0.1642
 5254TIP3    H215769   3.575   3.220   1.518  0.6162  0.6915 -1.5036
 5255TIP3   OH215770   5.598   2.692   4.399 -0.8115  0.1842 -0.0022
 5255TIP3    H115771   5.526   2.716   4.458  0.1814  1.6184  0.6578
 5255TIP3    H215772   5.620   2.772   4.352  0.8131 -0.0369  0.3099
 5256TIP3   OH215773   5.222   0.961   4.829  0.5158 -0.3800 -0.4008
 5256TIP3    H115774   5.168   1.037   4.852 -0.9762 -0.7547 -2.3642
 5256TIP3    H215775   5.311   0.996   4.822 -0.0379  1.0805 -0.6647
 5257TIP3   OH215776   3.895   2.516   0.917  0.1335  0.3093  0.6113
 5257TIP3    H115777   3.877   2.425   0.940 -0.7019 -0.1749 -1.7404
 5257TIP3    H215778   3.955   2.511   0.843 -0.6304  1.6436 -0.1406
 5258TIP3   OH215779   0.635   2.428   2.967  0.3847 -0.3425  0.3563
 5258TIP3    H115780   0.668   2.388   3.048  1.3037 -1.9801 -0.7654
 5258TIP3    H215781   0.707   2.418   2.905  0.4584  2.6568 -0.1951
 5259TIP3   OH215782   1.448   5.409   3.400 -0.0503 -0.1883 -0.6105
 5259TIP3    H115783   1.429   5.500   3.378  2.2794  0.7988  1.0473
 5259TIP3    H215784   1.368   5.378   3.443 -0.2312  1.7192  0.5388
 5260TIP3   OH215785   3.198   1.220   0.694 -0.0122 -0.0556 -0.6949
 5260TIP3    H115786   3.212   1.275   0.618 -0.7954 -1.0914 -1.6249
 5260TIP3    H215787   3.105   1.199   0.692 -0.4335  1.2969  1.5516
 5261TIP3   OH215788   0.474   2.280   2.590 -0.4052  0.3899  0.4595
 5261TIP3    H115789   0.551   2.285   2.534 -1.0264  2.3667 -0.3131
 5261TIP3    H215790   0.425   2.205   2.557 -0.1286  0.7591 -0.8584
 5262TIP3   OH215791   1.183   4.346   2.530  0.3638  0.0322 -0.5246
 5262TIP3    H115792   1.105   4.372   2.579  0.0857  1.5361 -1.6745
 5262TIP3    H215793   1.164   4.258   2.499 -1.5335  0.8796 -1.9782
 5263TIP3   OH215794   3.285   1.044   2.339 -0.1283 -0.1992 -0.2241
 5263TIP3    H115795   3.246   0.966   2.298 -0.9391 -0.0944  0.3243
 5263TIP3    H215796   3.285   1.109   2.268  0.7143 -0.7380 -0.7347
 5264TIP3   OH215797   3.442   3.255   0.911  0.4964 -0.1505 -0.1711
 5264TIP3    H115798   3.456   3.187   0.977 -1.6898  0.5403  1.1006
 5264TIP3    H215799   3.445   3.337   0.960 -2.3048  0.3288 -0.5961
 5265TIP3   OH215800   4.009   5.718   2.821 -0.1994  0.7837  0.5274
 5265TIP3    H115801   3.941   5.720   2.888 -1.2751 -0.6485 -0.4422
 5265TIP3    H215802   4.086   5.682   2.865 -0.0833  2.2736  1.6022
 5266TIP3   OH215803   5.018   4.680   1.768  0.3482 -0.3618 -0.0993
 5266TIP3    H115804   5.111   4.671   1.789  0.5167  0.1945 -0.5731
 5266TIP3    H215805   5.010   4.769   1.733 -0.3227 -0.4821 -0.2607
 5267TIP3   OH215806   4.007   1.083   0.446 -0.2458 -0.5785 -0.0616
 5267TIP3    H115807   3.942   1.146   0.476  1.3816  0.9905  0.3299
 5267TIP3    H215808   3.979   1.060   0.357 -0.3070  1.5747 -0.6468
 5268TIP3   OH215809   2.224   4.384   3.671 -0.1633  0.2132 -0.2091
 5268TIP3    H115810   2.204   4.294   3.697 -1.1296  0.0163 -1.5289
 5268TIP3    H215811   2.317   4.394   3.690 -0.1919 -0.8508  0.5754
 5269TIP3   OH215812   1.363   5.080   2.417  0.3704  0.0241  0.4818
 5269TIP3    H115813   1.321   5.110   2.336  1.3943  0.3832  0.0654
 5269TIP3    H215814   1.340   4.987   2.422 -1.2328  0.4042  0.7710
 5270TIP3   OH215815   1.004   4.335   2.179 -0.0803  0.2065  0.2468
 5270TIP3    H115816   1.002   4.318   2.273 -0.5877  1.2604  0.4502
 5270TIP3    H215817   0.969   4.424   2.171 -1.1146 -0.2897 -1.0286
 5271TIP3   OH215818   5.161   2.008   4.609 -0.5148 -0.1009 -0.6038
 5271TIP3    H115819   5.128   2.052   4.530  0.5013 -0.9693 -1.5402
 5271TIP3    H215820   5.256   2.012   4.601 -0.4018 -1.2729 -0.0244
 5272TIP3   OH215821   2.592   0.459   4.566  0.6756 -0.5067 -0.1418
 5272TIP3    H115822   2.682   0.444   4.595  1.1913  1.9204 -0.2760
 5272TIP3    H215823   2.599   0.526   4.498 -1.2138 -0.4362 -0.3233
 5273TIP3   OH215824   2.134   3.731   1.423  0.3389  0.4575 -0.1433
 5273TIP3    H115825   2.160   3.684   1.503  2.0076  0.7110 -0.5031
 5273TIP3    H215826   2.057   3.782   1.449  0.0190 -0.5129  0.9204
 5274TIP3   OH215827   3.071   0.408   0.646  0.2042  0.2183 -0.0650
 5274TIP3    H115828   3.121   0.366   0.576  1.8112  0.4446  0.9146
 5274TIP3    H215829   3.130   0.408   0.721 -0.9222  1.3902  0.8528
 5275TIP3   OH215830   1.617   1.587   3.114  0.4415 -0.1734  0.2036
 5275TIP3    H115831   1.568   1.614   3.191 -1.8995 -0.7116 -0.9981
 5275TIP3    H215832   1.618   1.492   3.118  1.0311 -0.1801 -0.0132
 5276TIP3   OH215833   2.274   4.181   3.963 -0.4524  1.1714 -0.0587
 5276TIP3    H115834   2.303   4.129   4.037  0.6704  1.5481 -0.2176
 5276TIP3    H215835   2.215   4.246   4.001 -1.6280  0.0051  0.1811
 5277TIP3   OH215836   4.435   5.703   2.177 -0.0794  0.3528 -0.0402
 5277TIP3    H115837   4.359   5.760   2.183 -0.9183 -0.6404 -1.0496
 5277TIP3    H215838   4.434   5.654   2.260 -0.3856  0.5143  0.0540
 5278TIP3   OH215839   3.994   5.482   5.081  0.2227  0.1036  0.2627
 5278TIP3    H115840   3.972   5.462   4.990  2.7324  1.9888 -0.8924
 5278TIP3    H215841   4.077   5.437   5.097  0.6438  1.1085  1.0428
 5279TIP3   OH215842   2.654   4.518   4.920  0.5041  0.1530 -0.1659
 5279TIP3    H115843   2.658   4.513   5.016  0.4021 -3.2073 -0.2361
 5279TIP3    H215844   2.588   4.586   4.903 -0.0344  0.3018  2.1488
 5280TIP3   OH215845   6.307   1.233   3.586  0.3744  0.3104  0.5939
 5280TIP3    H115846   6.218   1.255   3.613  0.7684  0.8064  1.5722
 5280TIP3    H215847   6.299   1.205   3.495 -0.6590  1.1756  0.3968
 5281TIP3   OH215848   3.280   2.749   4.050  0.2876 -0.4825  0.1580
 5281TIP3    H115849   3.316   2.728   4.136 -1.3963 -0.3089  0.9386
 5281TIP3    H215850   3.303   2.675   3.995  0.0961 -1.3003  1.1580
 5282TIP3   OH215851   1.547   1.038   1.918  0.3326 -0.2720 -0.1814
 5282TIP3    H115852   1.504   1.035   1.832  0.3700 -0.6252 -0.1915
 5282TIP3    H215853   1.476   1.029   1.981 -0.3012  4.1575  0.0443
 5283TIP3   OH215854   6.154   4.230   2.489 -0.3462 -0.0647  0.1308
 5283TIP3    H115855   6.107   4.301   2.445 -0.0261  0.3811  0.4830
 5283TIP3    H215856   6.245   4.242   2.462 -0.4226 -0.8830 -0.4989
 5284TIP3   OH215857   4.036   2.852   2.318 -0.0154 -0.5621 -0.2985
 5284TIP3    H115858   4.004   2.775   2.366  0.9764 -0.5332  0.4472
 5284TIP3    H215859   3.984   2.925   2.352 -0.6180 -0.8134 -0.6530
 5285TIP3   OH215860   0.381   1.229   1.928  0.2603 -0.2977  0.5983
 5285TIP3    H115861   0.405   1.266   2.014  1.7867  0.8194 -0.2454
 5285TIP3    H215862   0.419   1.142   1.928  0.9526 -0.0050  0.7782
 5286TIP3   OH215863   0.544   0.977   0.169  0.8174  0.5776  0.7017
 5286TIP3    H115864   0.511   0.966   0.258 -0.3610 -1.6950  0.0544
 5286TIP3    H215865   0.592   0.896   0.150  1.7909  1.3813 -0.4383
 5287TIP3   OH215866   0.326   5.558   3.159 -0.8713  0.0203 -0.4675
 5287TIP3    H115867   0.278   5.608   3.093 -2.4868  1.5828  1.7323
 5287TIP3    H215868   0.264   5.549   3.231  1.4510  0.2670  1.6929
 5288TIP3   OH215869   4.120   3.121   4.248 -0.2233  0.0948 -0.9970
 5288TIP3    H115870   4.205   3.122   4.204  0.3436  0.8765  0.0805
 5288TIP3    H215871   4.062   3.170   4.190  0.2134  0.0810 -1.4469
 5289TIP3   OH215872   2.855   1.446   3.143 -0.1232  0.7624  0.4815
 5289TIP3    H115873   2.854   1.536   3.176  2.4298  1.7475 -1.7413
 5289TIP3    H215874   2.930   1.405   3.186  1.1547  1.0161 -1.3641
 5290TIP3   OH215875   4.613   0.558   2.838 -0.3525 -0.2052 -0.5698
 5290TIP3    H115876   4.633   0.586   2.748  3.0533 -2.0486 -0.5758
 5290TIP3    H215877   4.654   0.625   2.894 -2.4553  0.9317 -0.2968
 5291TIP3   OH215878   1.479   4.664   2.164 -0.4444  0.3328 -0.2518
 5291TIP3    H115879   1.394   4.676   2.123  0.6685  0.8929 -2.6168
 5291TIP3    H215880   1.508   4.577   2.136  0.0269  0.3988  0.0017
 5292TIP3   OH215881   0.627   3.368   1.682  0.5261  0.0476 -0.0500
 5292TIP3    H115882   0.589   3.400   1.763 -0.5743  1.0546 -0.9213
 5292TIP3    H215883   0.709   3.326   1.708 -0.0739 -0.1405  1.6241
 5293TIP3   OH215884   0.195   2.144   0.806  0.6027 -0.0781 -0.2253
 5293TIP3    H115885   0.181   2.171   0.897  1.8199 -0.6258  0.1458
 5293TIP3    H215886   0.290   2.150   0.794  0.5295 -0.7370 -1.2251
 5294TIP3   OH215887   1.075   0.789   4.531 -0.3714  0.6564  0.0520
 5294TIP3    H115888   1.015   0.830   4.593  1.5423  0.4801  2.1674
 5294TIP3    H215889   1.060   0.834   4.448 -2.5656  1.3666  0.7775
 5295TIP3   OH215890   0.443   2.007   4.125  0.0566  0.4256  0.2593
 5295TIP3    H115891   0.437   2.061   4.046  3.2667 -0.1858 -0.5249
 5295TIP3    H215892   0.479   2.066   4.192  1.5865 -0.1611 -0.0195
 5296TIP3   OH215893   1.690   2.769   0.311  0.6898  0.0219 -0.0740
 5296TIP3    H115894   1.675   2.701   0.376 -0.0544  0.5445  0.3204
 5296TIP3    H215895   1.661   2.732   0.228  0.1946 -0.1080  0.1562
 5297TIP3   OH215896   3.226   2.887   2.812  0.6088 -0.4066  0.1629
 5297TIP3    H115897   3.232   2.812   2.754  1.4015  0.0781 -0.4001
 5297TIP3    H215898   3.283   2.865   2.886  0.0915 -0.7558  0.4646
 5298TIP3   OH215899   5.116   5.737   0.764 -0.1091  1.0233 -0.1107
 5298TIP3    H115900   5.205   5.732   0.799 -1.4279 -2.2201  3.5033
 5298TIP3    H215901   5.115   5.673   0.692  0.6352  1.7766 -0.8172
 5299TIP3   OH215902   5.242   3.540   5.003  0.6430 -0.0063 -0.1421
 5299TIP3    H115903   5.271   3.619   4.956  0.5133  0.5690  0.7183
 5299TIP3    H215904   5.237   3.568   5.095 -0.6058 -0.6835  0.0058
 5300TIP3   OH215905   3.260   4.706   2.954 -0.4870 -0.0333  0.1303
 5300TIP3    H115906   3.341   4.747   2.924 -1.1476  0.4572 -1.0557
 5300TIP3    H215907   3.281   4.672   3.040  0.9458  0.1976 -0.1042
 5301TIP3   OH215908   3.718   2.966   2.009  0.8948  0.0616  0.0184
 5301TIP3    H115909   3.647   2.904   1.994 -1.0170  1.7946  1.4439
 5301TIP3    H215910   3.796   2.911   2.020 -0.3606 -1.9446 -0.6406
 5302TIP3   OH215911   1.518   3.141   3.398  0.1994 -0.2944 -0.4271
 5302TIP3    H115912   1.603   3.147   3.442  0.5115 -0.1217 -1.0378
 5302TIP3    H215913   1.504   3.228   3.362 -1.7913  0.6939  2.4228
 5303TIP3   OH215914   2.536   4.188   0.158 -0.0085 -0.2934 -0.0887
 5303TIP3    H115915   2.509   4.105   0.118  1.7049 -0.9849  0.1149
 5303TIP3    H215916   2.573   4.238   0.085 -0.3971  0.0339 -0.0703
 5304TIP3   OH215917   4.476   1.243   5.154 -0.3610  0.0337 -0.0706
 5304TIP3    H115918   4.554   1.280   5.114 -0.8774  0.7488 -0.4363
 5304TIP3    H215919   4.509   1.188   5.225  0.5456 -0.8174 -1.1094
 5305TIP3   OH215920   4.366   1.494   2.411 -0.0977  0.4167 -0.3010
 5305TIP3    H115921   4.456   1.462   2.407 -0.7251 -1.3722 -1.3281
 5305TIP3    H215922   4.374   1.587   2.435  2.0298  0.4454 -0.9320
 5306TIP3   OH215923   5.146   2.539   0.386 -0.0870  0.0576 -0.0858
 5306TIP3    H115924   5.083   2.471   0.411 -1.0670  0.7771 -0.5158
 5306TIP3    H215925   5.112   2.573   0.303  1.8851 -0.7823 -1.3172
 5307TIP3   OH215926   1.510   4.840   0.540  0.4665  0.4656 -0.0532
 5307TIP3    H115927   1.455   4.798   0.606 -2.5979  0.3483 -2.4689
 5307TIP3    H215928   1.544   4.767   0.487  2.7711  0.5703  1.1332
 5308TIP3   OH215929   3.780   0.501   4.841  0.1362  0.3294 -0.0042
 5308TIP3    H115930   3.761   0.425   4.786 -2.4619  1.4666 -0.8410
 5308TIP3    H215931   3.784   0.574   4.780 -1.5864  1.4508  1.1323
 5309TIP3   OH215932   4.918   3.871   4.690 -0.6860  0.7221 -0.4931
 5309TIP3    H115933   4.975   3.803   4.726 -1.6547 -0.9098 -1.8643
 5309TIP3    H215934   4.939   3.950   4.740  1.2897 -0.3036  0.3986
 5310TIP3   OH215935   0.200   3.894   0.159 -0.0203  0.1484  0.5007
 5310TIP3    H115936   0.289   3.872   0.185  0.0394  0.5223  0.6282
 5310TIP3    H215937   0.185   3.980   0.199 -0.6625 -0.1966  1.0192
 5311TIP3   OH215938   2.064   0.054   2.574 -0.2304 -0.0350  0.1794
 5311TIP3    H115939   1.991  -0.005   2.596 -0.6231  0.5381  0.4244
 5311TIP3    H215940   2.025   0.141   2.570  0.2680  0.1648 -0.5980
 5312TIP3   OH215941   3.157   1.408   0.497  0.1763 -0.0717  0.8344
 5312TIP3    H115942   3.203   1.492   0.493  0.1672 -0.1129 -0.7746
 5312TIP3    H215943   3.065   1.430   0.505  0.0215  0.1406 -1.1331
 5313TIP3   OH215944   0.957   4.725   5.069 -0.5451 -0.6785  0.4384
 5313TIP3    H115945   0.896   4.651   5.080 -0.7719 -0.4565  0.6804
 5313TIP3    H215946   0.981   4.750   5.158  0.1898 -0.9931  0.3416
 5314TIP3   OH215947   5.931   0.806   3.133 -0.5045  0.5600  0.2699
 5314TIP3    H115948   5.889   0.890   3.153 -0.8067  0.5128 -0.1440
 5314TIP3    H215949   5.922   0.755   3.213  0.1640  1.1118  0.7081
 5315TIP3   OH215950   4.286   2.360   3.916  0.1301  0.1339  0.5175
 5315TIP3    H115951   4.244   2.441   3.944  0.3690  0.5771 -0.3597
 5315TIP3    H215952   4.247   2.292   3.971  0.5452  0.9510  1.8455
 5316TIP3   OH215953   0.751   5.055   2.476  0.1451 -0.3389  0.1374
 5316TIP3    H115954   0.719   5.037   2.564  0.9060 -0.8083  0.3294
 5316TIP3    H215955   0.682   5.106   2.435 -0.7510 -1.1561  0.5947
 5317TIP3   OH215956   1.018   1.644   2.859 -0.5787  0.6951  0.0263
 5317TIP3    H115957   0.968   1.617   2.782 -0.0565 -1.0308  0.2464
 5317TIP3    H215958   0.992   1.583   2.928  1.2322  0.2165  0.3527
 5318TIP3   OH215959   4.647   3.235   4.325 -0.7638  0.7840  0.7224
 5318TIP3    H115960   4.734   3.220   4.290 -0.9801 -0.8173  0.7895
 5318TIP3    H215961   4.658   3.306   4.388  0.3296  1.1587  0.1214
 5319TIP3   OH215962   1.043   1.808   5.085 -0.5889 -0.5491 -0.0855
 5319TIP3    H115963   1.032   1.901   5.104  0.2977 -0.4201 -0.1581
 5319TIP3    H215964   1.010   1.763   5.163 -1.9622 -0.2214 -0.4517
 5320TIP3   OH215965   4.252   1.679   5.117 -0.3213 -0.3872  0.3553
 5320TIP3    H115966   4.274   1.612   5.052  0.7211 -0.2213  0.5157
 5320TIP3    H215967   4.292   1.759   5.084 -1.6897  0.2167  0.0920
 5321TIP3   OH215968   5.901   3.968   2.732  0.8394  0.3585  0.3407
 5321TIP3    H115969   5.942   3.960   2.646 -0.3485  2.5844 -0.5256
 5321TIP3    H215970   5.820   3.918   2.725  1.5598 -0.9136  0.7933
 5322TIP3   OH215971   1.543   1.222   1.689  0.6353  0.0419  0.0369
 5322TIP3    H115972   1.457   1.186   1.667 -0.5210  1.7304  1.4403
 5322TIP3    H215973   1.596   1.208   1.611 -1.2108 -0.2041 -1.2394
 5323TIP3   OH215974   2.213   5.390   4.039 -0.1366  0.3202 -0.1219
 5323TIP3    H115975   2.187   5.371   4.129  2.1234  0.6402  0.6623
 5323TIP3    H215976   2.296   5.343   4.027 -0.4283  0.1872 -2.1050
 5324TIP3   OH215977   1.833   1.423   1.981  0.2724 -0.2855  0.4521
 5324TIP3    H115978   1.887   1.357   2.026 -0.4520 -0.1508  1.5719
 5324TIP3    H215979   1.785   1.466   2.052 -1.3470 -0.4466 -0.4987
 5325TIP3   OH215980   5.635   4.562   1.504  0.3127  0.5331 -0.0354
 5325TIP3    H115981   5.555   4.547   1.555 -0.0560  1.0459 -0.4448
 5325TIP3    H215982   5.608   4.621   1.434  1.0576  0.7252 -0.1745
 5326TIP3   OH215983   3.107   5.539   3.694 -0.3603  0.2756  0.1505
 5326TIP3    H115984   3.131   5.475   3.627 -1.4134  1.0885 -1.0557
 5326TIP3    H215985   3.030   5.583   3.658 -0.2681  1.5202  1.4037
 5327TIP3   OH215986   0.722   1.856   3.597  0.4100  0.7143 -0.2842
 5327TIP3    H115987   0.732   1.807   3.515 -1.3277  0.3472 -0.3264
 5327TIP3    H215988   0.627   1.858   3.612  0.6869  0.7795  1.7235
 5328TIP3   OH215989   3.704   1.710   1.404  0.6400 -0.8784  0.1622
 5328TIP3    H115990   3.706   1.749   1.316  0.6344 -0.5094  0.3232
 5328TIP3    H215991   3.611   1.711   1.427  0.8665  1.6245  1.3018
 5329TIP3   OH215992   5.127   1.773   1.327  0.0151  0.0493  0.3011
 5329TIP3    H115993   5.111   1.867   1.324  1.6171  0.3568  0.2514
 5329TIP3    H215994   5.058   1.738   1.384 -0.8818  1.1744 -0.0640
 5330TIP3   OH215995   2.544   1.376   3.779 -0.3077  0.0303  0.0448
 5330TIP3    H115996   2.511   1.380   3.689  0.2406 -0.5564 -0.1881
 5330TIP3    H215997   2.625   1.325   3.773  0.4860  1.1742  0.6503
 5331TIP3   OH215998   6.002   4.021   4.861 -0.3228  0.1665  0.0664
 5331TIP3    H115999   6.087   3.987   4.890 -1.5334 -1.4624  2.0075
 5331TIP3    H216000   6.008   4.116   4.875  0.7618 -0.0684  1.3896
 5332TIP3   OH216001   1.869   2.886   4.351  0.2879 -0.1116 -0.1497
 5332TIP3    H116002   1.789   2.842   4.378 -0.8559  0.4437 -2.3272
 5332TIP3    H216003   1.849   2.920   4.264  3.0255 -0.2579 -0.9472
 5333TIP3   OH216004   0.292   3.892   4.933  0.0050  0.1581 -0.5150
 5333TIP3    H116005   0.364   3.851   4.885  0.9246 -0.1080  1.0149
 5333TIP3    H216006   0.321   3.982   4.947  0.8392 -0.3585  1.4863
 5334TIP3   OH216007   5.898   2.481   4.004  0.6373  0.7286 -0.0275
 5334TIP3    H116008   5.886   2.501   3.911 -0.3429  2.1002  0.3649
 5334TIP3    H216009   5.927   2.563   4.043  4.8963 -0.6874  0.3336
 5335TIP3   OH216010   5.014   5.652   4.873 -0.0238  0.1068  0.3320
 5335TIP3    H116011   5.089   5.607   4.833 -0.8996  0.2261 -1.5904
 5335TIP3    H216012   5.037   5.745   4.869  1.4014  0.0051  3.4862
 5336TIP3   OH216013   3.502   2.770   5.018 -0.0417  0.2121 -0.4846
 5336TIP3    H116014   3.587   2.804   5.045 -0.2700  1.2159 -1.0002
 5336TIP3    H216015   3.516   2.737   4.929 -0.0931 -0.0176 -0.4090
 5337TIP3   OH216016   2.307   2.638   3.826 -0.5062  0.2735  0.3148
 5337TIP3    H116017   2.359   2.692   3.766 -0.1579 -0.2904  0.1087
 5337TIP3    H216018   2.367   2.570   3.856 -1.1132 -0.3835  0.0780
 5338TIP3   OH216019   0.655   4.100   4.058 -0.2664 -0.4543  0.2475
 5338TIP3    H116020   0.590   4.067   3.996 -0.3119  0.8239 -0.4176
 5338TIP3    H216021   0.604   4.148   4.123 -0.1161 -0.7811  0.6096
 5339TIP3   OH216022   1.544   4.114   1.223 -0.6605 -0.0480 -0.2332
 5339TIP3    H116023   1.550   4.129   1.129  1.5022 -0.6206 -0.2253
 5339TIP3    H216024   1.481   4.180   1.253  0.1862  1.5690 -1.7925
 5340TIP3   OH216025   3.607   2.711   0.517 -0.1643 -0.0202  0.5434
 5340TIP3    H116026   3.521   2.690   0.553 -1.0987  0.8237 -1.0659
 5340TIP3    H216027   3.624   2.800   0.548 -1.6936  1.3451 -2.1621
 5341TIP3   OH216028   6.091   0.646   4.212  0.0320 -0.2649 -0.1653
 5341TIP3    H116029   6.004   0.676   4.184  1.1397  2.6284 -0.9318
 5341TIP3    H216030   6.124   0.597   4.137 -1.0362 -1.7147  0.2722
 5342TIP3   OH216031   1.531   5.391   4.456 -0.2735 -0.1766  0.5984
 5342TIP3    H116032   1.550   5.298   4.463  1.6675  0.0188 -1.1203
 5342TIP3    H216033   1.456   5.396   4.396 -0.7206 -0.6195  1.1050
 5343TIP3   OH216034   0.076   5.769   2.564 -0.1344  0.1900 -0.2518
 5343TIP3    H116035  -0.000   5.820   2.592  1.1941  1.0871  2.0400
 5343TIP3    H216036   0.125   5.829   2.507  1.5070  1.7631  2.5655
 5344TIP3   OH216037   3.555   2.618   4.763 -0.5840  0.8584  0.2379
 5344TIP3    H116038   3.578   2.602   4.671  1.5915  0.6302  0.7671
 5344TIP3    H216039   3.472   2.572   4.775  0.0640 -0.7924 -1.1276
 5345TIP3   OH216040   1.150   3.360   3.459  0.1843  0.1640 -0.1736
 5345TIP3    H116041   1.177   3.326   3.373  1.0544 -0.7960  0.4600
 5345TIP3    H216042   1.084   3.298   3.490  1.0011 -0.3817  0.5190
 5346TIP3   OH216043   5.131   2.654   1.064 -0.3310 -0.2925  0.1490
 5346TIP3    H116044   5.059   2.700   1.108 -0.8498 -1.1234  0.2006
 5346TIP3    H216045   5.086   2.594   1.003  0.3393 -0.2863 -0.3565
 5347TIP3   OH216046   5.424   5.905   2.350  0.2336  0.1814  0.7926
 5347TIP3    H116047   5.390   5.995   2.352  0.3125  0.3333 -1.7472
 5347TIP3    H216048   5.484   5.901   2.424 -0.2517  2.0148  1.3481
 5348TIP3   OH216049   4.979   5.601   2.199  0.3205 -0.1628 -0.0650
 5348TIP3    H116050   5.066   5.624   2.231  0.6770 -1.4809 -0.0488
 5348TIP3    H216051   4.989   5.595   2.104 -0.2470  1.6377 -0.2920
 5349TIP3   OH216052   1.001   3.305   0.701 -0.1287 -0.0135  0.3400
 5349TIP3    H116053   1.035   3.390   0.674  0.4571  0.5160  2.5420
 5349TIP3    H216054   1.073   3.243   0.687 -0.4427 -0.1118 -0.9417
 5350TIP3   OH216055   1.928   1.007   2.487  0.1847  0.0923 -0.5149
 5350TIP3    H116056   1.891   0.919   2.486 -0.0384  0.1727 -2.0847
 5350TIP3    H216057   1.895   1.048   2.407  1.3869  1.1383 -0.5128
 5351TIP3   OH216058   2.760   5.819   5.173 -0.1268  0.3338  0.0606
 5351TIP3    H116059   2.808   5.745   5.211  1.5041 -0.5122 -3.2444
 5351TIP3    H216060   2.683   5.779   5.132  1.1278  0.2572 -2.3507
 5352TIP3   OH216061   4.724   1.731   3.904  0.2836 -0.2387 -0.6755
 5352TIP3    H116062   4.699   1.678   3.979  0.0412  0.3194 -0.3550
 5352TIP3    H216063   4.770   1.670   3.846 -0.0869 -0.8200 -0.3707
 5353TIP3   OH216064   1.724   4.203   5.030 -0.3570  0.6196 -0.5007
 5353TIP3    H116065   1.797   4.245   4.985  0.0939  1.4828  0.9583
 5353TIP3    H216066   1.763   4.128   5.074 -0.0436  1.7605  1.2718
 5354TIP3   OH216067   1.903   4.646   4.375  0.4521 -0.6369  0.0427
 5354TIP3    H116068   1.976   4.686   4.328  1.0301  1.6408  2.6990
 5354TIP3    H216069   1.943   4.576   4.427  0.0650 -1.9653 -1.3424
 5355TIP3   OH216070   4.527   1.549   4.304 -0.2135  0.1522 -0.0112
 5355TIP3    H116071   4.457   1.486   4.287  0.2183 -1.7341  3.9895
 5355TIP3    H216072   4.485   1.617   4.358  0.0155  1.8035 -1.7939
 5356TIP3   OH216073   6.185   3.217   0.553 -0.5170  0.0029  0.1125
 5356TIP3    H116074   6.249   3.274   0.511 -1.0032  0.3329 -0.2037
 5356TIP3    H216075   6.100   3.247   0.519 -0.7503 -1.2816 -0.5317
 5357TIP3   OH216076   0.912   1.654   2.008  0.2198  0.3452 -0.1984
 5357TIP3    H116077   0.988   1.608   1.970 -0.1562  0.7277 -1.4445
 5357TIP3    H216078   0.853   1.667   1.934 -1.6775 -1.0928  0.9698
 5358TIP3   OH216079   5.818   3.409   1.701 -0.0540 -0.4478 -0.2096
 5358TIP3    H116080   5.904   3.420   1.661  0.1295  0.7673  0.4681
 5358TIP3    H216081   5.824   3.328   1.752 -0.1379 -1.7645 -2.1774
 5359TIP3   OH216082   3.859   3.112   4.122 -0.2024 -0.2048  0.0898
 5359TIP3    H116083   3.881   3.160   4.202 -1.0861 -1.1340  0.9246
 5359TIP3    H216084   3.768   3.086   4.135 -0.0549 -1.2071 -0.8026
 5360TIP3   OH216085   0.445   3.024   1.902  0.9346  0.7398  0.0633
 5360TIP3    H116086   0.494   3.096   1.863  1.4953  0.1239 -0.3834
 5360TIP3    H216087   0.432   2.962   1.830 -0.3065  0.7850  0.2250
 5361TIP3   OH216088   2.829   1.941   2.526 -0.0934  0.6361  0.3714
 5361TIP3    H116089   2.781   1.890   2.461  0.4296  1.6784 -0.8529
 5361TIP3    H216090   2.890   1.994   2.476 -2.1510  4.2257  1.3649
 5362TIP3   OH216091   0.432   2.849   1.359  0.3357  0.1809  0.2122
 5362TIP3    H116092   0.477   2.774   1.399  0.8231  0.4074  0.0931
 5362TIP3    H216093   0.471   2.857   1.272  0.0441  0.3645  0.0968
 5363TIP3   OH216094   5.552   3.247   4.081  0.6832 -0.0923 -0.2149
 5363TIP3    H116095   5.530   3.197   4.002 -0.4015  1.1850 -0.7441
 5363TIP3    H216096   5.496   3.210   4.149 -0.0605  0.3218 -0.5876
 5364TIP3   OH216097   3.000   5.826   1.242  0.4126  0.4012 -0.0836
 5364TIP3    H116098   2.953   5.747   1.215 -0.8994  0.4616  1.8397
 5364TIP3    H216099   3.056   5.847   1.167  1.2028 -2.6238 -0.4762
 5365TIP3   OH216100   3.100   4.323   2.823  0.1088  0.0216  0.5113
 5365TIP3    H116101   3.118   4.349   2.733 -1.1156 -2.5921 -0.5858
 5365TIP3    H216102   3.184   4.329   2.867  0.9157  0.5009 -1.0245
 5366TIP3   OH216103   2.266   4.357   2.262 -0.2212 -0.0530 -0.0942
 5366TIP3    H116104   2.223   4.396   2.338 -3.0064 -3.8968  0.6166
 5366TIP3    H216105   2.211   4.382   2.188  0.0151  0.2053 -0.1827
 5367TIP3   OH216106   1.728   0.039   3.132  0.1230 -0.5477 -0.0351
 5367TIP3    H116107   1.816   0.030   3.168 -0.1669 -1.4487  0.4897
 5367TIP3    H216108   1.740   0.076   3.045  0.9237  0.6423  0.5438
 5368TIP3   OH216109   4.671   2.821   3.256 -0.1560  0.4433 -0.0580
 5368TIP3    H116110   4.685   2.738   3.212  0.1291  0.3122  0.2739
 5368TIP3    H216111   4.744   2.828   3.318  0.1951  1.2599 -0.5566
 5369TIP3   OH216112   2.471   1.784   1.035 -0.0183  0.4977 -0.6200
 5369TIP3    H116113   2.487   1.730   1.113  0.1865 -0.6577 -1.4236
 5369TIP3    H216114   2.464   1.720   0.964  0.4280  1.5651 -1.6495
 5370TIP3   OH216115   0.159   3.418   1.984  0.0071 -0.2226  0.2964
 5370TIP3    H116116   0.155   3.334   1.938  0.2231  1.3530 -2.8144
 5370TIP3    H216117   0.139   3.483   1.917  1.9024  2.3772  2.0966
 5371TIP3   OH216118   5.651   5.162   2.439 -0.3691 -0.4089  0.6807
 5371TIP3    H116119   5.668   5.068   2.430  2.6190 -0.0596  1.7906
 5371TIP3    H216120   5.733   5.204   2.415 -2.0555  2.0934 -1.2606
 5372TIP3   OH216121   5.523   3.486   2.557  0.6005 -0.2217  0.6115
 5372TIP3    H116122   5.509   3.573   2.521  1.1031 -0.3336  0.1352
 5372TIP3    H216123   5.480   3.488   2.643 -0.6064  0.0374  0.0092
 5373TIP3   OH216124   4.042   2.342   0.137  0.2949  0.2424  0.2363
 5373TIP3    H116125   3.960   2.321   0.091  0.9426  1.1834 -1.4482
 5373TIP3    H216126   4.017   2.348   0.229 -1.1535 -1.3367 -0.0015
 5374TIP3   OH216127   3.771   4.304   2.879  0.0140  0.3147  0.2743
 5374TIP3    H116128   3.857   4.269   2.856 -0.1036  0.4923 -0.4795
 5374TIP3    H216129   3.761   4.381   2.822 -0.1295  1.0125  1.2259
 5375TIP3   OH216130   5.439   5.630   4.044 -0.4267 -0.5553  0.2323
 5375TIP3    H116131   5.528   5.631   4.010 -0.4760  0.3729  0.0890
 5375TIP3    H216132   5.405   5.544   4.021  0.2899 -0.7589 -0.0875
 5376TIP3   OH216133   3.483   5.295   3.362 -0.4775  0.5014 -0.0397
 5376TIP3    H116134   3.552   5.229   3.366 -0.0147  1.0285  2.4317
 5376TIP3    H216135   3.511   5.355   3.293  0.7777 -0.1334 -0.1055
 5377TIP3   OH216136   2.446   4.209   4.216 -0.3699  0.4376 -0.0118
 5377TIP3    H116137   2.517   4.187   4.277 -0.3673  0.4688 -0.0030
 5377TIP3    H216138   2.398   4.128   4.204 -1.6577  0.8941  1.7202
 5378TIP3   OH216139   3.401   5.340   4.195  0.0204 -0.6761  0.1669
 5378TIP3    H116140   3.360   5.387   4.267  0.7199  1.0780 -0.5221
 5378TIP3    H216141   3.335   5.342   4.125  0.0038 -0.8556  0.1761
 5379TIP3   OH216142   0.446   4.404   1.903  0.2815 -0.1377  0.2711
 5379TIP3    H116143   0.531   4.440   1.928  0.0580  0.6415 -0.0825
 5379TIP3    H216144   0.386   4.478   1.906 -0.3801 -0.6679  0.4554
 5380TIP3   OH216145   3.884   0.875   3.223 -0.7072 -0.4350 -1.0368
 5380TIP3    H116146   3.922   0.854   3.308 -1.4127  0.3510 -0.5160
 5380TIP3    H216147   3.912   0.804   3.166 -0.1519 -0.9236 -0.1698
 5381TIP3   OH216148   6.197   2.490   4.369  0.0275 -0.2973  0.1953
 5381TIP3    H116149   6.195   2.521   4.460  2.1990 -1.0904  0.5613
 5381TIP3    H216150   6.110   2.452   4.355 -0.4089 -0.0115  1.8733
 5382TIP3   OH216151   0.665   4.239   0.508 -0.1031 -0.3738 -0.2907
 5382TIP3    H116152   0.627   4.152   0.495 -0.6155 -0.3865  1.1176
 5382TIP3    H216153   0.589   4.296   0.521  0.2471  0.2132 -0.8064
 5383TIP3   OH216154   4.230   3.243   5.067  0.6511 -0.1718 -0.2109
 5383TIP3    H116155   4.227   3.331   5.030 -1.6623  0.1098  0.5048
 5383TIP3    H216156   4.230   3.185   4.991  1.0605  0.4270 -0.6790
 5384TIP3   OH216157   4.174   4.281   0.842  0.7143 -0.3155 -0.7477
 5384TIP3    H116158   4.212   4.197   0.814  0.7988 -0.9095  1.0339
 5384TIP3    H216159   4.250   4.335   0.863  0.6257 -0.2944 -0.4876
 5385TIP3   OH216160   6.176   4.422   0.644  0.2586  0.1081 -0.5366
 5385TIP3    H116161   6.133   4.407   0.728 -2.9646  1.4126 -1.8018
 5385TIP3    H216162   6.137   4.357   0.585  1.7877 -0.1687 -1.3121
 5386TIP3   OH216163   2.144   4.980   0.225  0.0025  0.0014 -0.2960
 5386TIP3    H116164   2.092   4.974   0.145  0.0253 -1.8987 -0.2159
 5386TIP3    H216165   2.112   4.908   0.279  0.9107  0.4390  0.8536
 5387TIP3   OH216166   4.693   4.804   1.268 -0.4053  0.5232  0.4983
 5387TIP3    H116167   4.688   4.741   1.196 -1.9386  0.5205  0.5803
 5387TIP3    H216168   4.667   4.887   1.230 -0.9612  0.5755  0.9842
 5388TIP3   OH216169   5.585   2.278   2.923 -0.1681 -0.2416  0.1265
 5388TIP3    H116170   5.532   2.252   2.999 -1.5197  1.5036 -0.1348
 5388TIP3    H216171   5.524   2.272   2.849  1.7762 -4.4680 -1.4518
 5389TIP3   OH216172   3.835   1.445   4.631  0.0782 -0.2464  0.5222
 5389TIP3    H116173   3.825   1.496   4.550 -2.0794 -0.4781  0.5872
 5389TIP3    H216174   3.894   1.373   4.607  0.2126  0.2093 -0.5756
 5390TIP3   OH216175   4.757   3.933   2.702  0.2137 -0.7105 -0.8322
 5390TIP3    H116176   4.692   3.982   2.653  0.3264 -1.2042 -1.4955
 5390TIP3    H216177   4.756   3.845   2.663  3.0228 -0.1038 -2.6151
 5391TIP3   OH216178   1.478   5.365   2.075  0.6102 -1.0391  0.0873
 5391TIP3    H116179   1.505   5.273   2.078 -2.6922 -2.1243  1.0406
 5391TIP3    H216180   1.384   5.361   2.057  0.4000  2.1884  0.0018
 5392TIP3   OH216181   1.821   1.785   2.445 -0.1188 -0.3906 -0.0663
 5392TIP3    H116182   1.851   1.695   2.432  0.9593 -0.0711  0.1117
 5392TIP3    H216183   1.882   1.821   2.510  0.5981  1.0073 -1.4362
 5393TIP3   OH216184   4.317   1.426   5.028 -0.2328  0.1812 -1.0709
 5393TIP3    H116185   4.367   1.391   5.102 -0.6769 -0.4256 -1.0469
 5393TIP3    H216186   4.380   1.432   4.956  0.4527  1.7152 -0.3889
 5394TIP3   OH216187   4.270   2.942   1.758 -0.1214 -0.2991  0.0819
 5394TIP3    H116188   4.242   3.027   1.724 -0.2199 -1.1753 -2.1574
 5394TIP3    H216189   4.189   2.899   1.786 -0.3846 -0.6682 -1.2244
 5395TIP3   OH216190   4.550   4.507   2.870  0.3496  0.4153 -0.5607
 5395TIP3    H116191   4.542   4.444   2.798  2.1199  0.8011 -1.1581
 5395TIP3    H216192   4.546   4.454   2.949  1.6879 -0.4691 -1.0518
 5396TIP3   OH216193   2.797   0.906   4.436  0.4053  0.0489 -0.0299
 5396TIP3    H116194   2.842   0.883   4.355  1.0087  3.2198 -0.7003
 5396TIP3    H216195   2.856   0.965   4.482 -1.5293  1.4133  0.8416
 5397TIP3   OH216196   3.469   4.062   4.323  0.1007  0.3809 -0.2255
 5397TIP3    H116197   3.400   4.017   4.276 -0.0347  0.7869 -0.4212
 5397TIP3    H216198   3.428   4.142   4.356  0.4170  0.5167 -0.1554
 5398TIP3   OH216199   4.362   5.352   4.381  0.0821 -0.5557 -0.1808
 5398TIP3    H116200   4.391   5.344   4.291  0.4388 -1.3801  0.0017
 5398TIP3    H216201   4.301   5.426   4.380  1.0760  0.2848 -0.8364
 5399TIP3   OH216202   3.206   1.293   2.219 -0.2180  0.4517  0.8597
 5399TIP3    H116203   3.248   1.328   2.141 -1.0852  3.0130  1.4189
 5399TIP3    H216204   3.112   1.302   2.202 -0.4987 -1.3985  1.2079
 5400TIP3   OH216205   4.777   2.487   2.886 -0.1220  0.1913 -0.0185
 5400TIP3    H116206   4.849   2.458   2.831  0.5759  0.7361  0.5889
 5400TIP3    H216207   4.756   2.575   2.855 -1.3078 -0.3799 -0.9421
 5401TIP3   OH216208   2.073   0.784   2.274  0.4341  0.0167  0.0214
 5401TIP3    H116209   2.111   0.764   2.189  0.6901  0.6303 -0.0193
 5401TIP3    H216210   2.138   0.752   2.337  1.4587  1.7839 -0.0560
 5402TIP3   OH216211   1.689   0.777   3.592  0.0842 -0.1225 -0.0322
 5402TIP3    H116212   1.770   0.829   3.586  0.2854 -0.4397 -0.1075
 5402TIP3    H216213   1.685   0.729   3.510 -0.6521  0.5518 -0.4065
 5403TIP3   OH216214   0.139   0.427   3.303  0.4649 -0.3834  0.2271
 5403TIP3    H116215   0.196   0.354   3.329  0.9495  0.2680  1.0248
 5403TIP3    H216216   0.050   0.392   3.314  0.6111 -1.9606 -2.5445
 5404TIP3   OH216217   0.378   2.308   3.451  0.0874 -0.4621 -0.1211
 5404TIP3    H116218   0.458   2.257   3.441  0.9437  0.8039  0.0318
 5404TIP3    H216219   0.310   2.253   3.414  1.4438 -0.3925 -2.9442
 5405TIP3   OH216220   5.405   0.207   3.510  0.6912  0.6044  0.6577
 5405TIP3    H116221   5.379   0.148   3.439 -2.1785  0.8744  1.3611
 5405TIP3    H216222   5.497   0.185   3.527  1.2144 -0.0752 -2.4856
 5406TIP3   OH216223   6.140   1.917   2.337 -0.6433 -0.1416  0.0581
 5406TIP3    H116224   6.232   1.943   2.341 -0.5125 -0.0311 -2.2782
 5406TIP3    H216225   6.140   1.839   2.280 -2.1849  1.2153 -1.9634
 5407TIP3   OH216226   2.830   4.739   1.666  0.0580  0.3285  0.2022
 5407TIP3    H116227   2.813   4.777   1.752  0.4747 -1.6968  1.2685
 5407TIP3    H216228   2.762   4.672   1.656  1.6596 -1.3988  0.2924
 5408TIP3   OH216229   4.923   1.752   0.523  0.3358 -0.6461 -0.5209
 5408TIP3    H116230   4.921   1.658   0.539  0.9652 -0.3515  1.6178
 5408TIP3    H216231   4.836   1.772   0.487  0.7258 -2.2246 -2.5015
 5409TIP3   OH216232   5.357   2.253   3.597 -0.0132 -0.2052  0.3594
 5409TIP3    H116233   5.435   2.197   3.591 -0.3407 -0.6024 -0.2456
 5409TIP3    H216234   5.388   2.331   3.643  0.3735 -1.0126  1.5214
 5410TIP3   OH216235   3.683   2.606   3.407  0.0373 -0.2622 -0.1300
 5410TIP3    H116236   3.687   2.514   3.380  1.8659  0.1394 -1.4264
 5410TIP3    H216237   3.597   2.636   3.377 -1.0686 -1.8069  1.3408
 5411TIP3   OH216238   5.391   1.191   1.037 -0.1996 -0.0458  0.0746
 5411TIP3    H116239   5.376   1.161   0.947 -0.9569  0.1731  0.1169
 5411TIP3    H216240   5.305   1.221   1.066 -0.4398 -1.9850  1.5893
 5412TIP3   OH216241   2.079   2.585   3.928  0.6944  0.3295  0.0741
 5412TIP3    H116242   2.163   2.617   3.897  0.5980 -1.5250 -2.3978
 5412TIP3    H216243   2.018   2.600   3.856 -0.3323 -1.2219  0.5424
 5413TIP3   OH216244   0.225   5.932   3.767  0.0766 -0.2420 -0.0911
 5413TIP3    H116245   0.199   5.907   3.856 -0.9903  0.0228 -0.3172
 5413TIP3    H216246   0.166   5.882   3.710 -0.9518  1.4635 -0.5809
 5414TIP3   OH216247   1.904   3.956   2.530 -0.1482  0.0164  0.3559
 5414TIP3    H116248   1.917   4.048   2.511 -2.2446  0.3519  0.3739
 5414TIP3    H216249   1.871   3.918   2.449  0.9265 -0.8070  0.2688
 5415TIP3   OH216250   1.939   1.663   4.046 -0.2272 -0.4868  1.0974
 5415TIP3    H116251   1.978   1.623   4.123 -0.6403  1.3601  2.3363
 5415TIP3    H216252   1.846   1.669   4.066 -0.3239  0.1301  0.5239
 5416TIP3   OH216253   0.194   0.258   4.391  0.4851  0.5038  0.3486
 5416TIP3    H116254   0.176   0.317   4.464 -0.4497 -0.1137  0.6308
 5416TIP3    H216255   0.113   0.255   4.341  0.4214 -0.7586  0.4954
 5417TIP3   OH216256   3.574   1.239   4.291 -0.4932 -0.1152 -0.0664
 5417TIP3    H116257   3.553   1.323   4.250  1.0939  1.2923  1.8054
 5417TIP3    H216258   3.633   1.196   4.229  0.8809  1.4119  0.1226
 5418TIP3   OH216259   2.181   5.719   3.084  0.4346  0.0732  0.4324
 5418TIP3    H116260   2.168   5.645   3.144  2.6133  0.0375  0.9382
 5418TIP3    H216261   2.203   5.793   3.141 -1.6863  1.1697 -0.0686
 5419TIP3   OH216262   6.321   3.843   2.673  0.2338 -0.7369  0.4383
 5419TIP3    H116263   6.305   3.936   2.693  0.9072 -0.7422  1.0831
 5419TIP3    H216264   6.297   3.833   2.581 -0.5241 -0.0880  0.5524
 5420TIP3   OH216265   3.694   4.889   3.202  0.7760  0.1841  0.1644
 5420TIP3    H116266   3.684   4.856   3.291  0.1238  0.0230  0.0351
 5420TIP3    H216267   3.767   4.839   3.166  1.4620  0.6907  0.8082
 5421TIP3   OH216268   5.768   4.861   2.725 -0.1016 -0.9912  0.2471
 5421TIP3    H116269   5.719   4.855   2.807  0.1880 -0.4230  0.4736
 5421TIP3    H216270   5.731   4.793   2.669  0.0465 -1.7436  1.0345
 5422TIP3   OH216271   5.020   2.721   2.979 -0.1423 -0.1020  0.5641
 5422TIP3    H116272   5.007   2.641   3.029  1.3063 -0.3734  0.5374
 5422TIP3    H216273   5.028   2.790   3.046  0.3709 -0.2538  0.6665
 5423TIP3   OH216274   3.511   0.230   0.835 -0.0856 -0.6222  0.3001
 5423TIP3    H116275   3.586   0.212   0.891  0.2095 -2.2007 -0.5520
 5423TIP3    H216276   3.491   0.146   0.793 -0.9305  0.2680 -1.1833
 5424TIP3   OH216277   5.115   5.484   4.044 -0.4371  0.7941  0.3354
 5424TIP3    H116278   5.146   5.440   4.124 -1.2058  0.8654  0.6757
 5424TIP3    H216279   5.188   5.475   3.983 -1.1463 -2.4338 -0.2040
 5425TIP3   OH216280   2.260   0.078   4.016 -0.1345 -0.2830 -0.6415
 5425TIP3    H116281   2.247   0.064   4.109 -0.4199 -1.3445 -0.8258
 5425TIP3    H216282   2.286   0.170   4.008 -1.7177  0.2826  0.3245
 5426TIP3   OH216283   0.711   2.070   0.455 -0.2070  0.0332  0.8834
 5426TIP3    H116284   0.716   2.165   0.466 -1.9832  0.2903 -0.1571
 5426TIP3    H216285   0.789   2.047   0.404 -0.3661  1.1047  0.1290
 5427TIP3   OH216286   4.640   5.490   4.862  0.1668 -0.3181 -0.2693
 5427TIP3    H116287   4.591   5.481   4.780  2.6864 -1.0122 -1.7811
 5427TIP3    H216288   4.617   5.578   4.893 -0.0895  0.3553 -2.2316
 5428TIP3   OH216289   0.047   2.378   3.691 -0.1685  0.2036 -0.0893
 5428TIP3    H116290   0.014   2.419   3.612 -1.7784 -1.5736 -0.4233
 5428TIP3    H216291   0.124   2.328   3.663  0.4804  1.1739 -0.0947
 5429TIP3   OH216292   5.275   2.888   4.063 -0.9001 -0.3742  0.0962
 5429TIP3    H116293   5.330   2.824   4.018  0.1264  0.0264  0.7378
 5429TIP3    H216294   5.199   2.900   4.006 -1.3009 -2.4347  0.1314
 5430TIP3   OH216295   2.951   2.139   3.756  0.0866  0.7118  0.3504
 5430TIP3    H116296   2.992   2.054   3.740  1.3378  1.2541  0.5340
 5430TIP3    H216297   2.938   2.142   3.851 -0.3781  0.5542  0.2961
 5431TIP3   OH216298   1.742   3.296   2.140 -0.2213  0.6410 -0.1113
 5431TIP3    H116299   1.758   3.269   2.050  1.2216 -0.2310  0.3808
 5431TIP3    H216300   1.690   3.376   2.132 -0.0637  0.6116 -1.7081
 5432TIP3   OH216301   5.571   2.104   3.409  0.2958 -0.1442  0.4347
 5432TIP3    H116302   5.582   2.061   3.493  1.6106 -0.8367 -0.0632
 5432TIP3    H216303   5.649   2.079   3.359  0.7863  2.2601 -0.1199
 5433TIP3   OH216304   2.745   4.972   4.430  0.0109  0.2792 -0.7792
 5433TIP3    H116305   2.805   4.905   4.464  0.2370  0.5479 -0.6480
 5433TIP3    H216306   2.786   5.002   4.348  1.6445  2.6031  0.7606
 5434TIP3   OH216307   4.070   4.833   0.801  0.5546  0.6185  0.0821
 5434TIP3    H116308   4.118   4.873   0.728  0.3073 -0.1724 -0.5309
 5434TIP3    H216309   4.021   4.761   0.760 -1.5351  1.6993  0.6025
 5435TIP3   OH216310   1.405   2.994   3.211  0.7877 -0.5879 -0.4828
 5435TIP3    H116311   1.440   3.034   3.291  0.0665  0.5177 -0.6919
 5435TIP3    H216312   1.473   3.010   3.145  1.3925 -1.5177 -0.1153
 5436TIP3   OH216313   3.914   3.399   1.606  0.0004  0.1902  0.1584
 5436TIP3    H116314   3.888   3.489   1.582 -0.0214  0.0541 -0.3445
 5436TIP3    H216315   3.909   3.398   1.701 -0.0632  0.7080  0.1678
 5437TIP3   OH216316   5.129   5.373   0.861 -0.4651  0.0495 -0.3957
 5437TIP3    H116317   5.217   5.340   0.845  0.4177  1.6932  0.7399
 5437TIP3    H216318   5.092   5.313   0.925  0.6880  0.5589  0.8020
 5438TIP3   OH216319   3.027   4.067   2.091  0.3923  0.2335 -0.2247
 5438TIP3    H116320   2.966   4.057   2.164  1.2797  0.5790  0.5769
 5438TIP3    H216321   3.000   3.999   2.029 -0.3361 -0.1078  0.4386
 5439TIP3   OH216322   1.062   1.071   4.322 -0.2382 -0.2373  0.2568
 5439TIP3    H116323   0.999   1.120   4.375 -1.0666 -0.6315 -0.3467
 5439TIP3    H216324   1.019   1.061   4.237 -0.3747 -2.5536  0.5401
 5440TIP3   OH216325   5.123   5.783   2.588  0.1109  0.0912  0.0002
 5440TIP3    H116326   5.139   5.737   2.671 -3.3228  1.1345  1.4378
 5440TIP3    H216327   5.165   5.868   2.600 -0.9458  0.5005  1.0517
 5441TIP3   OH216328   4.676   5.653   1.382 -0.3481  0.2837 -0.0689
 5441TIP3    H116329   4.768   5.670   1.361 -0.6382  1.0084 -0.8325
 5441TIP3    H216330   4.629   5.675   1.301 -1.0534 -1.5104 -0.1947
 5442TIP3   OH216331   3.087   3.105   2.717 -0.8009 -0.1201  0.0952
 5442TIP3    H116332   3.095   3.178   2.779 -1.8582  0.2125 -0.1352
 5442TIP3    H216333   3.164   3.050   2.734 -1.3222 -0.3306  2.1139
 5443TIP3   OH216334   0.775   0.843   0.916  0.3759 -0.1527  0.0323
 5443TIP3    H116335   0.818   0.874   0.995  1.6434 -1.0245 -0.2810
 5443TIP3    H216336   0.821   0.888   0.845  1.1795 -1.4868 -0.3379
 5444TIP3   OH216337   3.600   1.853   0.911  0.7007 -0.6591  0.3354
 5444TIP3    H116338   3.525   1.806   0.874  0.2047 -0.5082  1.1451
 5444TIP3    H216339   3.611   1.929   0.854  0.0954 -0.5600  0.3432
 5445TIP3   OH216340   0.500   4.854   3.278  0.0002  0.7652 -0.2340
 5445TIP3    H116341   0.460   4.867   3.364  1.1343  0.6279  0.3320
 5445TIP3    H216342   0.579   4.908   3.279  1.2894 -1.0230 -0.2704
 5446TIP3   OH216343   0.000   3.546   3.114  0.4071  0.1763 -0.7022
 5446TIP3    H116344   0.082   3.502   3.092 -0.5525 -1.0278 -2.0281
 5446TIP3    H216345  -0.056   3.532   3.038 -0.8920  1.3628 -0.0119
 5447TIP3   OH216346   2.182   4.794   2.725 -0.2119  0.6609  0.9033
 5447TIP3    H116347   2.163   4.806   2.632  0.0156  2.2345  1.0389
 5447TIP3    H216348   2.097   4.783   2.766 -0.3244  0.1591  0.5467
 5448TIP3   OH216349   0.725   1.491   2.469  0.6720  0.4162  0.4113
 5448TIP3    H116350   0.697   1.403   2.445 -1.1713  1.0641 -0.0049
 5448TIP3    H216351   0.726   1.491   2.565 -0.6303  0.2899  0.4444
 5449TIP3   OH216352   5.172   2.186   2.969  0.5599  0.1053 -0.6393
 5449TIP3    H116353   5.183   2.273   3.006 -0.8805 -0.0137  0.1338
 5449TIP3    H216354   5.116   2.140   3.031  0.6096 -1.1039 -1.4521
 5450TIP3   OH216355   3.523   1.431   4.613 -0.0065 -0.3177  0.4115
 5450TIP3    H116356   3.615   1.448   4.594  0.1609 -0.2475  1.2644
 5450TIP3    H216357   3.479   1.514   4.594  0.2871  0.0152  1.1734
 5451TIP3   OH216358   5.602   4.775   4.952  0.4064  0.2427  0.5260
 5451TIP3    H116359   5.605   4.750   4.860 -2.0309  0.9086  0.1901
 5451TIP3    H216360   5.680   4.735   4.991  1.6848  0.2497 -1.8729
 5452TIP3   OH216361   0.688   4.253   3.267  0.5221 -0.0815  0.3456
 5452TIP3    H116362   0.783   4.261   3.274  0.6726 -0.4870 -1.0311
 5452TIP3    H216363   0.654   4.304   3.341  1.8068 -0.3709  1.1633
 5453TIP3   OH216364   3.382   0.295   0.535 -0.1662 -0.1295 -0.0000
 5453TIP3    H116365   3.409   0.291   0.443  0.9562  0.2463  0.2884
 5453TIP3    H216366   3.464   0.283   0.584 -0.2483  2.5330  0.9524
 5454TIP3   OH216367   2.470   1.126   4.993 -0.1592 -0.1011 -0.2763
 5454TIP3    H116368   2.509   1.096   5.075 -0.6262  0.6613  0.2456
 5454TIP3    H216369   2.533   1.102   4.925  0.2432 -0.7260  0.3067
 5455TIP3   OH216370   5.016   3.723   0.679 -0.3357 -0.1756 -0.3230
 5455TIP3    H116371   4.974   3.802   0.646  2.2887  0.8427 -1.4733
 5455TIP3    H216372   5.084   3.754   0.738 -0.3776 -1.6759  0.5708
 5456TIP3   OH216373   1.458   3.735   1.639  0.3163 -0.8179 -0.0947
 5456TIP3    H116374   1.458   3.800   1.570  0.0849  0.5072  1.1074
 5456TIP3    H216375   1.372   3.693   1.633  0.1932 -0.5149 -0.4240
 5457TIP3   OH216376   5.826   4.245   3.408 -0.5799 -0.0972  0.6627
 5457TIP3    H116377   5.846   4.176   3.344 -3.7138 -1.9752  1.4811
 5457TIP3    H216378   5.895   4.237   3.474  0.2021 -1.1390 -0.2410
 5458TIP3   OH216379   4.339   3.862   2.855 -0.6388 -0.3603 -0.0817
 5458TIP3    H116380   4.334   3.893   2.946 -0.9049  0.5521 -0.3973
 5458TIP3    H216381   4.261   3.807   2.845 -2.9418  2.7864 -0.9025
 5459TIP3   OH216382   1.905   4.593   2.424 -0.3567 -0.1809 -0.5543
 5459TIP3    H116383   1.837   4.560   2.365  0.8065 -0.7345 -1.6320
 5459TIP3    H216384   1.859   4.611   2.506 -1.6940 -1.0856 -1.0700
 5460TIP3   OH216385   0.850   3.936   1.095 -0.1658 -0.3038  0.0788
 5460TIP3    H116386   0.860   3.909   1.186 -0.4375 -0.0653  0.1796
 5460TIP3    H216387   0.935   3.916   1.055  0.5263  1.1054  0.7735
 5461TIP3   OH216388   0.041   0.464   1.749 -0.4144 -0.7611  0.3926
 5461TIP3    H116389   0.109   0.414   1.795 -0.4583 -0.4551  0.7966
 5461TIP3    H216390   0.042   0.550   1.792 -0.9728 -0.7164  0.3182
 5462TIP3   OH216391   6.044   5.280   4.126 -0.0744 -0.0077  0.0648
 5462TIP3    H116392   6.010   5.348   4.185 -0.5804  1.0754 -1.4315
 5462TIP3    H216393   6.078   5.213   4.185  0.1920  1.4096  1.5925
 5463TIP3   OH216394   0.619   5.781   2.317  0.5434 -0.1124 -0.1166
 5463TIP3    H116395   0.568   5.712   2.274 -0.1120  0.5994 -0.5063
 5463TIP3    H216396   0.702   5.739   2.339 -0.5177 -1.5494  1.3319
 5464TIP3   OH216397   0.840   0.362   0.558  0.6634 -0.1816 -0.9228
 5464TIP3    H116398   0.932   0.354   0.532  0.4904 -0.0044 -1.5918
 5464TIP3    H216399   0.817   0.452   0.536  0.6996  0.1965  0.4713
 5465TIP3   OH216400   2.416   5.890   0.610 -0.7594  0.1227  0.2676
 5465TIP3    H116401   2.494   5.857   0.564 -0.9011  1.8799 -1.3473
 5465TIP3    H216402   2.451   5.932   0.688 -0.1513  0.1338  0.0019
 5466TIP3   OH216403   5.891   5.894   0.531 -0.0744 -0.5069  0.5738
 5466TIP3    H116404   5.914   5.803   0.549  0.2976 -0.5440 -0.0660
 5466TIP3    H216405   5.964   5.928   0.480 -0.5335 -0.0481  0.2095
 5467TIP3   OH216406   2.714   4.175   1.794 -0.0206  0.0222  0.3331
 5467TIP3    H116407   2.749   4.262   1.774  0.8041 -0.0503  1.3440
 5467TIP3    H216408   2.619   4.185   1.788  0.1096  0.6920 -0.6961
 5468TIP3   OH216409   1.823   3.638   2.418  0.2339  0.0749  0.3788
 5468TIP3    H116410   1.916   3.620   2.408 -0.0264 -1.8015  0.9057
 5468TIP3    H216411   1.811   3.726   2.383  2.1465  0.2433  0.0640
 5469TIP3   OH216412   1.579   3.375   0.808  0.1383  0.2145  0.1798
 5469TIP3    H116413   1.619   3.304   0.858  0.0268 -0.1343 -0.2245
 5469TIP3    H216414   1.650   3.411   0.755 -0.1598 -0.6563 -0.8263
 5470TIP3   OH216415   1.169   2.382   5.175 -0.4308 -0.0673  0.0675
 5470TIP3    H116416   1.102   2.449   5.191 -1.3236 -0.4284 -1.9204
 5470TIP3    H216417   1.131   2.324   5.110  2.0874  0.1777 -1.7926
 5471TIP3   OH216418   2.247   4.038   2.858  0.3107 -0.0432 -0.1629
 5471TIP3    H116419   2.317   4.036   2.923 -0.5632 -0.3689  0.8104
 5471TIP3    H216420   2.167   4.037   2.910 -0.4202  0.8152 -1.2399
 5472TIP3   OH216421   2.855   1.137   0.061  0.0685 -0.4113  0.1280
 5472TIP3    H116422   2.770   1.138   0.017 -1.0467  1.0551  2.1518
 5472TIP3    H216423   2.837   1.098   0.146  1.5702 -0.5957  0.3806
 5473TIP3   OH216424   5.367   4.845   1.573  0.2655 -0.2476 -0.0618
 5473TIP3    H116425   5.396   4.937   1.572 -1.4711  0.3439 -0.3258
 5473TIP3    H216426   5.413   4.806   1.647  1.0224  0.8451  0.0756
 5474TIP3   OH216427   4.993   2.466   1.345 -0.0636  0.8903 -0.5000
 5474TIP3    H116428   4.909   2.511   1.345 -1.4421 -1.3907  1.8306
 5474TIP3    H216429   4.977   2.386   1.296  1.3952  1.3454 -1.7840
 5475TIP3   OH216430   4.789   0.050   3.496 -0.2199  0.3190 -0.3113
 5475TIP3    H116431   4.856   0.022   3.435 -0.2407  0.4726 -0.4059
 5475TIP3    H216432   4.718  -0.014   3.486 -0.6545  0.9160 -1.1956
 5476TIP3   OH216433   2.726   5.410   1.456  0.3387 -0.4044 -0.3185
 5476TIP3    H116434   2.661   5.462   1.410 -1.3965 -1.4637  0.8550
 5476TIP3    H216435   2.718   5.322   1.418 -1.0130 -1.2565  1.7944
 5477TIP3   OH216436   1.277   2.917   0.070  0.1156 -0.4325 -0.2403
 5477TIP3    H116437   1.286   2.822   0.064 -0.1613 -0.3927 -1.9632
 5477TIP3    H216438   1.349   2.951   0.017 -0.5774  0.2764 -0.7546
 5478TIP3   OH216439   4.937   5.239   1.610  0.2595 -0.5163  0.2945
 5478TIP3    H116440   5.033   5.240   1.605  0.3302 -1.8478  0.8744
 5478TIP3    H216441   4.909   5.209   1.524  0.2579  1.3767 -0.4153
 5479TIP3   OH216442   2.956   0.305   0.970  0.2340 -0.1835  0.0778
 5479TIP3    H116443   2.923   0.308   1.060 -0.1619  0.0964 -0.0753
 5479TIP3    H216444   2.983   0.394   0.951 -0.7707  0.0155 -0.4768
 5480TIP3   OH216445   0.176   4.399   0.667 -0.2277  0.3102  0.1365
 5480TIP3    H116446   0.114   4.331   0.641 -0.6693  0.7104  0.1129
 5480TIP3    H216447   0.147   4.477   0.619  0.7018  0.3395 -0.3847
 5481TIP3   OH216448   6.001   3.996   2.476  0.0743  0.0197 -0.3316
 5481TIP3    H116449   5.961   4.047   2.406 -0.0852  0.4937  0.0953
 5481TIP3    H216450   6.089   4.033   2.485 -1.1660  2.7856  2.3992
 5482TIP3   OH216451   2.030   1.196   3.880  0.0076 -0.2047 -0.7547
 5482TIP3    H116452   2.002   1.199   3.788 -2.0108  2.5210 -0.1723
 5482TIP3    H216453   2.070   1.282   3.895 -1.0221 -0.0265  1.2526
 5483TIP3   OH216454   1.394   3.344   4.053 -0.0586  0.2037 -0.0796
 5483TIP3    H116455   1.402   3.309   4.142 -1.8289  1.1254  0.5151
 5483TIP3    H216456   1.395   3.268   3.996 -0.6757 -0.5585  0.9021
 5484TIP3   OH216457   4.113   2.742   3.268 -0.2824 -0.2505  0.1062
 5484TIP3    H116458   4.122   2.653   3.300  0.3573 -0.7477 -1.3277
 5484TIP3    H216459   4.121   2.797   3.346 -0.0269 -1.4193  0.9303
 5485TIP3   OH216460   1.606   5.125   4.453 -0.2895  0.2915  0.0840
 5485TIP3    H116461   1.583   5.039   4.418 -2.4928  0.6513  0.5133
 5485TIP3    H216462   1.658   5.106   4.531 -0.8996 -0.6788  0.2746
 5486TIP3   OH216463   1.307   0.937   2.893  0.1556 -0.1568  0.2461
 5486TIP3    H116464   1.262   0.997   2.952  0.5552  0.7062 -0.2972
 5486TIP3    H216465   1.361   0.994   2.839 -0.8686 -0.8335 -1.5597
 5487TIP3   OH216466   3.389   1.643   1.648 -0.2316  0.8685 -0.1243
 5487TIP3    H116467   3.366   1.707   1.581 -1.3535 -0.5528 -1.1664
 5487TIP3    H216468   3.452   1.585   1.604 -0.0004  0.6592  0.4709
 5488TIP3   OH216469   5.402   4.153   0.562 -0.0850  0.0045  0.1797
 5488TIP3    H116470   5.340   4.089   0.526  0.7144  0.1410 -1.5498
 5488TIP3    H216471   5.439   4.196   0.485 -1.1730  3.1813  1.2589
 5489TIP3   OH216472   2.914   3.038   3.057 -0.1028 -0.3604 -0.6649
 5489TIP3    H116473   2.940   2.948   3.037 -0.6757 -0.8018  0.4704
 5489TIP3    H216474   2.846   3.058   2.992  1.0898 -0.1745 -1.8945
 5490TIP3   OH216475   5.805   1.156   1.047  0.3222 -0.2879 -0.2860
 5490TIP3    H116476   5.797   1.216   0.973 -1.0699 -1.2600 -0.9871
 5490TIP3    H216477   5.884   1.106   1.029  0.6727  0.3257 -0.4659
 5491TIP3   OH216478   0.732   2.408   1.379 -0.1517 -0.0063  0.0133
 5491TIP3    H116479   0.816   2.434   1.415 -1.2452  1.5514  1.5836
 5491TIP3    H216480   0.713   2.323   1.420 -0.6872  1.0409  2.0316
 5492TIP3   OH216481   2.779   3.228   0.343 -0.5169  0.2674  0.1506
 5492TIP3    H116482   2.781   3.321   0.367 -1.5665  0.7024 -1.3210
 5492TIP3    H216483   2.871   3.205   0.330 -0.3074  1.4579 -0.6585
 5493TIP3   OH216484   2.328   4.897   3.208 -0.0161  0.5923  0.1271
 5493TIP3    H116485   2.240   4.867   3.186 -0.0826  0.8810  0.0013
 5493TIP3    H216486   2.379   4.816   3.214 -0.3062  0.4169  0.2873
 5494TIP3   OH216487   6.327   4.107   2.755 -0.2415 -0.0703 -0.3672
 5494TIP3    H116488   6.323   4.125   2.848  2.2785 -1.5349  0.1090
 5494TIP3    H216489   6.257   4.161   2.717 -2.8812 -1.1612  2.5597
 5495TIP3   OH216490   3.481   1.484   4.166  0.9081  0.2856 -0.3692
 5495TIP3    H116491   3.403   1.534   4.190  0.6095 -0.2727 -0.1490
 5495TIP3    H216492   3.536   1.546   4.120 -0.1971  0.4019 -1.6106
 5496TIP3   OH216493   4.335   5.133   0.179 -0.4976 -0.1797  0.7965
 5496TIP3    H116494   4.305   5.109   0.091  2.0124  0.5231 -0.3555
 5496TIP3    H216495   4.263   5.183   0.216 -1.0050  0.9758 -1.5431
 5497TIP3   OH216496   3.780   2.773   4.545  0.6071 -0.4206  0.2794
 5497TIP3    H116497   3.752   2.766   4.454  1.2641 -0.8001  0.1039
 5497TIP3    H216498   3.787   2.868   4.561  1.0393 -0.3642 -0.2354
 5498TIP3   OH216499   4.512   1.047   1.823  0.3336 -0.2465 -0.2025
 5498TIP3    H116500   4.571   1.022   1.894 -0.0123  3.9779  1.8230
 5498TIP3    H216501   4.568   1.053   1.746  1.4314 -1.3639  0.4643
 5499TIP3   OH216502   1.418   2.096   0.738  0.2627  0.4291 -0.0065
 5499TIP3    H116503   1.451   2.055   0.818 -0.9254  1.4668  1.0517
 5499TIP3    H216504   1.473   2.059   0.668  0.6421 -1.3096  1.1323
 5500TIP3   OH216505   1.805   4.612   2.068 -0.2004  0.1256 -0.2705
 5500TIP3    H116506   1.719   4.591   2.033 -0.3286 -1.2176  0.7947
 5500TIP3    H216507   1.820   4.703   2.041 -1.6066  0.1332 -1.1138
 5501TIP3   OH216508   4.943   1.889   4.722 -0.0403  0.0227 -0.4875
 5501TIP3    H116509   5.016   1.918   4.668  0.7165 -1.9499 -0.6086
 5501TIP3    H216510   4.948   1.793   4.721 -1.8197 -0.1443  0.6167
 5502TIP3   OH216511   6.045   5.045   2.188 -0.2228 -1.0025  0.3952
 5502TIP3    H116512   6.005   5.069   2.104  3.1050  0.7669 -0.9094
 5502TIP3    H216513   6.081   4.958   2.173  3.0277  0.4543 -1.3245
 5503TIP3   OH216514   0.236   2.887   5.191 -0.1782  0.5606  0.0412
 5503TIP3    H116515   0.306   2.881   5.126 -0.5409  2.8552 -0.6490
 5503TIP3    H216516   0.186   2.964   5.165 -2.8318 -0.8401  0.6737
 5504TIP3   OH216517   3.445   4.619   0.861  0.3262  0.4136  0.6815
 5504TIP3    H116518   3.394   4.539   0.877  0.3504 -0.7246 -3.7525
 5504TIP3    H216519   3.536   4.589   0.859  0.3863  0.6483 -0.3823
 5505TIP3   OH216520   5.252   0.373   4.010  0.5983 -0.2716  0.1646
 5505TIP3    H116521   5.265   0.326   4.092  0.9954  0.1190  0.3300
 5505TIP3    H216522   5.301   0.322   3.945 -0.8688 -1.3696 -0.1200
 5506TIP3   OH216523   1.068   1.148   2.254  1.0069  0.2780  0.3066
 5506TIP3    H116524   1.108   1.155   2.341 -0.0945 -1.6826  1.0342
 5506TIP3    H216525   0.980   1.116   2.270  0.2254  1.3493 -1.4728
 5507TIP3   OH216526   4.220   0.527   2.672 -0.3434 -0.1459  0.4195
 5507TIP3    H116527   4.243   0.613   2.639 -0.8698  0.3402  1.2789
 5507TIP3    H216528   4.256   0.525   2.761  0.3384 -1.1128  0.1361
 5508TIP3   OH216529   2.542   5.860   4.859 -0.6500  0.3902  0.6958
 5508TIP3    H116530   2.510   5.805   4.931 -1.7221  1.6092  1.1959
 5508TIP3    H216531   2.553   5.800   4.786 -1.9065 -0.4818  1.1815
 5509TIP3   OH216532   2.326   0.259   3.180  0.3818  0.0559  0.0714
 5509TIP3    H116533   2.349   0.173   3.215 -2.0935 -0.0680  1.5974
 5509TIP3    H216534   2.357   0.321   3.245 -0.2460  0.1225  0.3134
 5510TIP3   OH216535   3.619   0.180   2.611  0.0942 -0.3945  0.4910
 5510TIP3    H116536   3.711   0.154   2.605  0.5743  1.0236  1.2505
 5510TIP3    H216537   3.580   0.151   2.528  1.3651 -0.5195 -0.0825
 5511TIP3   OH216538   3.354   0.844   5.032  0.0042  0.2590 -0.5515
 5511TIP3    H116539   3.262   0.858   5.057  0.0454  0.9623 -0.7628
 5511TIP3    H216540   3.358   0.752   5.009 -0.3637 -0.0840  0.6403
 5512TIP3   OH216541   6.206   3.313   4.338 -0.4930  0.0492 -0.1738
 5512TIP3    H116542   6.147   3.329   4.264  2.0894  0.1200 -2.3830
 5512TIP3    H216543   6.199   3.219   4.354 -0.1539 -0.2148 -1.4368
 5513TIP3   OH216544   2.815   0.103   3.059 -0.4542  0.0106 -0.0280
 5513TIP3    H116545   2.859   0.019   3.043 -0.8589 -0.3364  0.6434
 5513TIP3    H216546   2.886   0.161   3.087 -0.1680 -0.0937 -0.5107
 5514TIP3   OH216547   6.154   5.405   4.523 -0.1053  0.3707  0.3279
 5514TIP3    H116548   6.108   5.414   4.606 -0.7370 -2.8516  0.4481
 5514TIP3    H216549   6.086   5.407   4.457  0.0949  0.1951  0.1148
 5515TIP3   OH216550   6.292   5.102   4.708 -0.3615  0.3006 -0.1551
 5515TIP3    H116551   6.244   5.181   4.734 -0.5491  0.4260 -0.8723
 5515TIP3    H216552   6.356   5.133   4.644 -0.9863 -0.2377 -1.0733
 5516TIP3   OH216553   3.429   4.191   1.482  0.5756 -0.4766 -0.4542
 5516TIP3    H116554   3.424   4.100   1.511  0.0968 -0.9075 -1.7993
 5516TIP3    H216555   3.369   4.238   1.539  0.5766 -1.0721  0.0388
 5517TIP3   OH216556   5.050   1.056   5.040  0.8155  0.6974 -0.3519
 5517TIP3    H116557   4.962   1.019   5.038  1.8174 -2.1217  1.0754
 5517TIP3    H216558   5.037   1.150   5.050 -1.9900  0.4991 -1.1905
 5518TIP3   OH216559   2.940   5.064   0.715 -0.0036  0.1774 -0.4273
 5518TIP3    H116560   2.872   5.101   0.771 -0.3126 -2.3295  1.0247
 5518TIP3    H216561   3.016   5.054   0.773  0.1946 -0.9776 -0.8506
 5519TIP3   OH216562   2.181   5.321   1.165  0.8455 -0.1866  0.1084
 5519TIP3    H116563   2.175   5.308   1.071  0.3123  0.1043  0.0995
 5519TIP3    H216564   2.199   5.234   1.200  0.9517 -0.3112 -0.2526
 5520TIP3   OH216565   3.317   0.570   3.357  0.4828  0.2529  0.0890
 5520TIP3    H116566   3.248   0.636   3.356 -2.5115 -2.6235 -0.4836
 5520TIP3    H216567   3.355   0.573   3.270 -0.0422  0.7859 -0.1289
 5521TIP3   OH216568   6.236   2.332   1.870 -0.0701  0.0051 -0.0949
 5521TIP3    H116569   6.213   2.390   1.942 -0.2218  0.5802 -0.5902
 5521TIP3    H216570   6.220   2.244   1.903  0.4633  0.2238  0.7800
 5522TIP3   OH216571   3.978   5.757   0.729  0.5138 -0.2073  0.2067
 5522TIP3    H116572   3.926   5.836   0.746 -1.0710 -1.5575  2.1413
 5522TIP3    H216573   4.031   5.746   0.808  1.1912 -0.7451 -0.3124
 5523TIP3   OH216574   3.369   3.470   1.917  0.4296  0.5156 -0.0824
 5523TIP3    H116575   3.409   3.540   1.969  1.1526  0.0869 -0.0602
 5523TIP3    H216576   3.276   3.494   1.914  0.3901  0.6014  1.3239
 5524TIP3   OH216577   6.260   0.148   1.993  0.2817 -0.0518 -0.4431
 5524TIP3    H116578   6.170   0.118   2.006  0.3295  0.1007  0.2737
 5524TIP3    H216579   6.256   0.242   2.010  0.9608 -0.3496  1.7290
 5525TIP3   OH216580   4.920   3.070   1.004 -0.1267  1.0380 -0.3364
 5525TIP3    H116581   4.899   2.982   0.973 -0.1299  0.3191  1.5868
 5525TIP3    H216582   4.870   3.081   1.084 -1.2597  3.3846 -1.2440
 5526TIP3   OH216583   5.550   2.093   2.657  0.7633 -0.3027  0.1844
 5526TIP3    H116584   5.642   2.118   2.661  1.0657 -1.1354 -0.9051
 5526TIP3    H216585   5.502   2.176   2.662  1.5438  0.1075  1.1891
 5527TIP3   OH216586   2.836   4.648   1.341 -0.1046 -0.2912 -0.3834
 5527TIP3    H116587   2.882   4.729   1.319  1.4121 -1.2956 -1.1111
 5527TIP3    H216588   2.861   4.630   1.432  0.0013 -0.2229 -0.3994
 5528TIP3   OH216589   3.465   1.137   2.926  0.1951  0.3727 -0.3975
 5528TIP3    H116590   3.499   1.163   2.840 -0.0299  0.2973 -0.5085
 5528TIP3    H216591   3.528   1.073   2.958 -0.4364 -0.6156 -1.0947
 5529TIP3   OH216592   0.602   4.744   1.168  0.0782  0.1043  0.0532
 5529TIP3    H116593   0.686   4.753   1.124  0.2017  0.8061  0.4312
 5529TIP3    H216594   0.597   4.651   1.192  0.3196 -0.1382 -0.8011
 5530TIP3   OH216595   2.174   0.998   5.024  0.0275 -0.3396  0.0405
 5530TIP3    H116596   2.208   0.914   5.055  0.3260 -0.2954 -0.1617
 5530TIP3    H216597   2.251   1.054   5.015 -0.0968 -0.2302 -0.3975
 5531TIP3   OH216598   2.955   5.363   5.173 -0.2688 -0.1164 -0.1142
 5531TIP3    H116599   3.046   5.388   5.160 -0.5545  0.3372 -1.4697
 5531TIP3    H216600   2.944   5.284   5.120 -0.3861 -0.8353  0.9605
 5532TIP3   OH216601   2.752   2.957   2.088  0.0674  0.3256  0.4432
 5532TIP3    H116602   2.840   2.924   2.067 -0.5388 -1.8690  1.1009
 5532TIP3    H216603   2.761   2.992   2.177  0.5523  1.4051 -0.0017
 5533TIP3   OH216604   0.079   4.942   3.501  0.4253 -0.2449 -0.3331
 5533TIP3    H116605   0.145   4.964   3.567  1.4016 -0.9640 -1.0349
 5533TIP3    H216606   0.123   4.959   3.417 -1.1585  1.7059 -0.8280
 5534TIP3   OH216607   2.205  -0.013   2.814 -0.3651  0.1994  0.4388
 5534TIP3    H116608   2.222   0.066   2.866 -1.1140  0.5834  0.1229
 5534TIP3    H216609   2.205   0.018   2.723  0.1505 -0.3216  0.2548
 5535TIP3   OH216610   1.168   5.879   4.845  0.0185  0.1301  0.4720
 5535TIP3    H116611   1.208   5.886   4.932  1.1414 -3.3733  0.4048
 5535TIP3    H216612   1.240   5.891   4.784 -0.4696  1.0311  0.0635
 5536TIP3   OH216613   6.328   0.627   4.387 -0.2196 -0.0931  0.1223
 5536TIP3    H116614   6.250   0.636   4.333 -1.0930 -2.5376  0.8010
 5536TIP3    H216615   6.400   0.619   4.325 -0.5269  1.7119 -0.5201
 5537TIP3   OH216616   3.197   0.781   0.912 -1.1181  0.2690  0.0352
 5537TIP3    H116617   3.211   0.869   0.948 -0.7715  0.4199 -0.4490
 5537TIP3    H216618   3.227   0.788   0.821 -1.0292 -0.3675  0.0119
 5538TIP3   OH216619   0.265   1.295   0.113  0.4073 -0.4182  0.3912
 5538TIP3    H116620   0.313   1.317   0.193 -0.4263  0.5426  0.6337
 5538TIP3    H216621   0.283   1.368   0.053 -0.2902 -0.3408  0.2768
 5539TIP3   OH216622   2.425   3.756   0.815  0.5337  0.4818 -0.3670
 5539TIP3    H116623   2.434   3.778   0.908 -0.1830 -1.1102  0.1079
 5539TIP3    H216624   2.494   3.693   0.797 -0.1006 -0.1790 -0.5705
 5540TIP3   OH216625   5.079   2.092   1.819 -0.5063  0.3180  0.3895
 5540TIP3    H116626   5.060   2.101   1.726  1.4656 -0.2716 -0.1207
 5540TIP3    H216627   5.126   2.009   1.827 -1.1060  0.0885  2.0012
 5541TIP3   OH216628   6.315   5.448   2.789 -0.1891  0.8156  0.9714
 5541TIP3    H116629   6.247   5.386   2.762 -0.0672  1.0984  0.0018
 5541TIP3    H216630   6.378   5.447   2.718 -0.0899  1.9279  1.0375
 5542TIP3   OH216631   5.642   1.778   4.227  0.8852  0.0771  0.3417
 5542TIP3    H116632   5.661   1.685   4.234  3.4519  0.5363  0.5593
 5542TIP3    H216633   5.634   1.794   4.133  0.1956 -0.3880  0.3173
 5543TIP3   OH216634   5.662   2.692   4.731  0.5524 -0.4419 -0.3240
 5543TIP3    H116635   5.685   2.781   4.702  2.1586 -0.4368  0.8179
 5543TIP3    H216636   5.738   2.664   4.782  0.6070 -2.9169 -1.5950
 5544TIP3   OH216637   2.666   1.814   0.257  0.3612  0.3460  0.1766
 5544TIP3    H116638   2.724   1.763   0.200  0.3928 -0.1957  0.6837
 5544TIP3    H216639   2.582   1.770   0.252  0.4737  0.0417  0.8762
 5545TIP3   OH216640   5.021   3.100   2.916 -0.2581 -0.0480 -0.2485
 5545TIP3    H116641   4.986   3.064   2.835 -2.0119 -0.2252  0.5542
 5545TIP3    H216642   5.017   3.027   2.978 -2.5602  1.0583  1.0193
 5546TIP3   OH216643   0.594   1.398   2.198 -0.0160 -0.6450 -0.2262
 5546TIP3    H116644   0.611   1.488   2.228 -0.8870 -0.0081 -1.5893
 5546TIP3    H216645   0.679   1.366   2.169  0.1937 -0.0460 -0.2830
 5547TIP3   OH216646   5.870   1.722   2.222  0.0334 -0.6935 -0.1295
 5547TIP3    H116647   5.813   1.661   2.174 -1.3803  0.6584 -0.2097
 5547TIP3    H216648   5.902   1.782   2.155  1.1580 -1.1119  0.0094
 5548TIP3   OH216649   0.802   1.947   4.023  0.8380 -0.2220  0.1414
 5548TIP3    H116650   0.853   1.895   3.960 -0.9788 -2.3845  0.2942
 5548TIP3    H216651   0.742   1.998   3.969 -0.2140 -1.5240 -0.0029
 5549TIP3   OH216652   1.767   3.792   3.695  0.0061 -0.0558 -0.7548
 5549TIP3    H116653   1.771   3.697   3.705  0.3922 -0.0726 -1.0427
 5549TIP3    H216654   1.820   3.826   3.768  2.1153 -0.1543 -2.1390
 5550TIP3   OH216655   2.010   2.978   2.404  0.0256 -0.1346 -0.2385
 5550TIP3    H116656   2.064   2.964   2.481  1.3908  0.0807 -1.1207
 5550TIP3    H216657   1.942   3.040   2.432  0.0579 -0.6361  0.9634
 5551TIP3   OH216658   5.017   1.347   5.082 -0.0977  0.7275 -0.0782
 5551TIP3    H116659   5.014   1.438   5.053  0.9778  0.7940 -0.0213
 5551TIP3    H216660   4.948   1.341   5.148  0.1118  1.6256  0.2429
 5552TIP3   OH216661   2.317   3.003   2.937  0.2314  0.1166  0.3339
 5552TIP3    H116662   2.236   3.025   2.892  0.1203  1.1510  0.9951
 5552TIP3    H216663   2.308   2.910   2.959 -0.5978  0.1199  0.0589
 5553TIP3   OH216664   4.314   3.720   1.696  0.1351  0.0639 -0.3924
 5553TIP3    H116665   4.401   3.756   1.707 -0.3820  1.4796 -0.7467
 5553TIP3    H216666   4.327   3.641   1.643  1.3221 -0.4965  0.6690
 5554TIP3   OH216667   0.218   0.051   0.782 -0.4866  0.3756 -0.2563
 5554TIP3    H116668   0.302   0.095   0.792 -0.6714  1.1468 -1.7950
 5554TIP3    H216669   0.236  -0.041   0.803  0.0479  1.0009  2.3339
 5555TIP3   OH216670   0.313   5.035   1.364  0.9898 -0.1179  0.4267
 5555TIP3    H116671   0.360   5.018   1.446 -0.8650 -1.0390  1.3659
 5555TIP3    H216672   0.221   5.033   1.389  0.4144  1.1109 -1.4325
 5556TIP3   OH216673   2.445   4.819   4.234  0.1294 -0.3507  0.2628
 5556TIP3    H116674   2.501   4.795   4.308  0.3591 -1.7891 -0.3377
 5556TIP3    H216675   2.381   4.748   4.228 -0.4936  0.2447 -0.3158
 5557TIP3   OH216676   0.534   3.232   0.958  0.5578 -0.0430 -0.5992
 5557TIP3    H116677   0.481   3.159   0.989 -0.0272  0.6006 -0.0138
 5557TIP3    H216678   0.611   3.233   1.016 -0.2596  0.8119  0.5446
 5558TIP3   OH216679   5.757   2.638   2.208  0.0478  0.5662  0.5064
 5558TIP3    H116680   5.682   2.630   2.266 -0.9244 -2.4438 -0.9755
 5558TIP3    H216681   5.824   2.583   2.249 -0.6022 -1.4686 -1.0301
 5559TIP3   OH216682   4.686   4.711   0.484  0.0902  0.0497 -0.2416
 5559TIP3    H116683   4.765   4.694   0.433 -0.3476 -0.1922 -0.8499
 5559TIP3    H216684   4.700   4.798   0.521  0.9608 -0.2912  0.2752
 5560TIP3   OH216685   0.503   5.856   2.836  0.0273  0.5916  0.0583
 5560TIP3    H116686   0.591   5.835   2.867  0.7875  3.2971 -0.0124
 5560TIP3    H216687   0.515   5.876   2.743 -0.9220 -0.3689 -0.2803
 5561TIP3   OH216688   2.570   1.664   2.047 -0.0533  0.4302  0.0381
 5561TIP3    H116689   2.510   1.727   2.007 -0.2075 -0.3241 -0.9513
 5561TIP3    H216690   2.654   1.711   2.052 -0.4843  1.1637  0.5573
 5562TIP3   OH216691   5.885   4.921   0.597  0.2457  0.3850  0.9539
 5562TIP3    H116692   5.944   4.973   0.651  0.5214  2.2663 -1.0249
 5562TIP3    H216693   5.823   4.984   0.562  0.9443 -0.4561 -2.0524
 5563TIP3   OH216694   1.071   0.103   0.767 -0.7024 -0.3516 -0.5329
 5563TIP3    H116695   1.103   0.025   0.812  0.0034  0.6019  0.6876
 5563TIP3    H216696   1.107   0.176   0.818 -0.2554  0.7807 -2.3912
 5564TIP3   OH216697   0.444   2.546   0.161 -0.2058 -0.8809  0.0862
 5564TIP3    H116698   0.449   2.544   0.257  0.0048 -1.6782  0.0634
 5564TIP3    H216699   0.364   2.595   0.142 -1.3969 -2.5038  0.7128
 5565TIP3   OH216700   2.022   1.868   2.626 -0.3681  0.9159 -0.4367
 5565TIP3    H116701   1.968   1.837   2.699 -0.3672  1.5858 -0.1425
 5565TIP3    H216702   2.112   1.848   2.652 -0.3960  0.7863 -0.4387
 5566TIP3   OH216703   0.408   2.335   1.016  0.7925  0.3091 -0.0508
 5566TIP3    H116704   0.402   2.422   0.976 -0.2762 -0.3011 -1.2864
 5566TIP3    H216705   0.434   2.352   1.107 -0.0018  1.9696 -0.0984
 5567TIP3   OH216706   5.667   3.783   1.226  0.0113  0.1125 -0.1540
 5567TIP3    H116707   5.663   3.830   1.309 -1.9588 -1.0595  0.4947
 5567TIP3    H216708   5.743   3.820   1.180  0.6117  1.4063  1.7721
 5568TIP3   OH216709   1.722   0.924   2.747 -0.0634 -0.0288  0.3673
 5568TIP3    H116710   1.799   0.875   2.774 -0.6473 -1.0325  0.2490
 5568TIP3    H216711   1.756   1.011   2.725  0.6756  0.3687  2.7584
 5569TIP3   OH216712   1.239   5.655   4.521  0.2667 -0.3196  0.7866
 5569TIP3    H116713   1.275   5.603   4.592  2.1498  0.5103  0.4961
 5569TIP3    H216714   1.295   5.635   4.446 -0.0202  0.8321  0.2357
 5570TIP3   OH216715   6.285   2.049   4.661 -0.0816  0.4932 -0.4566
 5570TIP3    H116716   6.363   2.077   4.708 -1.3651 -0.3088  2.3389
 5570TIP3    H216717   6.256   2.127   4.613  0.6895  1.7102  0.9824
 5571TIP3   OH216718   1.230   2.174   1.963 -0.2587 -0.7136 -0.1628
 5571TIP3    H116719   1.170   2.240   1.926  1.4311  1.2571  0.4389
 5571TIP3    H216720   1.214   2.178   2.057 -0.9063 -2.0032 -0.1981
 5572TIP3   OH216721   3.245   3.707   2.557  0.1378 -0.2778 -0.2876
 5572TIP3    H116722   3.307   3.649   2.512  1.8826  0.6189  0.8381
 5572TIP3    H216723   3.269   3.701   2.649 -0.5258  1.1936  0.0092
 5573TIP3   OH216724   0.657   2.416   4.589  0.1588  0.3146  0.6961
 5573TIP3    H116725   0.723   2.368   4.537  0.1897  0.2018  0.8382
 5573TIP3    H216726   0.671   2.508   4.567  0.2658  0.2784  0.6112
 5574TIP3   OH216727   3.057   4.739   0.169  0.5514 -0.2952 -0.0494
 5574TIP3    H116728   3.103   4.733   0.253 -2.4378 -0.2519  1.7403
 5574TIP3    H216729   3.018   4.653   0.157  1.2951 -0.4349 -1.6790
 5575TIP3   OH216730   0.906   4.420   2.544 -0.3097  0.0172 -0.2691
 5575TIP3    H116731   0.899   4.416   2.640  0.8787  0.3651 -0.1601
 5575TIP3    H216732   0.895   4.513   2.524  0.7101  0.1257 -0.3546
 5576TIP3   OH216733   0.364   1.590   0.379 -0.0546 -0.2089 -0.5938
 5576TIP3    H116734   0.318   1.668   0.348  1.1809  1.5180  1.5917
 5576TIP3    H216735   0.443   1.586   0.326 -0.7436 -0.7779 -1.5984
 5577TIP3   OH216736   6.118   0.720   2.083  0.0577  0.4763 -0.5016
 5577TIP3    H116737   6.153   0.750   2.167  0.8499  1.3389 -1.1117
 5577TIP3    H216738   6.024   0.711   2.099  0.3200 -0.3882  0.7467
 5578TIP3   OH216739   1.231   2.801   1.158  0.5579  0.5305  0.0095
 5578TIP3    H116740   1.177   2.879   1.163  0.2923  0.5581 -2.3401
 5578TIP3    H216741   1.229   2.775   1.066  2.6260 -0.8420  0.2662
 5579TIP3   OH216742   2.820   0.591   0.780 -0.0992  0.0878  0.0082
 5579TIP3    H116743   2.779   0.510   0.749 -0.1722 -1.0144  2.6995
 5579TIP3    H216744   2.846   0.637   0.700 -1.8047 -1.6559 -1.6598
 5580TIP3   OH216745   4.236   3.707   4.877  0.4728 -0.3109  0.0297
 5580TIP3    H116746   4.301   3.718   4.808 -0.3296  1.1050 -0.5566
 5580TIP3    H216747   4.166   3.768   4.853  0.2314  0.3090  2.1547
 5581TIP3   OH216748   0.936   4.735   3.875  0.0895  0.4323 -0.0117
 5581TIP3    H116749   0.874   4.785   3.928  1.9323  2.0031  0.7838
 5581TIP3    H216750   0.937   4.779   3.790 -0.5346 -0.1481 -0.3253
 5582TIP3   OH216751   5.586   3.280   3.476  0.3530 -0.1035  0.1902
 5582TIP3    H116752   5.602   3.373   3.460 -2.8601  0.3147 -1.3449
 5582TIP3    H216753   5.547   3.278   3.564 -0.3001  0.1132 -0.0908
 5583TIP3   OH216754   6.349   4.038   2.012 -0.3655 -0.1658 -0.0454
 5583TIP3    H116755   6.253   4.045   2.008 -0.2848  1.2276  0.1669
 5583TIP3    H216756   6.365   3.968   2.075 -1.2410 -0.5094 -0.1827
 5584TIP3   OH216757   2.780   2.990   1.423  0.0810  0.0427 -0.4367
 5584TIP3    H116758   2.790   2.957   1.334 -1.0392 -0.3595 -0.4242
 5584TIP3    H216759   2.717   2.930   1.464 -0.4210  0.9966  0.2135
 5585TIP3   OH216760   5.755   2.750   3.337  0.0005 -0.3781  0.0942
 5585TIP3    H116761   5.779   2.832   3.294 -2.5905  0.3423 -0.1675
 5585TIP3    H216762   5.807   2.749   3.418  0.4008  1.2960 -0.1153
 5586TIP3   OH216763   2.140   4.658   4.160  0.2972  0.3068  0.0121
 5586TIP3    H116764   2.130   4.563   4.162  0.6944  0.2646  1.6867
 5586TIP3    H216765   2.182   4.676   4.076 -3.1899 -0.5754 -2.1239
 5587TIP3   OH216766   2.616   2.081   2.598 -0.7339  0.1132  0.3671
 5587TIP3    H116767   2.691   2.026   2.576 -0.3955  1.1773 -1.3504
 5587TIP3    H216768   2.649   2.171   2.591 -2.2255  0.6213 -0.8954
 5588TIP3   OH216769   4.263   0.549   0.949  0.6843 -0.4868 -0.1449
 5588TIP3    H116770   4.181   0.501   0.936  0.3303 -0.3984  1.5234
 5588TIP3    H216771   4.329   0.480   0.960  0.3622 -0.6134  1.1467
 5589TIP3   OH216772   3.332   0.883   1.746 -0.0681 -0.0047  0.0633
 5589TIP3    H116773   3.270   0.832   1.695 -1.8098  0.9178  1.1486
 5589TIP3    H216774   3.281   0.958   1.778  1.6320  0.8439  0.9453
 5590TIP3   OH216775   1.222   4.372   3.367  0.6628 -0.6433 -0.3909
 5590TIP3    H116776   1.143   4.411   3.405  1.7110 -0.5795  1.8989
 5590TIP3    H216777   1.225   4.407   3.278  1.4338  4.5655  1.3699
 5591TIP3   OH216778   4.666   4.193   3.656  0.0558 -0.2286 -0.1359
 5591TIP3    H116779   4.572   4.193   3.636 -0.4067  0.3430  1.7756
 5591TIP3    H216780   4.682   4.108   3.697  0.5305 -0.5785 -1.0245
 5592TIP3   OH216781   3.377   1.916   0.004 -0.2216 -0.1049 -0.3239
 5592TIP3    H116782   3.404   1.867  -0.073  0.8241  0.3035 -0.2309
 5592TIP3    H216783   3.413   1.866   0.078 -0.4190  0.0079 -0.1509
 5593TIP3   OH216784   5.908   4.618   0.025 -0.0601 -0.0184  0.1479
 5593TIP3    H116785   5.840   4.551   0.016 -1.8040  0.9071  4.1839
 5593TIP3    H216786   5.984   4.571   0.059  0.4598 -0.6051 -1.7009
 5594TIP3   OH216787   6.175   4.629   3.092 -0.0343  0.1622 -0.3271
 5594TIP3    H116788   6.095   4.579   3.107 -0.1070  0.4292  0.1936
 5594TIP3    H216789   6.157   4.679   3.013 -1.0432  1.5263  0.7268
 5595TIP3   OH216790   3.865   5.136   3.010 -0.3997  0.9451 -0.2665
 5595TIP3    H116791   3.864   5.130   2.915 -1.4353  0.6154 -0.2419
 5595TIP3    H216792   3.774   5.148   3.035 -0.6192 -2.0781  0.8559
 5596TIP3   OH216793   1.830   4.418   0.781 -0.2519  0.8456  0.7016
 5596TIP3    H116794   1.845   4.368   0.861  0.4482 -0.0753  0.0144
 5596TIP3    H216795   1.890   4.492   0.788  0.8407  0.0237  0.4161
 5597TIP3   OH216796   3.283   3.521   0.403 -0.2391 -0.0167 -0.3646
 5597TIP3    H116797   3.242   3.564   0.328 -0.5483 -0.1757 -0.2899
 5597TIP3    H216798   3.230   3.548   0.478 -0.9653 -1.1949 -0.4268
 5598TIP3   OH216799   5.595   4.158   0.321  0.1089 -0.1621 -0.1670
 5598TIP3    H116800   5.579   4.235   0.266  0.3322 -1.0363 -1.4943
 5598TIP3    H216801   5.688   4.140   0.309  0.3564  0.1304  1.1931
 5599TIP3   OH216802   6.219   2.782   2.536  0.3034  0.2936 -0.0713
 5599TIP3    H116803   6.164   2.785   2.458 -1.0869 -0.1863  0.8466
 5599TIP3    H216804   6.254   2.871   2.544  0.6992  0.2804 -1.3653
 5600TIP3   OH216805   2.209   0.796   0.018  0.2910 -0.6619  0.2247
 5600TIP3    H116806   2.165   0.753  -0.054  2.9741 -0.9670 -1.3488
 5600TIP3    H216807   2.246   0.725   0.071  0.1582 -0.3906  0.6931
 5601TIP3   OH216808   3.200   0.909   0.083  0.4438  0.2047  0.1669
 5601TIP3    H116809   3.238   0.947   0.162  0.7970 -0.2644  0.2288
 5601TIP3    H216810   3.190   0.983   0.023 -0.9865  0.7928  1.0892
 5602TIP3   OH216811   4.654   4.271   2.663  0.2683 -0.4570 -0.3160
 5602TIP3    H116812   4.710   4.214   2.611  2.1574 -0.6280  1.7151
 5602TIP3    H216813   4.570   4.226   2.667  0.7690 -1.5300 -1.3012
 5603TIP3   OH216814   0.192   5.269   2.884 -0.1437  0.3853 -0.4377
 5603TIP3    H116815   0.123   5.209   2.854 -0.2886  0.9676 -1.3022
 5603TIP3    H216816   0.146   5.352   2.901  0.2408  0.5897 -0.3798
 5604TIP3   OH216817   0.338   0.409   3.784 -0.2757 -0.7530  0.4281
 5604TIP3    H116818   0.244   0.403   3.802 -0.2513 -0.9363  0.5038
 5604TIP3    H216819   0.344   0.416   3.689 -0.3753 -0.5145  0.4370
 5605TIP3   OH216820   2.359   4.779   1.494 -0.0352 -0.0865 -0.1963
 5605TIP3    H116821   2.432   4.764   1.554 -0.7992  1.4479  1.2091
 5605TIP3    H216822   2.381   4.861   1.450  0.4001 -1.0750 -1.9128
 5606TIP3   OH216823   3.738   0.172   1.668  0.3001 -0.1380 -0.0223
 5606TIP3    H116824   3.656   0.171   1.617  0.6856  1.0501 -0.7099
 5606TIP3    H216825   3.755   0.080   1.687 -1.5894 -0.3708  0.8033
 5607TIP3   OH216826   1.441   5.699   3.000  0.1434  0.4249 -0.0265
 5607TIP3    H116827   1.471   5.648   2.925 -0.8590 -0.5016  0.1674
 5607TIP3    H216828   1.366   5.649   3.033 -0.0600  1.3655  0.9605
 5608TIP3   OH216829   5.733   2.690   3.932  0.4597 -0.2608 -0.5535
 5608TIP3    H116830   5.742   2.601   3.964 -1.5877 -0.0024  0.9153
 5608TIP3    H216831   5.811   2.704   3.877  0.4290 -3.1832 -1.4885
 5609TIP3   OH216832   4.007   5.101   1.486  0.0897 -0.1050 -0.4181
 5609TIP3    H116833   4.041   5.038   1.549 -1.3902  1.0901  1.7020
 5609TIP3    H216834   4.019   5.186   1.528 -0.9805  0.7498 -1.7369
 5610TIP3   OH216835   5.822   1.439   4.446 -0.4809 -0.2327 -0.0239
 5610TIP3    H116836   5.908   1.480   4.440 -0.5692 -0.1271 -0.6616
 5610TIP3    H216837   5.766   1.507   4.484 -0.4993  0.0405 -0.5321
 5611TIP3   OH216838   5.835   1.298   1.945 -0.3176 -0.1927  0.0980
 5611TIP3    H116839   5.880   1.264   1.868  0.4092  1.4868 -0.2665
 5611TIP3    H216840   5.759   1.241   1.956 -0.6234 -0.2690 -2.0721
 5612TIP3   OH216841   1.676   2.605   0.054  0.2052  0.1946  0.1672
 5612TIP3    H116842   1.746   2.567   0.000 -0.3757 -0.3449 -0.2178
 5612TIP3    H216843   1.602   2.545   0.043 -0.2374  0.6187  0.7814
 5613TIP3   OH216844   0.227   4.032   2.978 -0.2340  0.5005 -0.0319
 5613TIP3    H116845   0.286   4.102   2.952 -0.6981  0.7121 -0.5442
 5613TIP3    H216846   0.207   4.049   3.069  0.2215  0.6238  0.0440
 5614TIP3   OH216847   4.871   3.088   3.444 -1.0737 -0.3521  0.2477
 5614TIP3    H116848   4.854   3.111   3.353  0.0345  0.6151  0.2510
 5614TIP3    H216849   4.876   2.993   3.445 -1.7908 -0.4058 -0.5657
 5615TIP3   OH216850   4.571   5.958   2.111 -0.0307  0.2685  0.2247
 5615TIP3    H116851   4.551   5.876   2.067  1.1638  0.4323 -0.6852
 5615TIP3    H216852   4.489   6.008   2.110 -0.1976  0.0150 -1.2891
 5616TIP3   OH216853   0.525   2.679   4.604  0.1821  0.0111 -0.0515
 5616TIP3    H116854   0.480   2.617   4.547  4.0446 -1.7690 -1.5806
 5616TIP3    H216855   0.543   2.629   4.684  2.4975 -0.7276 -0.9315
 5617TIP3   OH216856   3.821   2.633   4.876 -0.3893  0.0162 -0.6779
 5617TIP3    H116857   3.884   2.634   4.804 -1.1247 -0.1427 -1.3426
 5617TIP3    H216858   3.736   2.649   4.834 -0.5691  2.6400  0.4559
 5618TIP3   OH216859   5.935   4.661   4.260 -0.3300  0.2720 -0.5811
 5618TIP3    H116860   6.014   4.713   4.259 -0.1770  0.0467 -0.4344
 5618TIP3    H216861   5.925   4.634   4.351 -1.3216  1.4200 -0.3233
 5619TIP3   OH216862   1.652   1.982   4.369 -0.1522 -0.5017 -0.0532
 5619TIP3    H116863   1.583   2.045   4.385  1.1630  1.3851 -1.3482
 5619TIP3    H216864   1.629   1.941   4.286 -0.0255 -0.3175 -0.1792
 5620TIP3   OH216865   6.119   0.697   1.810  0.4362  0.2495 -0.0253
 5620TIP3    H116866   6.111   0.788   1.779  1.2265  0.6241  0.8211
 5620TIP3    H216867   6.115   0.704   1.906 -1.3200 -0.8180  0.0296
 5621TIP3   OH216868   4.340   3.424   3.530  0.0713 -0.4498 -0.5689
 5621TIP3    H116869   4.337   3.443   3.624  0.8819  0.9505 -0.8065
 5621TIP3    H216870   4.371   3.505   3.489  3.4332 -2.0876 -1.6653
 5622TIP3   OH216871   2.930   3.424   0.918  0.3893 -0.1393 -0.1325
 5622TIP3    H116872   2.948   3.514   0.943 -0.4318  0.1644 -0.5906
 5622TIP3    H216873   3.017   3.385   0.905  0.7697  1.2463 -2.2308
 5623TIP3   OH216874   1.597   0.461   4.568 -0.2976 -0.1919 -0.1345
 5623TIP3    H116875   1.571   0.550   4.595 -0.1525  0.0264 -0.7084
 5623TIP3    H216876   1.662   0.435   4.633  0.1149  0.3644 -0.3124
 5624TIP3   OH216877   5.208   5.752   2.300  0.2374  0.1728  0.8579
 5624TIP3    H116878   5.298   5.784   2.297  0.3109  0.0451  1.5455
 5624TIP3    H216879   5.176   5.776   2.387 -0.8979  1.5220  0.1048
 5625TIP3   OH216880   3.665   2.610   0.817 -0.4407 -0.7603  0.1093
 5625TIP3    H116881   3.747   2.588   0.861 -0.6591 -2.2134 -0.1496
 5625TIP3    H216882   3.661   2.705   0.820  0.4201 -0.7365  1.6411
 5626TIP3   OH216883   4.613   5.357   3.162 -0.2898  0.0579  0.4866
 5626TIP3    H116884   4.584   5.394   3.246  1.2666 -1.8274  1.9400
 5626TIP3    H216885   4.652   5.431   3.116  0.6793  0.7538  2.3135
 5627TIP3   OH216886   1.932   0.274   3.958 -0.2202  0.0700  0.0538
 5627TIP3    H116887   1.936   0.330   4.036 -0.4163  0.7085 -0.3820
 5627TIP3    H216888   1.875   0.322   3.898  2.1833  1.0148 -1.5972
 5628TIP3   OH216889   0.725   1.660   4.889  0.2889  0.3881  0.1396
 5628TIP3    H116890   0.713   1.755   4.888  0.2997  0.3928 -0.9385
 5628TIP3    H216891   0.668   1.628   4.818  0.6892 -0.3589  0.1410
 5629TIP3   OH216892   5.109   5.020   5.120  0.3026  0.3877  0.0667
 5629TIP3    H116893   5.022   4.987   5.096  0.2896  0.4745 -0.0087
 5629TIP3    H216894   5.102   5.115   5.108 -0.2402  0.6458  2.1279
 5630TIP3   OH216895   4.456   4.732   1.862  0.1014 -0.2096 -0.5816
 5630TIP3    H116896   4.395   4.698   1.927 -0.0126 -2.5520 -1.7995
 5630TIP3    H216897   4.532   4.761   1.913  0.4772 -2.9740  0.5897
 5631TIP3   OH216898   2.372   0.243   2.542  0.3535  0.2608  0.2783
 5631TIP3    H116899   2.436   0.203   2.600 -0.3938 -0.6092  0.5319
 5631TIP3    H216900   2.294   0.255   2.597 -1.0716 -2.4182 -0.9214
 5632TIP3   OH216901   5.414   0.572   5.187 -0.2987  0.1405  0.0273
 5632TIP3    H116902   5.409   0.630   5.111 -0.0040  1.2245  0.8194
 5632TIP3    H216903   5.507   0.551   5.196 -0.5448 -1.6916 -1.1311
 5633TIP3   OH216904   0.125   0.187   0.270 -0.2031 -1.0939 -0.4273
 5633TIP3    H116905   0.056   0.124   0.251 -1.0205 -0.0478 -1.0693
 5633TIP3    H216906   0.126   0.245   0.194 -0.4179  0.4706  0.6948
 5634TIP3   OH216907   0.100   5.192   1.541  0.7434 -0.3218  0.1380
 5634TIP3    H116908   0.173   5.248   1.566  0.5629  0.0547 -0.1579
 5634TIP3    H216909   0.096   5.125   1.609  0.1614  0.7702  1.2239
 5635TIP3   OH216910   1.638   2.200   1.745  0.7571  0.1819 -0.2502
 5635TIP3    H116911   1.552   2.163   1.763  0.6954  0.0414 -0.8183
 5635TIP3    H216912   1.697   2.125   1.743  0.3557 -0.1945 -3.2017
 5636TIP3   OH216913   5.379   4.833   4.247  0.4711 -0.1173 -0.1355
 5636TIP3    H116914   5.443   4.831   4.176  0.6217 -1.8844  0.0094
 5636TIP3    H216915   5.401   4.758   4.302 -2.0442 -1.1537 -0.3952
 5637TIP3   OH216916   5.586   0.240   4.561 -0.6467 -0.1189  0.0923
 5637TIP3    H116917   5.590   0.297   4.637 -2.3591 -2.1832  1.9061
 5637TIP3    H216918   5.529   0.286   4.499  1.9639  2.2756 -0.7079
 5638TIP3   OH216919   5.125   5.124   3.335 -0.0979 -0.3239 -0.4269
 5638TIP3    H116920   5.206   5.103   3.289 -0.1906 -0.1094 -0.6919
 5638TIP3    H216921   5.086   5.195   3.284 -0.1483 -0.0024  0.0481
 5639TIP3   OH216922   1.468   3.307   2.965 -0.9329 -0.4332  0.1973
 5639TIP3    H116923   1.518   3.318   2.884 -0.1799 -3.7472  0.0499
 5639TIP3    H216924   1.534   3.282   3.030 -1.9550 -1.3576  0.9078
 5640TIP3   OH216925   1.223   5.446   1.499 -0.3337 -0.4441 -0.1489
 5640TIP3    H116926   1.318   5.433   1.502 -0.5501 -2.3893 -0.4170
 5640TIP3    H216927   1.212   5.538   1.476  1.5136 -0.4026 -1.0521
 5641TIP3   OH216928   2.601   5.527   2.304  0.1852  0.1211 -0.1414
 5641TIP3    H116929   2.640   5.463   2.363  0.6535 -0.0804 -0.6500
 5641TIP3    H216930   2.510   5.536   2.334 -0.3635 -1.9322 -0.9579
 5642TIP3   OH216931   2.314   4.152   4.772 -0.4909  0.3521 -0.3501
 5642TIP3    H116932   2.318   4.078   4.712  1.5397 -1.2202  1.5792
 5642TIP3    H216933   2.259   4.121   4.845  1.3042  0.2285  1.0158
 5643TIP3   OH216934   5.949   4.955   2.426 -0.4263 -0.3892  0.0223
 5643TIP3    H116935   5.867   4.906   2.413 -0.1549 -0.9089  0.2292
 5643TIP3    H216936   5.969   4.991   2.340  0.4595 -2.3759 -0.6530
 5644TIP3   OH216937   5.977   0.212   1.798 -0.1866 -0.2595  0.1819
 5644TIP3    H116938   5.976   0.121   1.769 -1.7459 -0.0030 -0.7179
 5644TIP3    H216939   6.058   0.248   1.763 -0.7909 -0.6488 -1.7280
 5645TIP3   OH216940   3.490   2.290   3.156  0.1194  0.3122 -0.4256
 5645TIP3    H116941   3.508   2.236   3.233 -1.8191  0.0883 -0.0902
 5645TIP3    H216942   3.410   2.338   3.178  0.1358  1.0549 -1.8865
 5646TIP3   OH216943   5.322   1.918   4.094 -0.2544  0.1072 -0.2455
 5646TIP3    H116944   5.227   1.914   4.104 -0.0256 -1.5167  1.7484
 5646TIP3    H216945   5.356   1.889   4.178  2.0201 -0.2701 -1.2389
 5647TIP3   OH216946   3.217   3.247   2.406 -0.1698  0.3851  0.2453
 5647TIP3    H116947   3.273   3.169   2.404  0.4933  0.8540 -1.3826
 5647TIP3    H216948   3.253   3.299   2.478  1.4920  0.6411 -0.7139
 5648TIP3   OH216949   0.701   3.271   3.386 -0.7998  0.6041  0.0694
 5648TIP3    H116950   0.698   3.262   3.291  1.4503 -3.0031  0.1429
 5648TIP3    H216951   0.611   3.294   3.411 -2.7858 -3.0397 -2.6945
 5649TIP3   OH216952   1.229   2.603   3.193  0.7500 -0.4791  0.3407
 5649TIP3    H116953   1.246   2.671   3.258 -1.6187  0.1928  0.3416
 5649TIP3    H216954   1.173   2.540   3.238 -0.5447 -0.2406 -0.8549
 5650TIP3   OH216955   2.596   3.145   1.247  0.0340  0.0967  0.6002
 5650TIP3    H116956   2.529   3.213   1.241  0.9880  1.1885  1.7550
 5650TIP3    H216957   2.609   3.131   1.341  0.1961 -1.3692  0.3934
 5651TIP3   OH216958   6.204   1.918   1.734  0.2458  0.1241 -0.3289
 5651TIP3    H116959   6.131   1.857   1.722  0.7499 -0.2620 -1.6035
 5651TIP3    H216960   6.170   1.984   1.794 -0.8673 -0.5104 -0.2269
 5652TIP3   OH216961   0.461   5.238   3.097 -0.0875  0.1066 -0.2004
 5652TIP3    H116962   0.448   5.145   3.076  0.0143 -0.0211  0.3012
 5652TIP3    H216963   0.384   5.281   3.059 -0.4153 -0.2552  0.0339
 5653TIP3   OH216964   0.243   3.208   0.652 -0.5058 -0.7346 -0.2165
 5653TIP3    H116965   0.241   3.243   0.741 -1.1966 -0.6360 -0.2609
 5653TIP3    H216966   0.320   3.247   0.612  0.8175 -2.1071  0.8641
 5654TIP3   OH216967   5.331   5.381   3.521  0.5377 -0.4170 -0.4410
 5654TIP3    H116968   5.325   5.473   3.496 -0.3913 -0.7343 -1.4878
 5654TIP3    H216969   5.411   5.350   3.480  0.4960 -0.2348 -0.6645
 5655TIP3   OH216970   1.507   5.099   2.048 -0.0178 -0.1404 -0.3724
 5655TIP3    H116971   1.535   5.020   2.094  0.3668 -0.8814 -1.8519
 5655TIP3    H216972   1.507   5.076   1.956 -0.8880  1.2923 -0.7713
 5656TIP3   OH216973   6.080   3.350   2.531 -0.1869 -0.0126  0.2933
 5656TIP3    H116974   6.113   3.387   2.449  0.0558  0.9965  0.8229
 5656TIP3    H216975   6.021   3.418   2.565 -2.3153 -1.4601 -0.2875
 5657TIP3   OH216976   4.765   3.608   2.183 -0.0335 -0.2473  0.0582
 5657TIP3    H116977   4.741   3.630   2.274  1.3417  1.5890  0.0293
 5657TIP3    H216978   4.860   3.615   2.181 -0.1614  1.9183 -2.0189
 5658TIP3   OH216979   1.903   1.020   0.489  0.2818  0.2682 -0.1838
 5658TIP3    H116980   1.919   1.103   0.534 -2.4573  0.5559  0.4333
 5658TIP3    H216981   1.841   1.042   0.420 -0.4519 -1.2332 -0.0473
 5659TIP3   OH216982   2.174   4.666   4.834  0.3995 -0.2772  0.3724
 5659TIP3    H116983   2.234   4.635   4.766 -0.6583  0.0406 -0.7545
 5659TIP3    H216984   2.229   4.718   4.892  1.1050  0.6863 -1.0850
 5660TIP3   OH216985   3.788   2.724   3.011 -0.6879 -0.0329 -0.5259
 5660TIP3    H116986   3.748   2.784   3.074  1.1712  2.7973 -1.7995
 5660TIP3    H216987   3.873   2.764   2.991  0.9732 -3.4963 -1.0681
 5661TIP3   OH216988   4.249   0.396   2.437 -0.3042 -0.4920 -0.1306
 5661TIP3    H116989   4.244   0.471   2.379 -1.9573 -1.1226 -0.8607
 5661TIP3    H216990   4.221   0.429   2.522 -0.6335 -0.1817 -0.3589
 5662TIP3   OH216991   6.079   1.927   1.228 -0.2314 -0.4961  0.3313
 5662TIP3    H116992   6.105   2.019   1.226 -1.2106 -0.0452 -4.1792
 5662TIP3    H216993   6.155   1.880   1.193 -0.7354 -0.9349 -0.2174
 5663TIP3   OH216994   1.611   4.856   3.293  0.0978  0.0096 -0.3937
 5663TIP3    H116995   1.547   4.925   3.310  1.1049  0.4832  1.7088
 5663TIP3    H216996   1.561   4.774   3.304 -0.4487  0.3788 -0.0577
 5664TIP3   OH216997   2.423   1.708   3.709  0.0052 -0.1235  0.2000
 5664TIP3    H116998   2.444   1.799   3.692 -0.5584  0.2608  1.4014
 5664TIP3    H216999   2.386   1.676   3.627  1.4396  0.3186 -0.6682
 5665TIP3   OH217000   6.030   0.939   3.557 -0.2298 -0.2429 -0.0801
 5665TIP3    H117001   5.961   0.895   3.507  0.4408 -1.0143 -0.3396
 5665TIP3    H217002   6.090   0.973   3.491  0.3943 -0.8282  0.1747
 5666TIP3   OH217003   0.825   2.273   4.428  0.7345  0.7377  0.3437
 5666TIP3    H117004   0.839   2.193   4.479 -0.1363  0.8401  0.7714
 5666TIP3    H217005   0.855   2.251   4.340  0.7084  0.0069  0.5106
 5667TIP3   OH217006   2.340   5.412   1.475  0.2630 -0.0859 -0.3613
 5667TIP3    H117007   2.373   5.334   1.431  0.8697  0.3574 -0.7171
 5667TIP3    H217008   2.312   5.470   1.405  0.5194  0.3191 -0.1352
 5668TIP3   OH217009   3.593   1.398   0.620 -0.0005  0.4781 -0.4635
 5668TIP3    H117010   3.516   1.437   0.661 -0.3221  0.1873 -0.7826
 5668TIP3    H217011   3.627   1.338   0.687  0.1571  0.8670 -0.1913
 5669TIP3   OH217012   5.375   4.361   3.171 -0.0317 -0.3798 -0.6997
 5669TIP3    H117013   5.406   4.316   3.249 -0.6605  0.9169  0.3225
 5669TIP3    H217014   5.449   4.356   3.110  0.9951 -0.1807  0.4845
 5670TIP3   OH217015   0.890   1.394   0.288 -0.0399  0.1665  0.3748
 5670TIP3    H117016   0.862   1.348   0.367 -0.3122 -1.3530 -0.5670
 5670TIP3    H217017   0.840   1.353   0.217 -0.3944  2.0229 -0.5187
 5671TIP3   OH217018   1.247   5.154   2.167  0.2175  0.1041  0.3682
 5671TIP3    H117019   1.315   5.132   2.104  0.0440 -0.6665  0.4391
 5671TIP3    H217020   1.232   5.248   2.155  0.9277  0.1735 -0.0007
 5672TIP3   OH217021   4.479   3.576   0.226 -0.7565  0.6350 -0.1779
 5672TIP3    H117022   4.463   3.659   0.181 -1.2374  0.6845  0.0760
 5672TIP3    H217023   4.572   3.559   0.213 -0.8360  0.7763 -0.9698
 5673TIP3   OH217024   1.991   1.305   2.219  0.2467 -0.2845  0.4650
 5673TIP3    H117025   2.055   1.234   2.226  1.1568  0.6367  1.9222
 5673TIP3    H217026   1.946   1.305   2.303  0.8184  1.3448  0.8131
 5674TIP3   OH217027   1.334   1.588   2.179 -0.2095 -0.7358 -0.4842
 5674TIP3    H117028   1.333   1.600   2.084  0.2705  1.5420 -0.2638
 5674TIP3    H217029   1.242   1.580   2.203 -0.3224 -1.6725 -1.1386
 5675TIP3   OH217030   5.660   3.856   0.424 -0.0371  0.1763 -0.0322
 5675TIP3    H117031   5.609   3.844   0.344 -1.2577 -2.5911  1.0505
 5675TIP3    H217032   5.751   3.857   0.394 -0.4928 -0.2537 -1.5019
 5676TIP3   OH217033   0.198   3.390   4.408 -0.8793  0.4984  0.1245
 5676TIP3    H117034   0.111   3.395   4.448 -1.0237  2.0678 -0.3416
 5676TIP3    H217035   0.216   3.296   4.403 -2.1495  0.1711  1.0579
 5677TIP3   OH217036   3.914   1.357   4.197  0.5252  0.7302  0.0629
 5677TIP3    H117037   3.876   1.375   4.112 -0.2345  2.6177  0.7471
 5677TIP3    H217038   4.006   1.380   4.188  0.5593  0.4160 -0.3889
 5678TIP3   OH217039   5.200   0.078   2.168 -0.2949 -0.4959 -0.2932
 5678TIP3    H117040   5.198  -0.001   2.114 -1.1061 -0.5514 -0.1972
 5678TIP3    H217041   5.135   0.135   2.128 -0.6066 -0.3752  0.3756
 5679TIP3   OH217042   2.721   4.842   0.458  0.6747 -0.1386 -0.3562
 5679TIP3    H117043   2.627   4.850   0.437  0.5102  2.8598  0.9922
 5679TIP3    H217044   2.765   4.887   0.386  1.1381 -1.5108 -0.9684
 5680TIP3   OH217045   4.179   3.733   3.907  0.0355 -0.3394  0.2421
 5680TIP3    H117046   4.151   3.810   3.956 -3.5592 -1.2281 -0.1593
 5680TIP3    H217047   4.163   3.660   3.966  1.3961 -1.0038 -0.1658
 5681TIP3   OH217048   1.867   0.781   1.215 -0.2202 -0.9796 -0.0522
 5681TIP3    H117049   1.778   0.757   1.242 -0.3283 -2.6489 -1.6931
 5681TIP3    H217050   1.879   0.737   1.131  1.2287  1.3600 -1.1658
 5682TIP3   OH217051   2.140   3.896   1.051 -0.1654 -0.7438 -0.2078
 5682TIP3    H117052   2.165   3.925   1.139  0.9624  2.3732 -1.4060
 5682TIP3    H217053   2.174   3.807   1.044 -0.1177 -0.9924  2.4132
 5683TIP3   OH217054   1.699   4.356   2.356  0.3488  0.4922 -0.0051
 5683TIP3    H117055   1.655   4.414   2.419 -0.8691 -0.7179  0.2894
 5683TIP3    H217056   1.648   4.275   2.357  0.7385  0.1616 -2.0015
 5684TIP3   OH217057   2.051   0.067   3.830 -0.3750 -0.3063  0.4004
 5684TIP3    H117058   2.013   0.149   3.863  1.6682  2.0190 -2.4944
 5684TIP3    H217059   2.121   0.047   3.892  1.9552  2.7358 -0.9479
 5685TIP3   OH217060   2.362   5.577   1.196  0.7269  0.2405  0.1835
 5685TIP3    H117061   2.310   5.652   1.224  1.9141  1.4285 -0.6391
 5685TIP3    H217062   2.298   5.514   1.161 -0.3063  0.7493  1.1164
 5686TIP3   OH217063   5.175   1.147   0.591  0.3237 -0.3628  0.5446
 5686TIP3    H117064   5.221   1.170   0.510  0.5160 -0.0738  0.7329
 5686TIP3    H217065   5.120   1.073   0.567 -0.6949  0.6169 -0.2145
 5687TIP3   OH217066   3.783   3.961   4.283 -0.1602  0.4458 -0.0951
 5687TIP3    H117067   3.789   3.930   4.374 -0.2990  0.6350 -0.0200
 5687TIP3    H217068   3.690   3.980   4.270 -0.0752  0.8504 -0.1323
 5688TIP3   OH217069   6.306   0.795   3.468  0.2839 -0.5396  0.3695
 5688TIP3    H117070   6.358   0.793   3.548  2.8970 -1.4731 -1.2126
 5688TIP3    H217071   6.282   0.703   3.453 -2.3110 -0.0791  1.2853
 5689TIP3   OH217072   1.303   5.282   0.929  0.4777  0.4404  0.0742
 5689TIP3    H117073   1.387   5.237   0.920 -0.2762 -0.6145 -2.7117
 5689TIP3    H217074   1.323   5.375   0.914  0.8588 -0.1145 -3.7180
 5690TIP3   OH217075   0.235   3.712   3.619  0.5036  0.3776  0.0320
 5690TIP3    H117076   0.273   3.709   3.531 -0.0419  0.1084 -0.1979
 5690TIP3    H217077   0.140   3.713   3.605  0.4153  0.9980  0.6021
 5691TIP3   OH217078   4.765   0.110   4.060  0.5120  0.3599  0.5670
 5691TIP3    H117079   4.687   0.135   4.111 -1.4062 -0.2871 -1.8302
 5691TIP3    H217080   4.759   0.163   3.981  1.6939 -0.7857 -0.3241
 5692TIP3   OH217081   3.414   5.761   1.772 -0.2315  0.5533  0.7127
 5692TIP3    H117082   3.322   5.784   1.781 -0.1242  1.2228  0.1869
 5692TIP3    H217083   3.414   5.687   1.710 -0.4271  0.3858  0.9086
 5693TIP3   OH217084   2.930   5.677   4.862  0.3817  0.2665 -0.3179
 5693TIP3    H117085   3.012   5.705   4.902 -0.1403 -1.3724  2.1161
 5693TIP3    H217086   2.899   5.754   4.813  2.5669  1.4007 -0.0304
 5694TIP3   OH217087   5.527   2.468   3.726  0.4633  0.4390 -0.6106
 5694TIP3    H117088   5.603   2.521   3.747  0.3372  0.6120 -0.5914
 5694TIP3    H217089   5.523   2.403   3.796  0.8010  0.2043 -0.8013
 5695TIP3   OH217090   3.709   1.239   1.164 -0.1862  0.1679 -0.1871
 5695TIP3    H117091   3.756   1.159   1.187 -0.8059  0.0903  0.8666
 5695TIP3    H217092   3.742   1.304   1.226  0.4428  0.7990 -1.1482
 5696TIP3   OH217093   4.481   5.118   3.106 -0.2461  0.2362 -0.1908
 5696TIP3    H117094   4.526   5.196   3.138  0.1006  0.2670 -0.7523
 5696TIP3    H217095   4.390   5.129   3.134 -0.1142  0.6489  0.0766
 5697TIP3   OH217096   5.819   0.975   2.372 -0.0355  0.0046  0.1277
 5697TIP3    H117097   5.823   0.915   2.446 -0.3535 -0.1843 -0.0078
 5697TIP3    H217098   5.728   0.971   2.343 -0.0215  0.4345  0.0210
 5698TIP3   OH217099   1.144   5.608   2.605  0.3962 -0.6502 -0.2750
 5698TIP3    H117100   1.180   5.654   2.681  0.3769 -1.6268  0.3395
 5698TIP3    H217101   1.122   5.678   2.543  0.9950  0.1214  0.3582
 5699TIP3   OH217102   0.891   2.537   2.911 -0.4836 -0.1639  0.4890
 5699TIP3    H117103   0.869   2.593   2.985  0.2705  1.7400 -0.6483
 5699TIP3    H217104   0.984   2.516   2.924 -0.6276 -0.7064  0.6379
 5700TIP3   OH217105   0.819   2.022   4.546 -0.0954 -0.5287 -0.2712
 5700TIP3    H117106   0.755   2.023   4.618  0.2573  0.2921  0.0434
 5700TIP3    H217107   0.769   1.989   4.471 -0.4967 -1.3039  0.3117
 5701TIP3   OH217108   3.123   2.476   5.105  0.5591  0.7217  0.8357
 5701TIP3    H117109   3.166   2.545   5.055  1.5935 -1.6311 -1.7807
 5701TIP3    H217110   3.031   2.482   5.080  0.7823  0.6375 -0.0293
 5702TIP3   OH217111   4.050   2.341   3.352 -0.0476  0.2539 -0.0423
 5702TIP3    H117112   4.101   2.343   3.272 -0.8777 -0.4235 -0.6119
 5702TIP3    H217113   4.088   2.409   3.407  1.7640 -0.5589 -0.2429
 5703TIP3   OH217114   5.945   1.831   1.440 -0.3651  0.4003 -0.4708
 5703TIP3    H117115   5.998   1.833   1.360 -1.0410 -4.1616 -1.2735
 5703TIP3    H217116   5.867   1.882   1.418 -0.7354 -1.0857 -2.9915
 5704TIP3   OH217117   2.959   0.672   0.554  0.0101  0.8818 -0.0335
 5704TIP3    H117118   3.014   0.743   0.586 -0.4673  1.1760  0.1461
 5704TIP3    H217119   3.021   0.602   0.532  0.3436  0.5035  1.9199
 5705TIP3   OH217120   0.272   0.502   2.630  0.6196  0.5610 -0.4328
 5705TIP3    H117121   0.248   0.550   2.709  1.0178  1.2792 -0.7381
 5705TIP3    H217122   0.342   0.443   2.657 -0.2200 -0.2336  0.0574
 5706TIP3   OH217123   5.455   4.677   2.980  0.1706  0.3009 -0.1042
 5706TIP3    H117124   5.545   4.702   3.001  0.1107 -0.2099  0.7886
 5706TIP3    H217125   5.401   4.735   3.033 -0.0529  0.8684 -0.9232
 5707TIP3   OH217126   1.281   2.460   4.108  0.1282 -0.5873 -0.4458
 5707TIP3    H117127   1.291   2.371   4.141  0.2976 -1.0405 -1.6556
 5707TIP3    H217128   1.206   2.456   4.049 -0.1129  0.1706 -0.2095
 5708TIP3   OH217129   5.472   2.662   3.370 -0.5266  0.0728 -0.5271
 5708TIP3    H117130   5.505   2.572   3.366 -0.0998  0.2111 -0.1348
 5708TIP3    H217131   5.550   2.716   3.381 -0.7030  0.5585 -1.4985
 5709TIP3   OH217132   0.656   5.685   1.728 -0.2360 -0.7267  0.6201
 5709TIP3    H117133   0.649   5.608   1.783  1.5897  0.1006  2.1185
 5709TIP3    H217134   0.742   5.678   1.687 -0.1521  0.3602  0.5702
 5710TIP3   OH217135   5.808   1.571   1.954  0.9648 -0.1387 -0.6057
 5710TIP3    H117136   5.902   1.585   1.946  0.7579  0.3640 -2.6264
 5710TIP3    H217137   5.799   1.476   1.968  1.7471 -0.2083 -0.5442
 5711TIP3   OH217138   4.740   0.546   2.307  0.1113 -0.3809 -0.5084
 5711TIP3    H117139   4.764   0.611   2.372  1.4604 -1.6402  0.3161
 5711TIP3    H217140   4.651   0.569   2.281 -0.0892  0.7323  1.0654
 5712TIP3   OH217141   0.709   0.378   2.739  0.3629  0.0548  0.7872
 5712TIP3    H117142   0.742   0.382   2.829  1.1712  1.5115  0.4540
 5712TIP3    H217143   0.720   0.287   2.713  1.2842 -0.1169  1.7337
 5713TIP3   OH217144   0.179   5.578   0.845  0.2525 -0.3912 -0.2040
 5713TIP3    H117145   0.218   5.655   0.885 -1.3047  1.6575 -2.3524
 5713TIP3    H217146   0.160   5.519   0.919  1.8027  1.0896  1.4617
 5714TIP3   OH217147   6.125   0.430   1.649 -0.0141  0.6064 -0.0372
 5714TIP3    H117148   6.082   0.479   1.719 -1.5794 -2.6253  1.5298
 5714TIP3    H217149   6.218   0.431   1.673 -0.4787 -0.1613  2.0308
 5715TIP3   OH217150   4.401   3.512   3.802  0.2381  0.2713 -0.2731
 5715TIP3    H117151   4.409   3.487   3.894  0.3292 -1.0280 -0.6210
 5715TIP3    H217152   4.424   3.605   3.801 -2.1628  0.9749  1.3818
 5716TIP3   OH217153   1.104   2.839   0.493  0.0215 -0.0382  0.2939
 5716TIP3    H117154   1.145   2.783   0.427 -0.8038 -0.1245 -0.1635
 5716TIP3    H217155   1.010   2.835   0.472 -0.3948 -0.9952  2.1654
 5717TIP3   OH217156   5.974   0.563   3.276 -0.4343 -0.4270  0.3033
 5717TIP3    H117157   6.055   0.545   3.323  0.8272  1.0365 -1.1705
 5717TIP3    H217158   5.931   0.478   3.267  0.5460 -1.1093  1.7719
 5718TIP3   OH217159   0.339   3.442   3.157 -0.3194  0.9829  0.5144
 5718TIP3    H117160   0.368   3.356   3.126 -2.3185  0.2982  0.4285
 5718TIP3    H217161   0.328   3.494   3.078  0.7360  1.2900  0.5559
 5719TIP3   OH217162   0.792   5.045   2.187 -0.2420  0.2294  0.3405
 5719TIP3    H117163   0.842   4.972   2.223  1.5782  2.1762  2.0736
 5719TIP3    H217164   0.752   5.087   2.263 -2.4285  0.2616 -0.7538
 5720TIP3   OH217165   4.330   5.213   1.593  0.3270  0.2060 -0.1864
 5720TIP3    H117166   4.300   5.126   1.567  0.5903  0.2756 -0.7350
 5720TIP3    H217167   4.249   5.261   1.612  0.0800  0.3124 -1.4156
 5721TIP3   OH217168   4.236   0.544   2.192 -0.5251 -0.0544 -0.0613
 5721TIP3    H117169   4.171   0.509   2.131 -0.3192 -0.6979  0.0905
 5721TIP3    H217170   4.194   0.622   2.229 -0.4125  0.7301 -1.5023
 5722TIP3   OH217171   0.498   2.422   2.258 -0.0072 -0.7112 -0.3912
 5722TIP3    H117172   0.561   2.476   2.211 -1.0302  0.1641 -0.8158
 5722TIP3    H217173   0.418   2.427   2.204 -0.8456 -0.6717  0.8032
 5723TIP3   OH217174   4.770   5.866   0.105  0.3533 -0.4111  0.0757
 5723TIP3    H117175   4.743   5.870   0.013  0.5320 -1.7802 -0.0479
 5723TIP3    H217176   4.864   5.885   0.103  0.2151  0.3192  0.0743
 5724TIP3   OH217177   0.862   0.757   4.047 -0.1998  0.7359  0.1378
 5724TIP3    H117178   0.776   0.739   4.010 -0.4755  1.5515  0.3635
 5724TIP3    H217179   0.916   0.683   4.020 -0.6085  0.9062 -1.2111
 5725TIP3   OH217180   3.984   2.102   3.532  0.2539  0.0588  0.2805
 5725TIP3    H117181   4.036   2.033   3.490  0.9279  0.5802  0.2545
 5725TIP3    H217182   4.007   2.182   3.486 -1.4420  0.1495 -0.5078
 5726TIP3   OH217183   2.299   0.268   2.848  0.0520 -0.0319 -0.6583
 5726TIP3    H117184   2.241   0.332   2.809 -0.2464 -0.1991 -0.4926
 5726TIP3    H217185   2.304   0.293   2.941  0.9264  0.4919 -0.8335
 5727TIP3   OH217186   5.613   2.958   4.314  0.0254  0.1608 -0.0228
 5727TIP3    H117187   5.656   2.962   4.229 -1.6778  0.0930 -0.9270
 5727TIP3    H217188   5.648   3.033   4.362  2.9966 -1.2663  0.2698
 5728TIP3   OH217189   0.222   1.342   5.010 -0.4763 -0.0149 -0.1749
 5728TIP3    H117190   0.152   1.306   4.955 -0.5037  0.5810 -0.5421
 5728TIP3    H217191   0.301   1.298   4.979 -0.4270  0.6332 -0.9972
 5729TIP3   OH217192   1.321   5.762   3.681 -0.0643  0.6700  0.1093
 5729TIP3    H117193   1.410   5.730   3.697 -0.4925 -0.6565  0.0130
 5729TIP3    H217194   1.302   5.821   3.753  0.3679 -0.2097  0.9668
 5730TIP3   OH217195   1.536   5.575   1.861  0.4655 -0.2904  0.6193
 5730TIP3    H117196   1.457   5.627   1.847 -1.3604 -2.9201  0.3024
 5730TIP3    H217197   1.505   5.499   1.910  2.2280 -2.6652 -1.6817
 5731TIP3   OH217198   3.290   5.833   3.674  0.1426 -0.0381 -0.0218
 5731TIP3    H117199   3.290   5.892   3.599  0.6978  0.7316  0.5590
 5731TIP3    H217200   3.202   5.840   3.710  0.1820  0.3804 -0.0032
 5732TIP3   OH217201   3.803   1.396   3.491  0.3119 -0.5511  0.6310
 5732TIP3    H117202   3.802   1.398   3.396 -0.8724  1.5925  0.6146
 5732TIP3    H217203   3.865   1.327   3.514  2.4517  0.4481 -1.6981
 5733TIP3   OH217204   3.747   5.193   1.455  0.1458 -0.1487 -0.1164
 5733TIP3    H117205   3.798   5.115   1.432 -0.0718 -0.2989 -0.0841
 5733TIP3    H217206   3.690   5.165   1.526 -0.7874 -0.2864 -0.9088
 5734TIP3   OH217207   3.750   1.376   3.950  0.3487 -0.0100 -0.4572
 5734TIP3    H117208   3.782   1.431   3.879 -0.4381  0.0740 -0.7448
 5734TIP3    H217209   3.709   1.301   3.907 -0.1488  0.0510 -0.1012
 5735TIP3   OH217210   0.356   4.261   2.990  0.4082 -0.2498  0.2317
 5735TIP3    H117211   0.363   4.332   2.927  1.0672 -1.5525 -1.2374
 5735TIP3    H217212   0.326   4.303   3.071  1.2293  1.7396 -0.4416
 5736TIP3   OH217213   4.535   0.446   0.091  0.4574 -0.1894 -0.6156
 5736TIP3    H117214   4.510   0.370   0.144 -0.1815  0.5798  0.2161
 5736TIP3    H217215   4.608   0.414   0.037  0.2268 -1.3787 -0.2647
 5737TIP3   OH217216   1.879   5.695   1.446 -0.0613 -0.7867  0.2256
 5737TIP3    H117217   1.786   5.706   1.424  0.0051  1.1776  0.7408
 5737TIP3    H217218   1.881   5.619   1.504 -1.9452  1.2416  3.2668
 5738TIP3   OH217219   6.012   4.254   0.884  0.7679  0.6307  0.1756
 5738TIP3    H117220   6.085   4.207   0.925 -0.5624  0.0502  2.0534
 5738TIP3    H217221   5.943   4.187   0.875  0.1051  1.3967 -0.5868
 5739TIP3   OH217222   1.703   5.687   3.183  0.0013 -0.5234  0.7931
 5739TIP3    H117223   1.726   5.652   3.268 -0.8074 -0.8909  0.8643
 5739TIP3    H217224   1.736   5.623   3.120 -0.9930 -1.1630  0.9031
 5740TIP3   OH217225   4.533   3.454   5.031  0.4053  0.0806  0.2407
 5740TIP3    H117226   4.625   3.427   5.034  0.2304 -0.4424  1.1696
 5740TIP3    H217227   4.523   3.513   5.106  0.3308  1.3141 -0.7105
 5741TIP3   OH217228   4.918   3.859   3.563 -0.3096  0.0905  0.0837
 5741TIP3    H117229   4.828   3.828   3.574  0.5086 -2.9050 -0.7415
 5741TIP3    H217230   4.964   3.826   3.640  0.4046  0.0983 -0.3277
 5742TIP3   OH217231   3.342   0.604   5.188  0.0511 -0.4147  0.2810
 5742TIP3    H117232   3.376   0.515   5.180  0.9334 -0.0236 -0.4970
 5742TIP3    H217233   3.252   0.598   5.158 -0.2246 -1.2443  1.2349
 5743TIP3   OH217234   3.697   5.560   4.922 -0.1407  0.4681 -0.1693
 5743TIP3    H117235   3.730   5.619   4.855 -0.3979  1.2731  0.3961
 5743TIP3    H217236   3.751   5.482   4.915 -0.7209  0.1838 -1.8848
 5744TIP3   OH217237   0.099   2.556   2.618 -0.4246  0.3288  0.0836
 5744TIP3    H117238   0.057   2.481   2.576  0.1339  0.3503 -0.5253
 5744TIP3    H217239   0.099   2.625   2.551 -1.0021  0.9059  0.6604
 5745TIP3   OH217240   3.316   3.199   1.838 -0.4900  0.3245  0.1552
 5745TIP3    H117241   3.362   3.276   1.871 -0.2128 -0.2827  1.1962
 5745TIP3    H217242   3.227   3.209   1.872 -1.3192  1.6775 -2.1342
 5746TIP3   OH217243   0.564   1.198   3.131 -0.8065  0.4460 -0.5497
 5746TIP3    H117244   0.553   1.174   3.039 -2.1481 -0.0247 -0.2934
 5746TIP3    H217245   0.480   1.177   3.172  0.0968 -0.3123  1.0125
 5747TIP3   OH217246   4.635   0.082   0.820  0.2922 -0.0711 -0.0062
 5747TIP3    H117247   4.698   0.065   0.889  1.5401 -0.0731 -1.1034
 5747TIP3    H217248   4.614   0.175   0.829  0.4178 -0.0832  0.4015
 5748TIP3   OH217249   3.043   5.865   2.347  0.5307 -0.3232 -0.0489
 5748TIP3    H117250   2.978   5.826   2.288  0.7114 -2.5458  1.1306
 5748TIP3    H217251   3.070   5.945   2.302 -0.9835 -0.7636 -1.8900
 5749TIP3   OH217252   3.631   5.436   2.604 -0.5351  0.2981  0.0202
 5749TIP3    H117253   3.707   5.382   2.623 -0.1699  0.7089 -0.2708
 5749TIP3    H217254   3.665   5.525   2.600 -1.2045  0.6126  0.9477
 5750TIP3   OH217255   1.835   4.511   1.723 -0.2896  0.3779 -0.3780
 5750TIP3    H117256   1.907   4.470   1.770 -1.1047  0.6599  1.1571
 5750TIP3    H217257   1.823   4.456   1.645  1.7317  0.4875 -0.8210
 5751TIP3   OH217258   4.269   1.584   3.828  0.4011 -0.1712  0.5312
 5751TIP3    H117259   4.364   1.579   3.820  0.4468  2.4710 -4.9279
 5751TIP3    H217260   4.237   1.502   3.790  0.5304  0.0827 -0.1312
 5752TIP3   OH217261   5.274   0.223   3.768  0.6776  0.0424  0.1201
 5752TIP3    H117262   5.329   0.158   3.812  0.7831  0.4704  0.6248
 5752TIP3    H217263   5.296   0.213   3.675 -1.0070 -2.2513 -0.1190
 5753TIP3   OH217264   2.839   2.797   2.682  0.9575 -0.3051  0.1381
 5753TIP3    H117265   2.912   2.822   2.738  0.4117  1.4727  0.1222
 5753TIP3    H217266   2.771   2.862   2.701  0.3909 -0.2627 -1.8285
 5754TIP3   OH217267   3.835   2.088   2.059 -0.1801  0.1239  0.3146
 5754TIP3    H117268   3.773   2.016   2.048 -0.5216  0.5448 -0.6782
 5754TIP3    H217269   3.920   2.046   2.071 -0.4040 -0.4480 -0.0681
 5755TIP3   OH217270   5.308   1.916   1.697 -0.1259 -0.1219 -0.5126
 5755TIP3    H117271   5.327   1.946   1.608 -0.1537 -0.8662 -0.7788
 5755TIP3    H217272   5.228   1.865   1.688  2.3029 -4.3337 -1.0131
 5756TIP3   OH217273   0.043   4.185   0.613  0.1298 -0.2648 -0.2735
 5756TIP3    H117274   0.027   4.107   0.667  1.3754 -0.9918 -0.9105
 5756TIP3    H217275  -0.012   4.173   0.536  0.2275 -0.4572 -0.3128
 5757TIP3   OH217276   4.760   1.932   4.506  0.2857 -0.0110 -0.4429
 5757TIP3    H117277   4.818   1.904   4.576  0.8727 -1.8510 -1.5884
 5757TIP3    H217278   4.748   2.026   4.521  1.4840 -0.0831  1.2988
 5758TIP3   OH217279   1.538   0.706   4.967  0.0111 -0.5429 -0.0724
 5758TIP3    H117280   1.566   0.797   4.969  4.5233 -1.6730  1.4608
 5758TIP3    H217281   1.520   0.689   4.875 -0.3388  1.6927 -0.4767
 5759TIP3   OH217282   2.164   3.406   4.395 -0.0428  0.0495 -0.3798
 5759TIP3    H117283   2.169   3.391   4.490 -1.3770  0.7062 -0.1817
 5759TIP3    H217284   2.249   3.376   4.362  1.8689  2.9241  1.4413
 5760TIP3   OH217285   4.394   4.705   4.814  0.4519 -0.3778 -0.8099
 5760TIP3    H117286   4.446   4.759   4.874 -1.2615 -0.3206  0.6930
 5760TIP3    H217287   4.351   4.768   4.756 -2.3257  0.1190  1.5631
 5761TIP3   OH217288   2.768   3.887   2.757  0.7904  0.2553  0.0717
 5761TIP3    H117289   2.830   3.956   2.780  0.6656  0.6531 -0.7759
 5761TIP3    H217290   2.771   3.882   2.661 -0.9259  0.6992 -0.0458
 5762TIP3   OH217291   4.070   1.729   3.358 -0.0746  0.1888  0.0271
 5762TIP3    H117292   4.013   1.696   3.289  1.3328 -1.2617 -0.5009
 5762TIP3    H217293   4.078   1.823   3.340 -1.8246  0.3188 -0.1919
 5763TIP3   OH217294   1.195   2.626   2.266 -0.1205 -0.0181  0.1453
 5763TIP3    H117295   1.255   2.620   2.340  1.1609  0.4157 -0.8049
 5763TIP3    H217296   1.164   2.536   2.253 -0.1181 -0.1481  1.0125
 5764TIP3   OH217297   0.784   6.004   4.640 -0.2993 -0.2349 -0.0435
 5764TIP3    H117298   0.802   5.926   4.587  0.8881  0.1459 -0.2390
 5764TIP3    H217299   0.725   5.974   4.709  0.1626 -1.3163 -0.1018
 5765TIP3   OH217300   4.821   5.776   0.609  0.4900  0.3556  0.0395
 5765TIP3    H117301   4.894   5.734   0.562  1.7972  1.7284  0.7371
 5765TIP3    H217302   4.864   5.837   0.669 -1.1554 -0.3955  2.1328
 5766TIP3   OH217303   1.107   4.518   0.829  0.0166  0.1025 -0.1193
 5766TIP3    H117304   1.102   4.541   0.736  2.2491  0.8160 -0.1317
 5766TIP3    H217305   1.148   4.432   0.831 -0.7567 -0.2706  0.2075
 5767TIP3   OH217306   3.206   0.370   4.394 -0.4263 -0.1591 -0.2165
 5767TIP3    H117307   3.117   0.403   4.384  0.0418  1.0892 -0.4467
 5767TIP3    H217308   3.240   0.416   4.471  0.1052 -0.4169 -0.2939
 5768TIP3   OH217309   5.564   0.001   4.720 -0.1842  0.7151  0.2423
 5768TIP3    H117310   5.589   0.082   4.675  0.1039  2.1369  2.7698
 5768TIP3    H217311   5.542   0.029   4.809 -3.2648 -1.5362  0.3630
 5769TIP3   OH217312   0.811   4.958   4.364  0.0303 -0.0130  0.3181
 5769TIP3    H117313   0.823   4.870   4.326  4.6220  0.7881 -0.7747
 5769TIP3    H217314   0.838   4.948   4.455  0.5608  0.2349  0.1911
 5770TIP3   OH217315   2.556   0.479   3.924  0.1164 -0.6672 -0.1270
 5770TIP3    H117316   2.505   0.552   3.960  1.4195 -1.0288  2.7974
 5770TIP3    H217317   2.492   0.427   3.875 -1.2359  1.3881 -0.6892
 5771TIP3   OH217318   6.161   5.384   2.362 -0.7840  0.2075  0.3051
 5771TIP3    H117319   6.081   5.413   2.319 -0.4145  2.4030  0.9805
 5771TIP3    H217320   6.229   5.388   2.295 -1.2563 -2.0630 -0.3814
 5772TIP3   OH217321   5.541   4.431   2.920  0.0265 -0.2486  0.2191
 5772TIP3    H117322   5.512   4.509   2.967  0.0439 -0.5636  0.7606
 5772TIP3    H217323   5.495   4.435   2.836  0.0154  0.3312  0.2436
 5773TIP3   OH217324   5.592   1.385   1.713 -0.0059 -0.0734  0.1944
 5773TIP3    H117325   5.684   1.402   1.694 -0.3264  1.0777 -0.3971
 5773TIP3    H217326   5.571   1.307   1.662  0.7863 -0.7165  0.8180
 5774TIP3   OH217327   2.801   5.253   0.859 -0.0074  0.1596 -0.0478
 5774TIP3    H117328   2.881   5.305   0.863  0.8904 -1.1998  0.3015
 5774TIP3    H217329   2.749   5.294   0.790  1.1566  0.8185 -0.5598
 5775TIP3   OH217330   1.225   4.087   2.350  0.2379  0.2433  0.7758
 5775TIP3    H117331   1.174   4.087   2.269 -1.7592  1.9243  1.9151
 5775TIP3    H217332   1.254   3.996   2.360 -0.9261 -0.3714 -0.9371
 5776TIP3   OH217333   1.537   4.129   2.403  0.8151  0.2465 -0.5012
 5776TIP3    H117334   1.552   4.100   2.493  1.3709  0.6926 -0.4440
 5776TIP3    H217335   1.443   4.117   2.390  0.8280 -0.4080 -0.0734
 5777TIP3   OH217336   3.927   0.838   5.110 -0.0870  0.2033 -0.3361
 5777TIP3    H117337   4.008   0.856   5.061 -0.1765  1.8740  0.0869
 5777TIP3    H217338   3.857   0.852   5.046 -0.1081  0.1611 -0.3228
 5778TIP3   OH217339   5.288   0.431   1.995  0.6166  0.8667  0.0338
 5778TIP3    H117340   5.291   0.367   1.924  0.0658  0.3567  0.4585
 5778TIP3    H217341   5.216   0.401   2.051  0.8082  1.4652  0.6108
 5779TIP3   OH217342   4.242   4.632   0.894  0.1716 -0.3399  0.0640
 5779TIP3    H117343   4.301   4.651   0.820  0.9542  0.1358  0.7950
 5779TIP3    H217344   4.263   4.699   0.959 -0.1293 -1.0756  0.9366
 5780TIP3   OH217345   1.910   3.955   0.780 -0.0620  0.5415 -0.2193
 5780TIP3    H117346   1.925   3.865   0.753 -0.5845  0.6890 -1.0614
 5780TIP3    H217347   1.870   3.948   0.867 -0.5844 -0.0678 -0.4986
 5781TIP3   OH217348   2.803   2.075   1.662  0.0864  0.3353  0.8856
 5781TIP3    H117349   2.844   2.083   1.749 -0.1840  2.6813  0.8702
 5781TIP3    H217350   2.861   2.124   1.604  0.7386 -1.9632 -0.4905
 5782TIP3   OH217351   6.150   3.955   2.187 -0.5095 -0.6020  0.4727
 5782TIP3    H117352   6.106   4.031   2.223 -0.0967 -0.4538  0.6661
 5782TIP3    H217353   6.080   3.905   2.144 -0.7815 -0.1269  0.3588
 5783TIP3   OH217354   2.419   2.725   0.587  0.2241  0.0110  0.5913
 5783TIP3    H117355   2.463   2.670   0.652 -0.0938 -0.0184  0.7824
 5783TIP3    H217356   2.411   2.810   0.629  2.7565  0.8987 -0.5252
 5784TIP3   OH217357   3.138   1.993   2.586  0.5858 -0.2252 -0.3631
 5784TIP3    H117358   3.222   1.948   2.583  0.8763  0.3012 -0.3099
 5784TIP3    H217359   3.073   1.924   2.577  1.0100 -0.6925  0.1432
 5785TIP3   OH217360   3.274   0.964   3.453 -0.1594  0.5702  0.7550
 5785TIP3    H117361   3.271   0.893   3.388  1.6643  1.1294  0.0020
 5785TIP3    H217362   3.276   1.044   3.401 -3.0663  1.3008  1.6032
 5786TIP3   OH217363   0.941   3.016   3.644 -0.5063  0.0117 -0.5442
 5786TIP3    H117364   0.890   2.986   3.569  0.6232 -1.3625 -0.8201
 5786TIP3    H217365   1.027   3.037   3.608  0.1793 -1.0354  0.3862
 5787TIP3   OH217366   5.495   4.758   0.214  0.4686  0.2464  0.8170
 5787TIP3    H117367   5.577   4.797   0.185  0.6739 -0.5020  0.3750
 5787TIP3    H217368   5.483   4.790   0.303  0.5377  1.4593  0.4036
 5788TIP3   OH217369   3.009   3.667   0.906  0.2549 -0.4526 -0.2175
 5788TIP3    H117370   3.011   3.753   0.863 -0.1364  0.1166  0.8538
 5788TIP3    H217371   3.068   3.676   0.981 -0.4925 -0.8060  0.4385
 5789TIP3   OH217372   2.880   5.894   1.457 -0.3179  0.2735  0.0505
 5789TIP3    H117373   2.803   5.843   1.435  0.2984 -0.0475 -1.4449
 5789TIP3    H217374   2.937   5.887   1.381  1.6186 -0.2722  1.4535
 5790TIP3   OH217375   0.254   0.271   4.811 -0.3816  0.4757 -0.0054
 5790TIP3    H117376   0.308   0.212   4.863 -0.9831 -1.2237 -1.2132
 5790TIP3    H217377   0.207   0.325   4.875 -1.3757 -1.7750  1.2619
 5791TIP3   OH217378   1.259   3.903   3.884  0.2744 -0.1411  0.1177
 5791TIP3    H117379   1.243   3.810   3.896  0.4271  0.0421  2.0206
 5791TIP3    H217380   1.177   3.946   3.909 -0.2605  0.2191 -2.0345
 5792TIP3   OH217381   6.213   3.275   2.949  0.3341 -0.1706  0.3855
 5792TIP3    H117382   6.151   3.346   2.930 -0.4797 -1.1192 -0.7027
 5792TIP3    H217383   6.258   3.261   2.866 -0.8694 -2.1645 -0.0048
 5793TIP3   OH217384   0.838   0.961   2.283  0.1646 -0.1799  0.1743
 5793TIP3    H117385   0.777   1.024   2.246  0.9044  0.1729 -0.4784
 5793TIP3    H217386   0.860   0.902   2.210  1.2679  0.2357  0.1470
 5794TIP3   OH217387   1.237   5.757   0.510 -0.8978  0.2464  0.4908
 5794TIP3    H117388   1.326   5.778   0.538 -1.2710  2.5286  0.1214
 5794TIP3    H217389   1.180   5.796   0.577 -1.6714  1.7006 -0.9392
 5795TIP3   OH217390   5.777   4.519   2.827  0.0541 -0.3056 -0.1790
 5795TIP3    H117391   5.693   4.475   2.845 -0.3624  0.6425  0.2499
 5795TIP3    H217392   5.769   4.552   2.738  0.1212 -0.5437 -0.2740
 5796TIP3   OH217393   4.519   4.813   5.038 -0.1253 -0.1652 -0.7511
 5796TIP3    H117394   4.477   4.891   5.076 -0.7082  0.1551 -1.9844
 5796TIP3    H217395   4.577   4.781   5.107 -2.1236 -0.4167  0.9055
 5797TIP3   OH217396   1.840   1.150   1.339  0.0777 -0.0859 -0.2002
 5797TIP3    H117397   1.766   1.209   1.353 -0.5769 -1.0112  0.3424
 5797TIP3    H217398   1.917   1.204   1.356 -0.5133  0.5791  0.4454
 5798TIP3   OH217399   5.938   5.881   1.605  0.2118 -0.1822 -0.2562
 5798TIP3    H117400   5.869   5.927   1.654 -0.3107 -0.5885 -0.5990
 5798TIP3    H217401   5.903   5.872   1.516 -0.5157 -2.8514  0.2094
 5799TIP3   OH217402   3.107   1.526   4.788  0.1526  0.5791  0.6287
 5799TIP3    H117403   3.022   1.527   4.832 -0.3425 -1.5241 -0.1118
 5799TIP3    H217404   3.167   1.486   4.852  0.1600  0.4397  0.5365
 5800TIP3   OH217405   2.561   0.514   1.411  0.6227  0.4142 -0.5391
 5800TIP3    H117406   2.510   0.480   1.485 -1.3644 -0.6487 -2.2820
 5800TIP3    H217407   2.534   0.606   1.403 -0.3695  0.1105 -0.8660
 5801TIP3   OH217408   5.379   5.175   3.702  0.2240  0.4539  0.1452
 5801TIP3    H117409   5.298   5.187   3.653 -0.7493  0.6209  1.6988
 5801TIP3    H217410   5.375   5.084   3.732 -0.6507  1.1185  2.2590
 5802TIP3   OH217411   3.812   1.377   2.833  0.5933 -0.1980 -0.2803
 5802TIP3    H117412   3.820   1.426   2.751 -0.5569  2.1668  0.9017
 5802TIP3    H217413   3.734   1.322   2.821  0.5025  0.0480 -0.8211
 5803TIP3   OH217414   3.265   5.133   1.818  0.0377  0.2623  0.9435
 5803TIP3    H117415   3.290   5.201   1.756 -1.1770 -0.6691 -0.6716
 5803TIP3    H217416   3.323   5.059   1.798  0.0342  0.1461  1.3398
 5804TIP3   OH217417   5.666   1.414   3.088 -0.2764  0.7131 -0.4601
 5804TIP3    H117418   5.728   1.413   3.162 -0.6050  1.0596 -0.1731
 5804TIP3    H217419   5.609   1.489   3.106 -0.2482  0.9112 -1.1672
 5805TIP3   OH217420   6.017   5.489   0.073 -0.2951 -0.8676  0.9102
 5805TIP3    H117421   6.046   5.431   0.144 -0.2565 -0.3659  1.3169
 5805TIP3    H217422   5.941   5.534   0.110 -0.0402 -0.3193  0.7740
 5806TIP3   OH217423   1.896   0.964   3.616  0.0812  0.3213  0.5173
 5806TIP3    H117424   1.898   0.982   3.522 -0.6421  0.5250  0.5335
 5806TIP3    H217425   1.834   1.029   3.651 -0.1855 -0.2072  1.0309
 5807TIP3   OH217426   4.926   0.463   2.667 -0.0727 -0.4692 -0.3719
 5807TIP3    H117427   4.866   0.388   2.666  0.4192 -0.8760 -1.3985
 5807TIP3    H217428   4.893   0.521   2.597 -1.2782  0.9879  1.3216
 5808TIP3   OH217429   4.821   1.217   2.539  0.7107  0.1710  0.0149
 5808TIP3    H117430   4.874   1.223   2.459  0.5307  0.1985 -0.1037
 5808TIP3    H217431   4.740   1.177   2.510  1.2763 -1.3712  0.5068
 5809TIP3   OH217432   5.003   4.034   2.495 -0.0036  0.4863 -0.0230
 5809TIP3    H117433   4.961   4.103   2.547 -2.7857 -2.4537  2.0289
 5809TIP3    H217434   4.973   4.049   2.406 -2.9536  0.4189  0.8635
 5810TIP3   OH217435   4.580   2.890   1.005 -0.0724  0.2119  0.3610
 5810TIP3    H117436   4.600   2.868   0.915  0.0003 -1.3661  0.7343
 5810TIP3    H217437   4.545   2.979   1.001  0.8203  0.5209 -1.0866
 5811TIP3   OH217438   2.523   1.804   4.764 -0.2096  0.2034  0.0105
 5811TIP3    H117439   2.565   1.890   4.766  0.3671 -0.0802  0.6073
 5811TIP3    H217440   2.535   1.773   4.674 -1.3108  1.1599 -0.4955
 5812TIP3   OH217441  -0.029   1.018   1.492 -0.4624  0.5200 -0.5375
 5812TIP3    H117442   0.023   1.089   1.529  1.1276 -0.3618 -0.9684
 5812TIP3    H217443   0.021   0.989   1.415 -1.4083 -0.6126 -0.7649
 5813TIP3   OH217444   1.498   1.472   4.536 -0.1679  0.1715 -0.0105
 5813TIP3    H117445   1.573   1.512   4.579  0.7947 -1.5589  0.0167
 5813TIP3    H217446   1.527   1.460   4.445 -1.3620  1.7467 -0.6539
 5814TIP3   OH217447   0.527   5.027   1.190 -0.5220 -0.4732 -0.3837
 5814TIP3    H117448   0.547   4.933   1.199  2.4075  0.1666  1.0706
 5814TIP3    H217449   0.479   5.049   1.269  2.1331 -0.1120  1.2682
 5815TIP3   OH217450   4.613   4.136   1.347 -0.2397  0.0760 -0.4190
 5815TIP3    H117451   4.562   4.209   1.383 -2.4213 -1.2213 -0.6883
 5815TIP3    H217452   4.607   4.149   1.252  0.2647  0.1021 -0.4493
 5816TIP3   OH217453   2.947   1.839   0.520  0.0752  0.6011 -0.5655
 5816TIP3    H117454   2.939   1.907   0.588 -0.8365  0.9624 -1.0308
 5816TIP3    H217455   2.861   1.835   0.479  0.0569 -0.9936 -0.4122
 5817TIP3   OH217456   3.064   3.104   4.807  0.3706  0.0837  0.4013
 5817TIP3    H117457   2.976   3.137   4.790  0.8797  0.4360 -1.9470
 5817TIP3    H217458   3.119   3.182   4.807  1.0325 -0.3485 -1.0625
 5818TIP3   OH217459   3.036   5.898   3.736 -0.0455 -0.2038 -0.8026
 5818TIP3    H117460   2.954   5.942   3.756 -0.1939 -0.3472 -1.0871
 5818TIP3    H217461   3.020   5.855   3.652  0.1401 -0.6961 -0.5880
 5819TIP3   OH217462   0.228   3.994   0.885 -0.3636 -0.1891  0.0865
 5819TIP3    H117463   0.170   3.967   0.814 -0.3528 -0.2692  0.1081
 5819TIP3    H217464   0.206   4.086   0.901  0.8369  0.3738 -1.2111
 5820TIP3   OH217465   5.103   0.150   2.882  0.0509  0.6991 -0.4275
 5820TIP3    H117466   5.190   0.168   2.846  1.3051  0.7798  2.4001
 5820TIP3    H217467   5.083   0.060   2.854  0.7575  0.8987 -1.6095
 5821TIP3   OH217468   0.726   3.783   0.263 -0.1606 -0.1459 -0.1637
 5821TIP3    H117469   0.725   3.687   0.254 -1.8000 -0.2700  0.9036
 5821TIP3    H217470   0.800   3.800   0.322 -1.1205 -0.9926  1.3739
 5822TIP3   OH217471   4.121   1.017   5.010 -0.3568  0.1803 -0.0836
 5822TIP3    H117472   4.214   1.013   4.989  0.0848  4.0211  0.3543
 5822TIP3    H217473   4.081   1.060   4.934 -1.9285 -1.6742 -0.4039
 5823TIP3   OH217474   2.609   5.594   1.307  0.3568 -0.1330  0.0216
 5823TIP3    H117475   2.540   5.599   1.241 -1.6948  0.3486  2.0718
 5823TIP3    H217476   2.606   5.679   1.351 -0.1038 -1.2587  2.3294
 5824TIP3   OH217477   1.676   2.963   0.660  0.5605  0.1527  0.6585
 5824TIP3    H117478   1.625   2.882   0.652  0.7746  0.0051  0.7874
 5824TIP3    H217479   1.651   3.014   0.583  1.8470 -0.8352 -0.4789
 5825TIP3   OH217480   1.437   0.825   3.999 -0.2912  0.6154 -0.4668
 5825TIP3    H117481   1.418   0.800   4.089 -1.9519  1.0532 -0.6580
 5825TIP3    H217482   1.523   0.866   4.003  0.1575 -0.3709  0.7117
 5826TIP3   OH217483   1.708   5.729   2.182  0.5842 -0.2335  0.8590
 5826TIP3    H117484   1.758   5.716   2.262  0.2456 -0.5362  1.0249
 5826TIP3    H217485   1.697   5.641   2.146  0.4152 -0.1394  0.6786
 5827TIP3   OH217486   2.880   2.375   1.169  0.0767 -0.4089 -0.2127
 5827TIP3    H117487   2.957   2.415   1.129  0.0429  1.0587  1.1235
 5827TIP3    H217488   2.830   2.340   1.095  0.8138  0.7952 -1.3161
 5828TIP3   OH217489   5.104   2.659   5.057  0.2047  0.2942 -0.2862
 5828TIP3    H117490   5.116   2.635   5.149  2.1410 -0.0108 -0.5668
 5828TIP3    H217491   5.018   2.701   5.054 -0.1360 -0.1779  1.5522
 5829TIP3   OH217492   2.872   1.784   3.577  0.2827  0.0811  0.8410
 5829TIP3    H117493   2.850   1.695   3.605  0.5979  0.2545  1.6549
 5829TIP3    H217494   2.799   1.811   3.522 -0.7006 -0.0005  2.0713
 5830TIP3   OH217495   5.113   4.507   5.097 -0.1134  0.1195 -1.0208
 5830TIP3    H117496   5.194   4.542   5.060  1.1619 -1.0407  0.5579
 5830TIP3    H217497   5.109   4.417   5.065 -0.4225 -0.0331 -0.5618
 5831TIP3   OH217498   4.259   4.151   2.353  0.0529  0.4550 -0.4113
 5831TIP3    H117499   4.194   4.131   2.286  0.4732  0.1355 -0.7266
 5831TIP3    H217500   4.294   4.237   2.329  1.9016 -0.6492 -1.9919
 5832TIP3   OH217501   5.575   1.925   2.451  0.3215  0.0955 -0.0351
 5832TIP3    H117502   5.542   1.990   2.390 -4.1477 -0.2267  1.6581
 5832TIP3    H217503   5.565   1.965   2.537  2.3136 -1.0513  0.8105
 5833TIP3   OH217504   5.187   2.568   3.929 -0.3258 -0.7317  0.1482
 5833TIP3    H117505   5.202   2.506   3.858  1.6867  0.7926 -0.8271
 5833TIP3    H217506   5.162   2.649   3.886 -1.2239 -0.3438  1.3273
 5834TIP3   OH217507   1.342   1.557   1.881  0.2431 -0.1346 -0.3992
 5834TIP3    H117508   1.417   1.498   1.882  0.9417  0.7173  0.7902
 5834TIP3    H217509   1.380   1.645   1.875 -0.5208  0.4112  1.6972
 5835TIP3   OH217510   3.981   3.331   0.092  0.3075  0.5310  0.0728
 5835TIP3    H117511   4.054   3.384   0.126 -0.3267 -0.6802  3.7356
 5835TIP3    H217512   3.962   3.269   0.162 -1.9221 -1.6080 -2.2464
 5836TIP3   OH217513   6.069   1.124   0.412  0.5180 -0.2308 -0.3430
 5836TIP3    H117514   6.138   1.173   0.368  0.8780  0.8333  1.3228
 5836TIP3    H217515   6.038   1.184   0.480  0.0072 -1.8182  0.8535
 5837TIP3   OH217516   3.664   3.395   3.096 -0.1158  0.1288  0.2160
 5837TIP3    H117517   3.705   3.316   3.130 -1.1139 -0.5654 -0.1486
 5837TIP3    H217518   3.729   3.432   3.036  0.1565 -0.7078 -0.0121
 5838TIP3   OH217519   0.071   3.374   5.129  0.4821  0.2377  0.4658
 5838TIP3    H117520   0.008   3.446   5.132  1.2304  0.9436 -0.0309
 5838TIP3    H217521   0.149   3.409   5.174 -0.2391 -1.4577  3.2649
 5839TIP3   OH217522   2.810   2.013   3.208  0.1750 -0.4511 -0.2249
 5839TIP3    H117523   2.835   2.074   3.278 -2.3245  1.2743 -0.7107
 5839TIP3    H217524   2.849   2.051   3.129  0.0768 -0.4689 -0.2816
 5840TIP3   OH217525   1.063   1.337   5.136 -0.3742 -0.5872 -0.8975
 5840TIP3    H117526   0.986   1.311   5.186  0.9450 -0.5108  1.3138
 5840TIP3    H217527   1.029   1.395   5.068 -2.0257  2.0290  1.9028
 5841TIP3   OH217528   6.076   2.092   2.818 -0.3657  0.1686 -0.6292
 5841TIP3    H117529   6.116   2.030   2.879 -0.6071 -0.5615 -1.1886
 5841TIP3    H217530   6.064   2.172   2.868 -2.0867 -0.9141  0.8255
 5842TIP3   OH217531   3.537   1.786   0.603  0.1286 -0.5456 -0.1772
 5842TIP3    H117532   3.485   1.866   0.600 -1.3300 -1.4538 -2.8041
 5842TIP3    H217533   3.624   1.815   0.631 -0.2072  2.0647 -1.5169
 5843TIP3   OH217534   0.598   2.129   3.386  0.0543  0.6360 -0.1180
 5843TIP3    H117535   0.612   2.144   3.293 -1.3577  1.1967 -0.2590
 5843TIP3    H217536   0.686   2.131   3.424  0.5986  0.9283 -1.3470
 5844TIP3   OH217537   1.689   3.704   3.166  0.1654 -0.0166 -0.0764
 5844TIP3    H117538   1.750   3.677   3.235  0.8542  1.4124 -0.1072
 5844TIP3    H217539   1.735   3.771   3.116 -1.2105  0.7116 -0.4436
 5845TIP3   OH217540   5.216   4.222   1.224  0.1942 -0.0717  0.1775
 5845TIP3    H117541   5.299   4.174   1.216  0.2273  0.2039 -1.4903
 5845TIP3    H217542   5.222   4.291   1.159 -0.7194  0.9335  1.1214
 5846TIP3   OH217543   5.653   2.495   4.212  0.3131  0.7854 -0.3634
 5846TIP3    H117544   5.666   2.409   4.251 -3.9344 -1.1142 -2.5207
 5846TIP3    H217545   5.627   2.551   4.285 -0.3052 -0.7272  0.6305
 5847TIP3   OH217546   0.851   1.024   2.806 -0.6906 -0.2642  0.2408
 5847TIP3    H117547   0.925   0.972   2.835 -0.4572 -0.3463 -0.4881
 5847TIP3    H217548   0.858   1.025   2.710 -0.8688  0.8218  0.2210
 5848TIP3   OH217549   4.684   5.555   0.524 -0.5392  0.0457  0.0762
 5848TIP3    H117550   4.753   5.570   0.588  0.3405  0.6972 -0.9883
 5848TIP3    H217551   4.696   5.624   0.459 -1.9126 -0.1074 -0.3743
 5849TIP3   OH217552   0.278   4.789   3.808 -0.7536  0.0086 -0.4981
 5849TIP3    H117553   0.329   4.711   3.830 -0.7193  0.1246 -0.1533
 5849TIP3    H217554   0.229   4.809   3.888 -2.0691 -0.6444 -1.1149
 5850TIP3   OH217555   2.143   4.623   1.468  0.3457  0.1789 -0.4383
 5850TIP3    H117556   2.215   4.684   1.485  0.7932 -0.5311  0.2797
 5850TIP3    H217557   2.067   4.665   1.508  1.0800 -0.7456  2.1789
 5851TIP3   OH217558   5.695   5.406   0.352 -0.4987  0.0235  0.0949
 5851TIP3    H117559   5.618   5.405   0.409 -1.1478  1.6248 -0.6747
 5851TIP3    H217560   5.680   5.335   0.290 -1.3077  0.2450  0.0282
 5852TIP3   OH217561   5.277   2.704   2.162  0.7851  0.7045  0.7339
 5852TIP3    H117562   5.198   2.678   2.210  1.0351 -1.0899  0.2196
 5852TIP3    H217563   5.312   2.778   2.213  0.1394 -0.0657  2.3674
 5853TIP3   OH217564   4.940   4.128   2.238  0.3616  0.5265 -0.2640
 5853TIP3    H117565   4.883   4.072   2.185  0.0383 -1.7874  2.2858
 5853TIP3    H217566   4.893   4.211   2.244 -1.3752 -0.3746 -0.5924
 5854TIP3   OH217567   4.843   2.636   4.090 -0.3855  0.0571 -0.3517
 5854TIP3    H117568   4.753   2.606   4.094 -0.4068  0.2360  0.7264
 5854TIP3    H217569   4.853   2.695   4.165  0.3758  0.7372 -0.9604
 5855TIP3   OH217570   4.697   0.789   2.678 -0.6626  0.3338  0.1639
 5855TIP3    H117571   4.713   0.856   2.744 -0.6902  0.1332  0.3749
 5855TIP3    H217572   4.644   0.833   2.612  0.4011  0.8941 -0.3420
 5856TIP3   OH217573   3.767   5.417   3.312 -0.0626  0.4745  0.1893
 5856TIP3    H117574   3.791   5.412   3.405 -0.0570  0.0094  0.1620
 5856TIP3    H217575   3.672   5.405   3.311 -0.1569  1.1528  0.1908
 5857TIP3   OH217576   2.114   4.411   2.468 -0.2389  0.9839  0.7294
 5857TIP3    H117577   2.113   4.381   2.559 -0.9202 -0.2340  0.3425
 5857TIP3    H217578   2.070   4.496   2.470 -0.7954  0.6871  1.4491
 5858TIP3   OH217579   4.524   0.959   3.677 -0.2619 -0.1821  0.0059
 5858TIP3    H117580   4.450   0.899   3.691 -0.3055 -0.3060 -0.7011
 5858TIP3    H217581   4.600   0.902   3.669 -0.1988 -0.1016  0.0288
 5859TIP3   OH217582   1.011   5.011   0.539 -0.2097  0.2325 -0.1098
 5859TIP3    H117583   1.101   4.980   0.530 -0.6991 -1.9820  1.7966
 5859TIP3    H217584   0.975   5.004   0.450  1.6583  1.9642 -1.0853
 5860TIP3   OH217585   4.210   5.710   3.390  0.8571  0.3022  0.4677
 5860TIP3    H117586   4.278   5.776   3.392  0.3891  0.9050 -1.6306
 5860TIP3    H217587   4.128   5.759   3.386  0.2934 -0.4154  2.1086
 5861TIP3   OH217588   5.260   1.702   4.671 -0.0362 -0.3045 -0.1813
 5861TIP3    H117589   5.289   1.790   4.698  1.3523 -0.0077 -2.3724
 5861TIP3    H217590   5.334   1.645   4.691 -1.4919 -1.4007  2.6947
 5862TIP3   OH217591   4.799   1.837   0.092 -0.1583  0.1224 -0.5614
 5862TIP3    H117592   4.870   1.888   0.130  1.9913 -2.7107 -0.4045
 5862TIP3    H217593   4.806   1.853  -0.002  0.6579 -0.0029 -0.5356
 5863TIP3   OH217594   1.226   1.521   2.595  0.0873 -0.0416 -0.2698
 5863TIP3    H117595   1.274   1.568   2.663 -0.3823  1.2895 -0.8448
 5863TIP3    H217596   1.206   1.436   2.635  3.0134 -0.7307 -0.0593
 5864TIP3   OH217597   3.471   5.282   4.648 -0.3955  0.1541  0.4217
 5864TIP3    H117598   3.529   5.300   4.574  1.0039 -1.4797  1.0592
 5864TIP3    H217599   3.459   5.367   4.690  2.8605  0.3744  1.1517
 5865TIP3   OH217600   1.607   3.020   0.364 -0.1868 -0.2178  0.5153
 5865TIP3    H117601   1.632   2.930   0.340  1.4216  0.9260 -2.7387
 5865TIP3    H217602   1.513   3.025   0.342 -0.3533 -1.1357  0.9560
 5866TIP3   OH217603   0.579   0.942   5.052  0.0343  0.2202 -0.0202
 5866TIP3    H117604   0.524   0.878   5.007  0.7615 -0.0509 -0.5407
 5866TIP3    H217605   0.611   0.896   5.129  3.3516 -1.3607 -2.0936
 5867TIP3   OH217606   0.153   2.529   4.329  0.3838 -0.6429 -0.0545
 5867TIP3    H117607   0.140   2.436   4.308  0.9275 -0.7978  0.2845
 5867TIP3    H217608   0.174   2.530   4.423 -1.3187 -0.0269  0.3696
 5868TIP3   OH217609   4.651   4.490   3.580 -0.1061 -0.5086  0.1301
 5868TIP3    H117610   4.690   4.408   3.610  1.9073  0.1397 -0.5295
 5868TIP3    H217611   4.725   4.551   3.575 -1.4528  1.1967  0.0621
 5869TIP3   OH217612   3.723   5.574   2.942 -0.0914  0.3026 -0.3942
 5869TIP3    H117613   3.678   5.491   2.929  1.1064 -0.1047 -2.4099
 5869TIP3    H217614   3.792   5.555   3.005 -1.9193  0.6791  1.8757
 5870TIP3   OH217615   3.252   4.675   0.386  0.0644  0.1252  0.7662
 5870TIP3    H117616   3.335   4.714   0.410  1.0327 -1.3274 -0.0759
 5870TIP3    H217617   3.206   4.662   0.470  0.5229  1.2326  1.2030
 5871TIP3   OH217618   2.856   4.782   0.685 -0.5188  0.2531  0.6724
 5871TIP3    H117619   2.895   4.868   0.702 -1.6173  1.4571 -2.1246
 5871TIP3    H217620   2.791   4.799   0.617 -2.3883 -2.4783  1.6173
 5872TIP3   OH217621   2.075   2.592   4.960  0.5422  0.6534 -0.4491
 5872TIP3    H117622   2.023   2.555   4.888  1.4754 -0.9539 -0.3515
 5872TIP3    H217623   2.042   2.681   4.970 -2.4326 -0.3465 -0.2005
 5873TIP3   OH217624   5.020   3.554   2.705  0.2550  0.0783  0.4080
 5873TIP3    H117625   5.060   3.621   2.650  0.2733 -0.5494 -0.3615
 5873TIP3    H217626   4.971   3.603   2.771 -0.4466  0.8605 -0.6570
 5874TIP3   OH217627   1.349   3.976   0.986 -0.0171 -0.0651 -0.3431
 5874TIP3    H117628   1.320   4.017   1.068 -0.6062 -0.2335 -0.4601
 5874TIP3    H217629   1.268   3.951   0.942  0.3217 -1.9088  0.0041
 5875TIP3   OH217630   4.158   1.139   1.563  0.2027  0.3244 -0.5047
 5875TIP3    H117631   4.122   1.050   1.553 -0.8508  0.7338 -0.5054
 5875TIP3    H217632   4.149   1.158   1.656 -0.0240  0.6089 -0.5822
 5876TIP3   OH217633   2.882   2.772   1.618 -0.1188  0.0731 -0.2634
 5876TIP3    H117634   2.935   2.852   1.622 -0.1683  0.2484 -2.1975
 5876TIP3    H217635   2.838   2.769   1.703  2.1600  0.4699  1.0292
 5877TIP3   OH217636   3.056   0.035   5.002 -0.1910  0.6864  0.5758
 5877TIP3    H117637   3.004   0.099   4.952  0.4811  0.1160 -0.9020
 5877TIP3    H217638   3.141   0.033   4.958 -0.4063 -1.7193  0.1184
 5878TIP3   OH217639   0.608   2.833   2.003  0.1571 -0.4083 -0.1938
 5878TIP3    H117640   0.685   2.872   2.044 -1.0081  0.7774  0.9915
 5878TIP3    H217641   0.548   2.906   1.990 -0.5030 -1.1838 -1.7809
 5879TIP3   OH217642   2.925   5.841   2.925  0.0116  0.2415  0.0619
 5879TIP3    H117643   2.841   5.852   2.970 -0.0024  0.6040 -0.0501
 5879TIP3    H217644   2.924   5.751   2.893 -0.2558  0.1885  0.2202
 5880TIP3   OH217645   1.622   3.985   3.306  0.3388  0.5035 -0.4052
 5880TIP3    H117646   1.612   4.045   3.232  1.0442  2.3210  0.9049
 5880TIP3    H217647   1.667   4.037   3.373 -0.5542 -0.9736  1.4191
 5881TIP3   OH217648   3.821   4.967   3.720 -0.5469  0.0866  0.2920
 5881TIP3    H117649   3.751   4.903   3.729 -2.4430  1.7409 -1.4575
 5881TIP3    H217650   3.885   4.924   3.664 -0.6193 -1.1039  1.0921
 5882TIP3   OH217651   5.431   1.106   3.390 -0.1963 -0.7243  0.6989
 5882TIP3    H117652   5.428   1.137   3.299 -0.0928 -0.7543  0.6849
 5882TIP3    H217653   5.356   1.046   3.398 -1.2468  0.6027  1.1285
 5883TIP3   OH217654   4.119   1.308   3.418  0.0343  0.3657  0.1167
 5883TIP3    H117655   4.155   1.224   3.391  0.4130  1.0549 -1.7347
 5883TIP3    H217656   4.036   1.315   3.370  1.1881  2.0627 -1.7793
 5884TIP3   OH217657   2.661   3.834   3.830  0.4400 -0.1055 -0.6349
 5884TIP3    H117658   2.726   3.849   3.762  0.0658  0.2241 -0.9294
 5884TIP3    H217659   2.588   3.791   3.785  0.1229  0.2610 -0.4869
 5885TIP3   OH217660   4.324   4.252   2.903 -0.3448  0.3557 -0.2479
 5885TIP3    H117661   4.297   4.343   2.890  0.1250  0.6547  0.7497
 5885TIP3    H217662   4.350   4.221   2.817 -0.9023  1.0369 -0.6643
 5886TIP3   OH217663   5.792   0.621   2.339  0.0681  0.5408  0.7294
 5886TIP3    H117664   5.750   0.546   2.297 -0.9545  0.5884  1.6290
 5886TIP3    H217665   5.788   0.690   2.273  0.8786 -0.1331 -0.0486
 5887TIP3   OH217666   0.256   0.704   3.798 -0.1420 -0.2727 -0.3319
 5887TIP3    H117667   0.196   0.772   3.766  0.6150  0.3001 -0.5449
 5887TIP3    H217668   0.198   0.635   3.830 -1.0245  1.4504  2.0800
 5888TIP3   OH217669   2.024   3.423   1.420  0.6817  0.4020  0.1019
 5888TIP3    H117670   1.952   3.420   1.357  0.9788  2.7341 -0.4789
 5888TIP3    H217671   2.103   3.415   1.367  0.8976  1.0719  0.2986
 5889TIP3   OH217672   2.943   5.181   2.988  0.0345  0.1185 -0.3547
 5889TIP3    H117673   2.940   5.103   3.044  1.4255  1.9248  2.4702
 5889TIP3    H217674   3.036   5.201   2.979 -0.2099  0.5759 -2.4462
 5890TIP3   OH217675   6.150   4.379   3.776 -0.2608  0.1431  0.1999
 5890TIP3    H117676   6.155   4.388   3.681  2.4912  0.5904  0.3280
 5890TIP3    H217677   6.156   4.285   3.792  1.2177  0.1832 -0.0221
 5891TIP3   OH217678   2.025   2.953   0.454 -0.3586  0.1092 -0.3181
 5891TIP3    H117679   2.026   2.897   0.376  1.2927 -1.0568  0.4770
 5891TIP3    H217680   2.028   2.892   0.528 -0.8974  1.2167  0.6598
 5892TIP3   OH217681   5.810   5.136   3.446  0.3141 -0.0978 -0.4523
 5892TIP3    H117682   5.874   5.073   3.478  0.3742  0.8839  1.5486
 5892TIP3    H217683   5.862   5.206   3.407  0.5477  0.8387  1.4342
 5893TIP3   OH217684   1.241   3.145   4.815 -0.3028 -0.2957 -0.9701
 5893TIP3    H117685   1.238   3.078   4.746  0.8186 -0.7740 -0.5771
 5893TIP3    H217686   1.173   3.207   4.790 -1.5704 -1.7090 -1.2051
 5894TIP3   OH217687   5.228   3.485   4.352  0.6264  0.2679  0.8415
 5894TIP3    H117688   5.233   3.578   4.373 -0.4149  0.5395 -0.0078
 5894TIP3    H217689   5.156   3.451   4.405 -0.1245  0.3327 -0.1219
 5895TIP3   OH217690   5.301   4.673   1.208 -0.0403  0.6699 -0.1844
 5895TIP3    H117691   5.280   4.599   1.265 -2.7963  1.7140  0.2910
 5895TIP3    H217692   5.372   4.718   1.254 -0.5271  0.1048  1.1824
 5896TIP3   OH217693   3.989   5.244   2.141 -0.5396  0.0857 -0.5229
 5896TIP3    H117694   3.938   5.293   2.206 -0.6630  0.4136 -0.8596
 5896TIP3    H217695   4.078   5.277   2.151 -0.5614  0.1473 -0.5298
 5897TIP3   OH217696   5.319   3.856   2.692  0.4429  0.2741  0.4157
 5897TIP3    H117697   5.225   3.844   2.698  0.2339  2.1931  2.2975
 5897TIP3    H217698   5.357   3.784   2.742 -0.1460  0.6334  1.3990
 5898TIP3   OH217699   4.501   3.686   2.075  0.1623 -0.3768 -0.2102
 5898TIP3    H117700   4.585   3.656   2.108  1.4116  0.4699 -2.4441
 5898TIP3    H217701   4.458   3.727   2.151  0.7019 -2.8357  1.5438
 5899TIP3   OH217702   2.255   2.231   4.296 -0.3191 -0.1686 -0.2728
 5899TIP3    H117703   2.182   2.273   4.342  1.7930  2.6223  0.8110
 5899TIP3    H217704   2.230   2.234   4.204 -1.9068 -0.0620  0.1306
 5900TIP3   OH217705   4.686   4.759   4.297 -0.6159  0.3272  0.1201
 5900TIP3    H117706   4.765   4.767   4.351  0.0422 -1.4930 -0.4725
 5900TIP3    H217707   4.655   4.848   4.285  2.2608  1.3079 -0.9199
 5901TIP3   OH217708   1.953   3.022   4.901 -0.3257  0.1986  0.0800
 5901TIP3    H117709   1.905   3.082   4.844 -0.1665  0.4600  0.2216
 5901TIP3    H217710   2.034   3.002   4.853 -1.5435 -2.0515 -1.2348
 5902TIP3   OH217711   5.707   1.104   3.422 -0.3532 -0.3830  0.2737
 5902TIP3    H117712   5.763   1.181   3.423 -0.8082 -0.0510  0.1613
 5902TIP3    H217713   5.619   1.137   3.404 -0.5057 -0.9552 -0.0861
 5903TIP3   OH217714   5.111   4.218   5.034  0.2474  0.1358  0.2479
 5903TIP3    H117715   5.204   4.196   5.032  0.4426  0.7543  1.5691
 5903TIP3    H217716   5.074   4.163   5.103 -0.3411  0.0057 -0.1603
 5904TIP3   OH217717   0.263   2.735   3.152 -0.2378  0.3645  0.2516
 5904TIP3    H117718   0.301   2.750   3.066 -1.4636 -1.4471 -0.6568
 5904TIP3    H217719   0.337   2.705   3.206  0.2422  0.0132 -0.5866
 5905TIP3   OH217720   4.918   4.506   3.095 -0.6464 -0.2807 -0.5650
 5905TIP3    H117721   4.839   4.556   3.077 -0.4273 -0.0001 -0.7616
 5905TIP3    H217722   4.974   4.521   3.019 -0.1804 -0.0146 -0.1786
 5906TIP3   OH217723   2.594   1.550   1.445  0.1798 -0.3796 -0.3126
 5906TIP3    H117724   2.673   1.507   1.479 -0.5578 -1.6594 -0.1661
 5906TIP3    H217725   2.626   1.631   1.407  1.4401 -0.3772  0.6741
 5907TIP3   OH217726   2.431   2.472   4.789 -0.7450  0.5199 -0.4873
 5907TIP3    H117727   2.424   2.444   4.880  1.0815  0.0971 -0.4563
 5907TIP3    H217728   2.397   2.399   4.738  0.1441 -0.0874 -0.2201
 5908TIP3   OH217729   5.113   1.035   1.579  0.2385  0.4963 -0.2011
 5908TIP3    H117730   5.099   0.941   1.579  1.5484  0.2859  0.3673
 5908TIP3    H217731   5.204   1.046   1.552  0.4126  1.5360  0.7378
 5909TIP3   OH217732   5.226   0.463   3.071 -0.1560 -0.0948  0.1956
 5909TIP3    H117733   5.183   0.463   3.156 -0.6562 -1.2615 -0.0363
 5909TIP3    H217734   5.159   0.495   3.010 -0.1290 -0.2266  0.0952
 5910TIP3   OH217735   4.623   0.219   2.032  0.2775 -0.1217  0.5193
 5910TIP3    H117736   4.603   0.184   2.118  0.6194 -1.1321  0.2015
 5910TIP3    H217737   4.683   0.292   2.049  1.6373 -1.3163  1.0604
 5911TIP3   OH217738   2.346   4.791   1.166 -0.2402  0.2955  0.1695
 5911TIP3    H117739   2.438   4.818   1.170 -0.0950 -0.0131 -0.8042
 5911TIP3    H217740   2.297   4.865   1.203  0.3424  0.8083 -0.0709
 5912TIP3   OH217741   1.290   4.664   3.514  0.4925 -0.1917  0.1799
 5912TIP3    H117742   1.201   4.695   3.529  0.5602  0.0991 -0.0227
 5912TIP3    H217743   1.322   4.640   3.601 -0.5353 -2.3696  0.0121
 5913TIP3   OH217744   0.315   1.904   2.713 -0.2888 -0.0983  0.0165
 5913TIP3    H117745   0.269   1.981   2.681 -1.4648 -1.8521 -2.9140
 5913TIP3    H217746   0.361   1.869   2.637  0.1440 -2.3121  1.1910
 5914TIP3   OH217747   3.720   1.382   5.105  0.4337 -0.0308 -0.0971
 5914TIP3    H117748   3.724   1.312   5.170  0.2984 -0.9010 -0.9994
 5914TIP3    H217749   3.787   1.359   5.040 -1.9709 -1.3829 -2.3335
 5915TIP3   OH217750   6.268   1.316   3.063 -0.1165 -0.2218  0.3510
 5915TIP3    H117751   6.252   1.222   3.054  0.6879 -0.3769  0.3939
 5915TIP3    H217752   6.244   1.353   2.978  0.2012 -0.5662  0.1077
 5916TIP3   OH217753   0.063   0.663   1.925 -0.2743 -0.4780  0.6736
 5916TIP3    H117754   0.031   0.692   2.010  1.1569 -0.8482  1.3712
 5916TIP3    H217755   0.158   0.663   1.934  0.0046  0.9891 -1.4327
 5917TIP3   OH217756   3.532   2.580   3.693  1.0181 -0.4908  0.0109
 5917TIP3    H117757   3.595   2.649   3.715 -0.1640  0.5501  0.2174
 5917TIP3    H217758   3.543   2.568   3.598 -0.2133  1.5208 -0.4514
 5918TIP3   OH217759   1.817   0.513   1.540  0.6038 -0.1130  0.5360
 5918TIP3    H117760   1.800   0.602   1.568  1.5381  1.4259 -3.1856
 5918TIP3    H217761   1.731   0.477   1.519  0.3791  0.8703 -0.3069
 5919TIP3   OH217762   3.856   1.410   0.484 -0.0897  0.1295 -0.5998
 5919TIP3    H117763   3.848   1.396   0.578 -0.9846  1.9226 -0.3615
 5919TIP3    H217764   3.823   1.329   0.445 -1.0920 -0.0824  0.6118
 5920TIP3   OH217765   4.105   5.933   2.654 -0.1532 -0.2078  0.3626
 5920TIP3    H117766   4.075   5.891   2.735 -1.0604  0.0670  0.1787
 5920TIP3    H217767   4.200   5.923   2.656 -0.2762 -1.4900  0.7466
 5921TIP3   OH217768   0.122   3.763   2.113 -0.5387  0.0073  0.1576
 5921TIP3    H117769   0.138   3.706   2.188  1.1612  0.1951 -0.0076
 5921TIP3    H217770   0.209   3.777   2.075 -1.0128  2.0157 -0.3089
 5922TIP3   OH217771   6.339   3.011   2.754  0.0779 -0.6413  0.0318
 5922TIP3    H117772   6.255   3.054   2.774 -0.2913 -1.2062 -0.2713
 5922TIP3    H217773   6.360   3.041   2.666 -0.5055 -1.5701 -0.4357
 5923TIP3   OH217774   4.056   4.722   3.200  0.3140  0.1453 -0.2127
 5923TIP3    H117775   4.034   4.701   3.291  0.3186 -0.4460 -0.3420
 5923TIP3    H217776   3.984   4.685   3.149  1.7825 -2.2928 -0.6900
 5924TIP3   OH217777   5.864   1.684   0.689 -0.1343  0.0854 -0.5133
 5924TIP3    H117778   5.834   1.706   0.601  0.1013 -0.3690 -0.7113
 5924TIP3    H217779   5.789   1.702   0.745 -0.5107 -0.2712 -0.8989
 5925TIP3   OH217780   3.019   5.857   4.580 -0.1123 -0.2700 -0.3285
 5925TIP3    H117781   3.029   5.941   4.534 -0.3215 -0.4834 -0.7721
 5925TIP3    H217782   2.925   5.851   4.597  0.0668  0.2423  0.9707
 5926TIP3   OH217783   4.450   0.381   4.099 -0.5924  0.7695  0.3160
 5926TIP3    H117784   4.369   0.393   4.149 -2.4118  0.2149 -2.2381
 5926TIP3    H217785   4.471   0.288   4.109 -1.5367  0.4217 -0.6320
 5927TIP3   OH217786   3.907   0.451   0.260 -0.2165 -0.1552  0.4739
 5927TIP3    H117787   3.981   0.510   0.276  1.6391 -1.2991 -2.8000
 5927TIP3    H217788   3.875   0.477   0.173 -1.4222 -1.9237  0.3470
 5928TIP3   OH217789   6.290   3.568   4.247 -0.3618  0.4398  0.3455
 5928TIP3    H117790   6.276   3.491   4.304 -1.7058  1.3895  1.3631
 5928TIP3    H217791   6.374   3.603   4.275  0.5481 -0.9511 -0.5176
 5929TIP3   OH217792   5.419   2.803   5.116  0.7910 -0.3776 -0.2141
 5929TIP3    H117793   5.432   2.776   5.207  0.5673  0.0318 -0.0616
 5929TIP3    H217794   5.474   2.881   5.106  2.4343 -1.5620 -1.0081
 5930TIP3   OH217795   2.060   2.012   4.535  0.3659  0.0163  0.0272
 5930TIP3    H117796   2.063   1.945   4.466  0.3849  0.7944 -0.7547
 5930TIP3    H217797   2.136   1.995   4.589  0.5251 -0.4232 -0.3329
 5931TIP3   OH217798   3.747   1.279   0.844 -0.2316 -0.4087 -0.3176
 5931TIP3    H117799   3.689   1.227   0.899  1.0018 -0.7856  0.6878
 5931TIP3    H217800   3.801   1.213   0.799 -1.0251 -0.0998 -1.8061
 5932TIP3   OH217801   5.235   0.969   3.078 -0.0967 -0.1548 -0.6901
 5932TIP3    H117802   5.225   1.058   3.044 -0.4402 -0.4314 -1.3269
 5932TIP3    H217803   5.179   0.916   3.023 -1.1816 -0.5380  0.7176
 5933TIP3   OH217804   2.104   4.777   2.451  0.2241  0.0658 -0.0144
 5933TIP3    H117805   2.020   4.731   2.445  0.9566 -1.5289  1.2418
 5933TIP3    H217806   2.115   4.819   2.365 -0.5250 -2.0908 -1.2286
 5934TIP3   OH217807   4.855   4.466   4.331 -0.1283 -0.3633 -0.1188
 5934TIP3    H117808   4.838   4.382   4.290  0.0249 -0.3865 -0.1350
 5934TIP3    H217809   4.861   4.528   4.258 -2.2620  0.0269 -0.0073
 5935TIP3   OH217810   5.119   5.464   2.633 -0.4952 -0.0973  0.1827
 5935TIP3    H117811   5.154   5.536   2.686 -1.0381  0.5935 -0.3796
 5935TIP3    H217812   5.091   5.399   2.698 -2.4945  1.3392  0.8711
 5936TIP3   OH217813   4.054   0.887   1.301  0.5305  0.3998 -0.0371
 5936TIP3    H117814   4.127   0.884   1.364  0.5911  1.6343 -0.0151
 5936TIP3    H217815   4.094   0.862   1.218  1.2544  2.0051 -0.2237
 5937TIP3   OH217816   1.748   3.246   1.008 -0.5649  0.1255 -0.4320
 5937TIP3    H117817   1.807   3.199   0.948  1.3604  1.0639  0.6218
 5937TIP3    H217818   1.733   3.185   1.079 -0.0269  0.2177 -0.2305
 5938TIP3   OH217819   4.750   1.725   2.474  0.2044 -0.2052  0.1262
 5938TIP3    H117820   4.844   1.740   2.487  0.0639 -0.2159  1.2800
 5938TIP3    H217821   4.745   1.668   2.398  1.1247 -0.0753 -0.0434
 5939TIP3   OH217822   1.774   1.614   0.875  0.3466  0.0849 -0.4748
 5939TIP3    H117823   1.694   1.577   0.836  0.2109 -1.2855  0.9930
 5939TIP3    H217824   1.838   1.543   0.867  0.3705 -0.1647  1.5164
 5940TIP3   OH217825   0.082   0.997   1.233  0.1676  0.0572 -0.4516
 5940TIP3    H117826   0.132   1.063   1.185  0.8399 -1.0014 -1.2410
 5940TIP3    H217827   0.040   0.945   1.165 -1.2710  0.3316  0.1812
 5941TIP3   OH217828   1.574   4.419   3.913  0.5227 -0.0679 -0.0749
 5941TIP3    H117829   1.531   4.465   3.985  0.0734  0.9840 -0.9854
 5941TIP3    H217830   1.667   4.440   3.923  0.8586 -2.0670  1.6975
 5942TIP3   OH217831   3.290   1.243   0.312  0.3855 -0.4391  0.8880
 5942TIP3    H117832   3.282   1.309   0.381 -1.8501 -0.2147  0.4899
 5942TIP3    H217833   3.205   1.245   0.267  2.0961  0.3114 -2.6812
 5943TIP3   OH217834   4.670   1.828   0.512  0.0521 -0.3746 -0.1164
 5943TIP3    H117835   4.692   1.883   0.587  1.3028  0.0946 -0.7962
 5943TIP3    H217836   4.617   1.885   0.455  1.3706  0.1886 -0.8338
 5944TIP3   OH217837   6.279   0.415   0.765  0.6283  1.0883  0.1495
 5944TIP3    H117838   6.330   0.467   0.702 -0.9873  0.7812 -1.4959
 5944TIP3    H217839   6.199   0.466   0.778  1.2775  1.5894  2.7315
 5945TIP3   OH217840   0.230   1.086   0.302 -0.4413 -0.0370 -0.5037
 5945TIP3    H117841   0.241   1.113   0.393 -1.5309 -0.4802 -0.2192
 5945TIP3    H217842   0.285   1.145   0.252  0.5742 -0.1215  0.4909
 5946TIP3   OH217843   5.833   4.797   2.073 -0.3909  0.1524 -0.2075
 5946TIP3    H117844   5.785   4.840   2.144  0.8772  2.6779 -0.7921
 5946TIP3    H217845   5.861   4.868   2.016  1.8252 -1.4737 -1.2838
 5947TIP3   OH217846   4.407   3.341   0.908 -0.7889 -0.3782 -0.1277
 5947TIP3    H117847   4.498   3.321   0.926  0.0608  1.0717 -2.3735
 5947TIP3    H217848   4.360   3.259   0.923  1.4376 -2.1838 -2.3026
 5948TIP3   OH217849   0.938   5.863   3.640 -0.1288  0.4862  0.6735
 5948TIP3    H117850   0.961   5.770   3.636 -0.3855  0.3477  1.9627
 5948TIP3    H217851   0.865   5.873   3.579  1.5204  0.3771 -1.3909
 5949TIP3   OH217852   1.621   0.118   0.976 -0.0674  0.1335 -0.0599
 5949TIP3    H117853   1.663   0.166   1.047 -0.2787 -1.2719  1.0669
 5949TIP3    H217854   1.688   0.055   0.947 -0.6295 -0.6532  0.2930
 5950TIP3   OH217855   0.334   5.560   3.602 -0.2073 -0.0368 -0.3648
 5950TIP3    H117856   0.337   5.513   3.685 -0.7869  1.9605  0.8479
 5950TIP3    H217857   0.263   5.519   3.553  1.7006 -2.8612 -0.9962
 5951TIP3   OH217858   2.420   0.654   0.248 -0.6302 -0.1859 -0.8366
 5951TIP3    H117859   2.448   0.590   0.314  1.7058  0.5908 -0.9776
 5951TIP3    H217860   2.372   0.720   0.298  0.2912 -0.0976 -0.0278
 5952TIP3   OH217861   4.311   5.513   1.202  0.0936 -0.0112 -0.2869
 5952TIP3    H117862   4.385   5.497   1.261  0.3018 -0.3029 -0.6283
 5952TIP3    H217863   4.240   5.539   1.260  0.3273 -0.2007  0.0877
 5953TIP3   OH217864   4.870   4.747   4.710 -0.3659 -0.3964 -0.4059
 5953TIP3    H117865   4.882   4.760   4.616 -0.8119  2.5310 -0.1503
 5953TIP3    H217866   4.778   4.769   4.726 -0.1349 -0.2110  0.8031
 5954TIP3   OH217867   1.236   2.261   0.497 -0.9740  0.0668 -0.3139
 5954TIP3    H117868   1.318   2.257   0.546 -0.7213 -0.2621 -0.7492
 5954TIP3    H217869   1.257   2.223   0.412 -1.9365 -1.3506  0.0463
 5955TIP3   OH217870   3.108   0.663   0.082 -0.6073  0.5163 -0.2114
 5955TIP3    H117871   3.014   0.680   0.087 -0.6260  0.1640  0.9476
 5955TIP3    H217872   3.149   0.746   0.106 -0.5716  1.0628 -1.9883
 5956TIP3   OH217873   6.228   4.279   4.320  0.5923  0.0480 -0.6178
 5956TIP3    H117874   6.316   4.259   4.352  1.0369 -0.0910 -1.8984
 5956TIP3    H217875   6.212   4.369   4.348  0.7649 -0.2251  0.4091
 5957TIP3   OH217876   3.560   0.879   4.662 -0.0023  0.4780  0.4629
 5957TIP3    H117877   3.519   0.829   4.591  0.8629  0.0607  0.2369
 5957TIP3    H217878   3.637   0.919   4.621  0.5837  0.1174  1.1974
 5958TIP3   OH217879   1.154   5.298   0.674  0.0301  0.2307  0.2764
 5958TIP3    H117880   1.070   5.332   0.705 -0.3536 -2.0330  1.9663
 5958TIP3    H217881   1.203   5.279   0.754  1.3990 -0.2996 -0.6504
 5959TIP3   OH217882   1.992   4.881   1.319 -0.5488  0.3076 -0.3483
 5959TIP3    H117883   1.901   4.869   1.345 -0.7748 -2.2767 -1.9059
 5959TIP3    H217884   2.019   4.794   1.288  1.9771  1.3546 -1.3234
 5960TIP3   OH217885   1.790   2.566   1.967 -0.7211 -0.0748 -0.3822
 5960TIP3    H117886   1.825   2.645   2.008  0.8096 -0.9088 -0.0382
 5960TIP3    H217887   1.800   2.497   2.033 -1.2903 -0.7455 -0.9673
 5961TIP3   OH217888   4.287   0.408   0.332 -0.5759 -0.3970 -0.2071
 5961TIP3    H117889   4.268   0.502   0.335  3.0046  0.4893 -1.0237
 5961TIP3    H217890   4.324   0.389   0.418  0.6642 -0.5355 -0.7558
 5962TIP3   OH217891   4.949   5.883   3.505  0.7628  0.2564  0.6731
 5962TIP3    H117892   4.903   5.841   3.433 -0.2873  1.6272  0.4980
 5962TIP3    H217893   4.964   5.813   3.568  0.1033 -0.6069 -0.1041
 5963TIP3   OH217894   3.891   1.137   3.586 -0.0049  0.1435 -0.3080
 5963TIP3    H117895   3.969   1.092   3.556  0.8440  1.2910  0.0895
 5963TIP3    H217896   3.894   1.129   3.682  0.5958  1.6556 -0.1661
 5964TIP3   OH217897   0.736   0.329   2.301  0.1204  0.9078 -0.2310
 5964TIP3    H117898   0.697   0.316   2.388 -1.7681  0.0078 -1.1640
 5964TIP3    H217899   0.731   0.243   2.259  0.0737  1.5523 -1.5981
 5965TIP3   OH217900   1.897   0.132   0.803 -0.1902 -0.0233 -0.2905
 5965TIP3    H117901   1.870   0.055   0.853  0.3250  0.0439  0.1016
 5965TIP3    H217902   1.931   0.193   0.869 -0.4163  0.4635 -0.6176
 5966TIP3   OH217903   6.184   5.012   2.539 -0.0481 -0.3495  0.1338
 5966TIP3    H117904   6.096   5.006   2.501 -0.6783  0.2555  1.4210
 5966TIP3    H217905   6.207   4.921   2.561 -0.0095 -0.6052 -0.8939
 5967TIP3   OH217906   5.995   2.809   4.977 -0.0334  0.2731  0.3317
 5967TIP3    H117907   5.942   2.814   4.897  1.0982 -0.3138 -0.4885
 5967TIP3    H217908   5.931   2.810   5.048 -1.0403  1.5486 -0.5304
 5968TIP3   OH217909   1.517   3.704   0.969  0.0829 -0.3581  0.6811
 5968TIP3    H117910   1.433   3.737   0.935 -0.2338 -0.1578  1.6470
 5968TIP3    H217911   1.492   3.643   1.038  0.6339 -2.8860 -1.2001
 5969TIP3   OH217912   1.852   3.291   0.032 -0.4019 -0.1193  0.9840
 5969TIP3    H117913   1.918   3.223   0.043 -1.0453 -0.7082  1.2884
 5969TIP3    H217914   1.870   3.354   0.102  1.7821  1.4084 -0.7887
 5970TIP3   OH217915   0.466   4.249   2.534  0.5608 -0.2179  0.1222
 5970TIP3    H117916   0.546   4.260   2.584  0.8275  2.1443 -0.6851
 5970TIP3    H217917   0.403   4.211   2.596  1.3022  1.2207  1.8240
 5971TIP3   OH217918   3.958   1.818   0.699 -0.5285 -0.5872 -0.2546
 5971TIP3    H117919   3.918   1.749   0.753  0.0472 -0.2430  0.6409
 5971TIP3    H217920   3.884   1.861   0.657 -0.9305 -1.4475 -0.4628
 5972TIP3   OH217921   0.607   3.842   4.712  0.1998 -0.2503  0.0980
 5972TIP3    H117922   0.575   3.929   4.733 -1.1341 -0.7600  0.2985
 5972TIP3    H217923   0.592   3.834   4.617  1.9457  0.3591 -0.2578
 5973TIP3   OH217924   0.242   1.767   0.178  0.0509 -0.1672  0.7042
 5973TIP3    H117925   0.232   1.707   0.104  1.7293  0.2868  0.0592
 5973TIP3    H217926   0.211   1.851   0.145  1.4150  0.1864  0.2562
 5974TIP3   OH217927   5.836   0.716   4.162  0.2634 -0.0505 -0.1598
 5974TIP3    H117928   5.768   0.687   4.101  1.2147 -0.9339 -0.8475
 5974TIP3    H217929   5.808   0.803   4.191 -1.9681 -1.0605  0.8612
 5975TIP3   OH217930   1.079   4.449   5.058 -0.3635  0.2526 -0.9231
 5975TIP3    H117931   1.131   4.373   5.030 -0.0379 -0.1408  0.6482
 5975TIP3    H217932   1.049   4.426   5.146 -0.5701  1.7959 -0.5720
 5976TIP3   OH217933   0.188   0.673   4.148  0.4619 -0.2382 -0.0604
 5976TIP3    H117934   0.276   0.644   4.123  0.5587  0.5727 -0.6796
 5976TIP3    H217935   0.130   0.621   4.091  0.5621 -0.3351 -0.0762
 5977TIP3   OH217936   6.016   3.438   2.904 -0.2659  0.1115  0.0362
 5977TIP3    H117937   5.944   3.473   2.852 -0.7797  0.5357  1.0179
 5977TIP3    H217938   5.986   3.443   2.994  0.5027 -0.8822  0.3661
 5978TIP3   OH217939   4.013   4.771   4.562  0.3316  0.2153  0.8012
 5978TIP3    H117940   3.957   4.845   4.584 -0.6302 -0.8559  2.0552
 5978TIP3    H217941   4.020   4.774   4.466 -2.1809  0.1644  0.5667
 5979TIP3   OH217942   4.996   1.601   4.725 -0.1181  0.1038 -0.0042
 5979TIP3    H117943   5.083   1.626   4.692  1.1003  0.7272  3.2902
 5979TIP3    H217944   5.010   1.584   4.818 -3.3671 -0.9076  0.4159
 5980TIP3   OH217945   4.319   4.055   1.937  0.2944  0.1001  0.3197
 5980TIP3    H117946   4.241   4.037   1.884 -1.1901 -0.3727  2.5467
 5980TIP3    H217947   4.292   4.125   1.996  2.7712  2.6250 -1.2833
 5981TIP3   OH217948   3.728   1.687   0.416 -0.2863  0.1946 -0.0152
 5981TIP3    H117949   3.778   1.623   0.466 -1.1580 -0.6092 -0.1465
 5981TIP3    H217950   3.648   1.700   0.467 -0.4182  0.6704 -0.3348
 5982TIP3   OH217951   3.586   4.851   3.462  0.1602 -0.2412  0.1385
 5982TIP3    H117952   3.501   4.850   3.505 -0.2212 -0.4831 -0.5982
 5982TIP3    H217953   3.608   4.944   3.454  0.4592 -0.2067  1.2620
 5983TIP3   OH217954   3.354   4.879   1.649  0.1732  0.2274 -0.2016
 5983TIP3    H117955   3.260   4.868   1.640 -0.1125  0.7103  1.8803
 5983TIP3    H217956   3.389   4.857   1.562 -1.8015 -0.2675 -0.9128
 5984TIP3   OH217957  -0.006   3.208   2.179 -0.9707  1.0888  0.1949
 5984TIP3    H117958   0.054   3.172   2.113  0.1997  1.9154  0.7647
 5984TIP3    H217959   0.004   3.150   2.255 -1.3801  0.8525  0.0673
 5985TIP3   OH217960   0.989   0.404   2.792 -0.3362 -0.3051  0.0739
 5985TIP3    H117961   0.986   0.428   2.700 -1.3368 -0.1250  0.1394
 5985TIP3    H217962   1.013   0.311   2.793 -0.1753 -0.2680 -0.3523
 5986TIP3   OH217963   1.636   5.272   3.895 -0.1034 -0.2999 -0.8484
 5986TIP3    H117964   1.558   5.278   3.950  0.4962 -0.6174  0.0590
 5986TIP3    H217965   1.709   5.271   3.956  0.6771  0.9467 -1.7160
 5987TIP3   OH217966   4.078   5.962   5.169 -0.0090 -0.2683  0.3054
 5987TIP3    H117967   3.994   5.963   5.123  0.8660  2.4969 -1.4171
 5987TIP3    H217968   4.123   5.885   5.133 -1.3299 -1.1509  0.4442
 5988TIP3   OH217969   3.087   1.908   3.690 -0.4535 -0.5207  0.8076
 5988TIP3    H117970   3.128   1.827   3.722 -0.0974 -0.5870  0.2096
 5988TIP3    H217971   3.001   1.881   3.658  0.5764 -1.1769 -1.6954
 5989TIP3   OH217972   1.568   4.456   0.737 -0.6103 -0.5548 -0.0264
 5989TIP3    H117973   1.656   4.419   0.742 -0.3796  0.1171  1.0584
 5989TIP3    H217974   1.529   4.413   0.660  0.4135 -1.3643 -0.1201
 5990TIP3   OH217975   4.682   2.619   2.096 -0.2463 -0.1219 -0.2336
 5990TIP3    H117976   4.675   2.539   2.148  0.9495 -0.5466 -0.6989
 5990TIP3    H217977   4.592   2.650   2.088 -0.8027 -1.7290 -0.5342
 5991TIP3   OH217978   1.480   4.093   1.652 -0.0100  0.2619 -0.1873
 5991TIP3    H117979   1.547   4.118   1.716  0.4685 -1.1816 -0.0804
 5991TIP3    H217980   1.398   4.094   1.702  0.2702 -0.2370  0.2950
 5992TIP3   OH217981   4.616   1.260   4.330 -0.0287  0.1053 -0.0726
 5992TIP3    H117982   4.605   1.187   4.269  0.5077 -0.5301  0.5810
 5992TIP3    H217983   4.668   1.324   4.282  0.2204 -0.3033 -0.3482
 5993TIP3   OH217984   4.799   0.427   2.061 -0.3088  0.1324  0.0325
 5993TIP3    H117985   4.785   0.448   2.153  0.3941  0.6761  0.0276
 5993TIP3    H217986   4.796   0.512   2.016 -2.0417 -0.2543 -0.6622
 5994TIP3   OH217987   3.533   5.680   3.666  0.9592 -0.0286  0.3051
 5994TIP3    H117988   3.453   5.732   3.658  0.9731  0.0987  0.9336
 5994TIP3    H217989   3.557   5.658   3.576  0.2210 -0.0625  0.1116
 5995TIP3   OH217990   5.606   5.938   0.553  0.2568  0.0344  0.5421
 5995TIP3    H117991   5.689   5.905   0.518 -1.1815 -0.8574 -2.4028
 5995TIP3    H217992   5.631   5.988   0.631  3.4080 -1.1097  0.4264
 5996TIP3   OH217993   5.766   2.916   4.100  0.4949  0.3840  0.3438
 5996TIP3    H117994   5.797   2.992   4.051  1.0820 -0.1111 -0.0669
 5996TIP3    H217995   5.767   2.844   4.037 -2.4269  0.4978  0.0207
 5997TIP3   OH217996   4.266   2.874   2.209 -0.3050  0.0007  0.2586
 5997TIP3    H117997   4.263   2.944   2.143  1.2648  0.2380  0.3906
 5997TIP3    H217998   4.178   2.872   2.246 -0.4266  1.8473  0.1743
 5998TIP3   OH217999   2.530   2.189   1.215  0.0651 -0.3032 -0.5143
 5998TIP3    H118000   2.587   2.265   1.224  0.7525 -0.7722 -0.7903
 5998TIP3    H218001   2.542   2.161   1.124 -0.7926 -0.2705 -0.6439
 5999TIP3   OH218002   0.718   4.401   2.961 -0.3137  1.1687  0.7326
 5999TIP3    H118003   0.641   4.455   2.978 -0.2854  1.2376  0.6425
 5999TIP3    H218004   0.711   4.328   3.022 -0.0727  1.5556  1.2263
 6000TIP3   OH218005   3.841   0.048   4.852  0.2543  0.2843 -0.5360
 6000TIP3    H118006   3.929   0.028   4.820  0.8287  1.0193  0.5103
 6000TIP3    H218007   3.848   0.040   4.947 -1.5042 -2.3163 -0.5269
 6001TIP3   OH218008   4.853   2.289   4.315 -0.2326 -0.0576 -0.2865
 6001TIP3    H118009   4.908   2.353   4.360  1.4378 -2.0622  0.6861
 6001TIP3    H218010   4.881   2.293   4.224  0.0258  0.4182 -0.1904
 6002TIP3   OH218011   1.676   5.474   4.139 -0.0003 -0.1874 -0.6863
 6002TIP3    H118012   1.741   5.520   4.191 -1.4676  2.0221 -0.6417
 6002TIP3    H218013   1.613   5.441   4.203 -1.7603  2.4597 -0.8883
 6003TIP3   OH218014   4.732   5.230   3.822  0.2259  0.1588 -0.5379
 6003TIP3    H118015   4.746   5.149   3.774  3.3775 -1.2011  2.2578
 6003TIP3    H218016   4.641   5.226   3.852  0.4703 -2.7686  0.1043
 6004TIP3   OH218017   3.279   1.187   5.111 -0.1002  0.4962 -0.0227
 6004TIP3    H118018   3.267   1.228   5.197 -0.4725 -0.2779  0.3001
 6004TIP3    H218019   3.374   1.184   5.099 -0.0517  0.7894  0.2723
 6005TIP3   OH218020   5.187   1.312   0.089  0.7055  0.3699  0.0514
 6005TIP3    H118021   5.201   1.231   0.040 -0.2688 -0.1701  0.6401
 6005TIP3    H218022   5.093   1.312   0.110  0.6539  1.7208 -0.0532
 6006TIP3   OH218023   2.066   0.821   4.728 -0.0866 -0.3077  0.5247
 6006TIP3    H118024   2.034   0.866   4.806  1.5031 -1.9510  2.2102
 6006TIP3    H218025   2.160   0.837   4.727  0.2388 -2.0306  0.1597
 6007TIP3   OH218026   2.647   4.824   0.094  0.0105  0.6056  0.2492
 6007TIP3    H118027   2.554   4.819   0.115  0.0829 -1.5697  0.3171
 6007TIP3    H218028   2.649   4.835  -0.001 -0.2951  1.1979  0.3029
 6008TIP3   OH218029   5.172   4.415   0.050 -0.3017 -0.4226  0.4144
 6008TIP3    H118030   5.188   4.472   0.125 -0.2901 -0.5593  0.5156
 6008TIP3    H218031   5.238   4.440  -0.015  1.1841 -1.8413  1.2954
 6009TIP3   OH218032   5.669   0.392   2.262  0.8021  0.3300 -0.0753
 6009TIP3    H118033   5.726   0.351   2.197  2.5027  0.5184  1.2239
 6009TIP3    H218034   5.620   0.320   2.301  1.2791 -0.0430 -0.1605
 6010TIP3   OH218035   5.170   0.877   2.362  0.1190  0.6251 -0.5988
 6010TIP3    H118036   5.176   0.971   2.375 -0.2374  0.7300 -1.1867
 6010TIP3    H218037   5.153   0.842   2.450 -0.9947  1.2138 -0.5571
 6011TIP3   OH218038   2.225   2.891   3.333 -0.0467  0.1377 -0.2001
 6011TIP3    H118039   2.267   2.957   3.389  0.3999 -0.5550  0.2935
 6011TIP3    H218040   2.296   2.854   3.282 -0.1534 -0.5433  0.1279
 6012TIP3   OH218041   0.236   2.008   3.114  0.4950  0.2049 -0.0028
 6012TIP3    H118042   0.262   2.095   3.145  0.8594  0.0930  0.0017
 6012TIP3    H218043   0.186   2.026   3.034  0.4200  0.4285  0.0930
 6013TIP3   OH218044   4.082   1.135   3.218  0.1138 -0.0447 -0.0977
 6013TIP3    H118045   4.118   1.171   3.137  0.5093 -1.0310 -0.3807
 6013TIP3    H218046   4.001   1.090   3.191  1.2179 -2.0295 -0.3201
 6014TIP3   OH218047   1.449   4.742   1.426  0.3668  0.3136 -0.0391
 6014TIP3    H118048   1.504   4.776   1.355  0.6714 -0.6740 -0.2806
 6014TIP3    H218049   1.360   4.762   1.398  0.5520  1.4555  0.1148
 6015TIP3   OH218050   0.950   3.621   4.527 -0.3721 -0.2372  0.1283
 6015TIP3    H118051   0.882   3.651   4.467 -0.8063 -1.4862 -0.0274
 6015TIP3    H218052   0.936   3.673   4.607 -0.2936  0.8591 -0.5532
 6016TIP3   OH218053   1.066   5.190   1.263  0.1267 -0.5237  0.0689
 6016TIP3    H118054   1.028   5.114   1.218  1.6579 -1.6918  0.6599
 6016TIP3    H218055   1.156   5.165   1.280 -0.1294  0.1813  3.0334
 6017TIP3   OH218056   1.509   2.221   1.041  0.3612  0.0340 -0.3190
 6017TIP3    H118057   1.486   2.221   1.134  0.3913 -0.5765 -0.3085
 6017TIP3    H218058   1.442   2.277   1.000 -0.5145 -0.8393 -0.1306
 6018TIP3   OH218059   4.410   2.558   0.164 -0.1336  0.5054 -0.8304
 6018TIP3    H118060   4.423   2.466   0.144 -1.3455  0.0725  0.2542
 6018TIP3    H218061   4.315   2.571   0.158 -0.1280  1.3126  0.5195
 6019TIP3   OH218062   4.824   0.645   3.307  0.1360 -0.0106 -0.0545
 6019TIP3    H118063   4.810   0.738   3.323  1.3898  0.0590  0.8270
 6019TIP3    H218064   4.862   0.612   3.389 -1.0518 -1.4852 -0.0357
 6020TIP3   OH218065   3.268   2.294   0.047 -0.4578 -0.0475 -0.0329
 6020TIP3    H118066   3.241   2.220  -0.008 -1.0824  0.4880 -0.4702
 6020TIP3    H218067   3.358   2.312   0.020 -0.5139 -0.2498 -0.3694
 6021TIP3   OH218068   3.599   2.222   2.492  0.7681  0.3002  0.0728
 6021TIP3    H118069   3.544   2.285   2.445  1.3180  0.2760 -0.6204
 6021TIP3    H218070   3.683   2.224   2.447 -0.1601 -3.5026 -2.3622
 6022TIP3   OH218071   4.062   1.854   2.376  0.7424  0.3906  0.3424
 6022TIP3    H118072   4.047   1.796   2.302  0.8003  0.5152  0.2332
 6022TIP3    H218073   4.121   1.805   2.433 -1.1060 -0.6837  1.4440
 6023TIP3   OH218074   0.724   0.566   4.478 -0.1537 -0.6234 -0.7948
 6023TIP3    H118075   0.660   0.523   4.421 -1.7376  1.1627 -0.4452
 6023TIP3    H218076   0.744   0.648   4.433  0.5794 -0.3736 -0.0306
 6024TIP3   OH218077   1.415   3.703   0.231 -0.6573 -0.0619  0.2283
 6024TIP3    H118078   1.375   3.656   0.305 -1.3993 -0.7786 -0.6053
 6024TIP3    H218079   1.351   3.770   0.208  0.2140  1.1130  1.1393
 6025TIP3   OH218080   5.305   4.766   0.642 -0.8009 -0.0738  0.2786
 6025TIP3    H118081   5.391   4.779   0.681 -0.0146  1.9053 -1.8883
 6025TIP3    H218082   5.251   4.837   0.680 -0.6941  0.3738 -0.3937
 6026TIP3   OH218083   5.796   3.056   3.860  0.4701  0.4655 -0.5670
 6026TIP3    H118084   5.814   3.035   3.768  1.9327  1.4188 -0.5257
 6026TIP3    H218085   5.701   3.053   3.867  0.3781 -0.5449 -1.8803
 6027TIP3   OH218086   1.367   4.954   4.531  0.0326  0.2050 -0.1479
 6027TIP3    H118087   1.358   4.911   4.616  0.9277 -1.5055 -0.8805
 6027TIP3    H218088   1.308   4.906   4.474 -0.1953  1.0339 -0.6243
 6028TIP3   OH218089   2.805   3.853   4.481 -0.3682  0.1784 -0.2365
 6028TIP3    H118090   2.752   3.774   4.488  0.2861 -0.5103 -2.4337
 6028TIP3    H218091   2.888   3.830   4.522 -0.4675  0.0141 -0.1252
 6029TIP3   OH218092   3.855   1.086   2.875  0.4725  0.2989  0.2515
 6029TIP3    H118093   3.885   1.090   2.784 -0.7301  0.9573 -0.1350
 6029TIP3    H218094   3.892   1.164   2.917 -2.2035  2.2533 -0.7445
 6030TIP3   OH218095   4.738   4.135   2.454  0.2616  0.1977 -0.1131
 6030TIP3    H118096   4.801   4.203   2.428 -0.5947  0.8777 -0.4808
 6030TIP3    H218097   4.673   4.135   2.383  0.2111 -0.9682 -0.0779
 6031TIP3   OH218098   0.640   5.338   4.091  0.0353  0.0328  0.0062
 6031TIP3    H118099   0.677   5.410   4.040 -0.4211  1.0762  1.1018
 6031TIP3    H218100   0.701   5.325   4.163  1.0108 -1.8629 -1.0784
 6032TIP3   OH218101   5.478   3.147   0.236  0.2244 -0.7369 -0.4208
 6032TIP3    H118102   5.391   3.158   0.273  1.0392 -1.5873  1.9334
 6032TIP3    H218103   5.482   3.054   0.212 -0.0466 -0.3479 -2.0711
 6033TIP3   OH218104   4.290   4.505   0.505 -0.5482 -0.1068 -0.5182
 6033TIP3    H118105   4.315   4.554   0.426 -1.8680  1.2716 -0.1172
 6033TIP3    H218106   4.327   4.556   0.577 -1.1794 -0.1691 -0.1429
 6034TIP3   OH218107   4.956   2.271   0.178 -0.0095  0.5494 -0.0433
 6034TIP3    H118108   4.936   2.348   0.125  0.6354  1.5312  1.0844
 6034TIP3    H218109   5.044   2.246   0.151 -0.4450 -0.1785 -0.8325
 6035TIP3   OH218110   1.330   0.588   2.090 -0.7255  0.3961  0.2707
 6035TIP3    H118111   1.327   0.542   2.006  0.7792  0.1498  0.3152
 6035TIP3    H218112   1.322   0.518   2.155 -0.5717  0.4307  0.3276
 6036TIP3   OH218113   4.742   1.396   1.812 -0.8520  0.3873  0.9034
 6036TIP3    H118114   4.766   1.486   1.831  1.3860 -0.1745  1.1543
 6036TIP3    H218115   4.775   1.380   1.723 -0.8983 -0.2724  0.9939
 6037TIP3   OH218116   1.053   3.629   0.444 -0.0126  0.3707  0.2035
 6037TIP3    H118117   1.003   3.690   0.390 -1.7489 -1.5786 -0.5370
 6037TIP3    H218118   1.041   3.661   0.533 -1.8016  0.5368 -0.0593
 6038TIP3   OH218119   1.249   5.758   0.944 -0.3996 -0.0943 -0.2386
 6038TIP3    H118120   1.295   5.676   0.930  1.3020  0.6801  0.5314
 6038TIP3    H218121   1.187   5.765   0.871  2.1543 -0.1987 -2.5665
 6039TIP3   OH218122   1.629   1.652   4.939 -0.4506  0.4387  0.2915
 6039TIP3    H118123   1.696   1.680   4.877  0.6099  0.0365  1.2271
 6039TIP3    H218124   1.548   1.689   4.904  0.2617  1.0326 -0.8032
 6040TIP3   OH218125   4.134   1.998   1.137 -0.3456 -0.0015 -0.6380
 6040TIP3    H118126   4.162   2.065   1.199  0.2496 -0.4481 -0.4105
 6040TIP3    H218127   4.040   2.013   1.125 -1.2326 -1.7620  2.7641
 6041TIP3   OH218128   2.734   5.906   1.920  0.0897  0.4971 -0.0778
 6041TIP3    H118129   2.800   5.888   1.853  0.6719 -0.4665  0.7292
 6041TIP3    H218130   2.761   5.989   1.959 -1.4861  2.2467 -2.4756
 6042TIP3   OH218131   0.046   1.960   2.450 -0.1183 -0.0347 -0.5052
 6042TIP3    H118132   0.129   2.007   2.455  0.3732 -0.7399 -1.7014
 6042TIP3    H218133   0.062   1.877   2.495 -0.5696  0.3416  0.3756
 6043TIP3   OH218134   1.508   1.712   0.428 -0.1301  0.2828 -0.0768
 6043TIP3    H118135   1.443   1.742   0.365 -0.4667 -1.1437 -0.4221
 6043TIP3    H218136   1.590   1.708   0.378 -0.0579  0.7058  0.0007
 6044TIP3   OH218137   3.079   2.532   0.506  0.4506  0.3968 -0.0588
 6044TIP3    H118138   3.081   2.438   0.524  0.6815  0.6308  1.2441
 6044TIP3    H218139   3.121   2.541   0.421 -0.6417 -0.7844 -0.7554
 6045TIP3   OH218140   2.941   5.079   2.070 -0.0103 -0.1268  0.0860
 6045TIP3    H118141   2.891   5.157   2.046 -0.4661 -0.5804 -0.4397
 6045TIP3    H218142   2.884   5.031   2.130 -0.7469 -1.2760 -1.4890
 6046TIP3   OH218143   2.870   3.224   2.579 -0.6593 -0.1805 -0.0414
 6046TIP3    H118144   2.946   3.177   2.613  0.0349  0.3913 -0.7697
 6046TIP3    H218145   2.902   3.312   2.561 -2.0036  0.6990  1.5866
 6047TIP3   OH218146   6.120   2.923   1.825  0.1662 -0.0895 -0.0301
 6047TIP3    H118147   6.055   2.853   1.829 -1.2316  1.1646  0.0503
 6047TIP3    H218148   6.165   2.920   1.909 -2.7281  1.6753  1.7458
 6048TIP3   OH218149   4.448   0.883   4.534  0.0011 -0.0815 -0.3690
 6048TIP3    H118150   4.520   0.868   4.473  0.0884  1.3772 -0.6473
 6048TIP3    H218151   4.489   0.877   4.621  0.2620 -0.2141 -0.4987
 6049TIP3   OH218152   3.941   4.443   3.887  0.3093  0.0201 -0.6175
 6049TIP3    H118153   4.019   4.471   3.935  0.6936 -1.5013 -0.3149
 6049TIP3    H218154   3.963   4.459   3.795  0.7756  0.0953 -0.4965
 6050TIP3   OH218155   3.303   1.404   1.987  0.1501  0.3022 -0.2050
 6050TIP3    H118156   3.394   1.434   1.980  0.1757 -0.1339 -2.3548
 6050TIP3    H218157   3.252   1.473   1.945 -0.6608  0.9402  1.7099
 6051TIP3   OH218158   3.215   5.868   1.041 -0.3097 -0.1331 -0.6300
 6051TIP3    H118159   3.245   5.958   1.036  2.3751 -0.8485  0.4057
 6051TIP3    H218160   3.263   5.823   0.971  1.0751 -1.3062  0.9736
 6052TIP3   OH218161   3.874   5.068   2.726  0.4816 -0.2305  0.1918
 6052TIP3    H118162   3.932   5.046   2.653  0.5292  1.4969 -0.3410
 6052TIP3    H218163   3.816   4.992   2.734  2.3368 -1.7072  0.2894
 6053TIP3   OH218164   6.288   2.969   0.489 -0.2572  0.3079 -0.2927
 6053TIP3    H118165   6.225   2.905   0.522 -1.9312  0.9810 -1.9840
 6053TIP3    H218166   6.263   3.051   0.530  0.5803  0.2815  0.2860
 6054TIP3   OH218167   4.606   3.085   5.051 -0.2460  0.1371  0.2548
 6054TIP3    H118168   4.623   3.030   5.127 -0.2753  0.1950  0.3039
 6054TIP3    H218169   4.658   3.164   5.067  0.9626 -0.4770 -0.5175
 6055TIP3   OH218170   1.913   4.290   3.800 -0.8961 -0.0692 -0.0177
 6055TIP3    H118171   1.828   4.265   3.764 -0.0780 -2.4954 -0.4538
 6055TIP3    H218172   1.894   4.320   3.889 -2.4889  2.1548 -1.0322
 6056TIP3   OH218173   5.278   3.510   0.235  0.5818 -0.1609 -0.1497
 6056TIP3    H118174   5.254   3.424   0.198 -0.1899  0.6564 -1.6542
 6056TIP3    H218175   5.318   3.557   0.162 -0.4090  1.2952  0.2046
 6057TIP3   OH218176   0.461   0.087   2.345  0.1692 -0.0032  0.4994
 6057TIP3    H118177   0.533   0.034   2.381 -1.3120 -2.2740  0.3220
 6057TIP3    H218178   0.419   0.029   2.282  0.0480  2.3754 -1.7718
 6058TIP3   OH218179   2.526   1.479   4.469  0.2302 -0.0210  0.2644
 6058TIP3    H118180   2.598   1.542   4.478  1.6417 -1.5686  0.2592
 6058TIP3    H218181   2.529   1.428   4.550 -0.8749 -0.1313  0.2527
 6059TIP3   OH218182   2.606   3.879   4.991  0.0019  0.0427 -0.4790
 6059TIP3    H118183   2.580   3.970   5.008 -2.0488 -0.1817 -2.1256
 6059TIP3    H218184   2.664   3.857   5.064 -0.0682  2.4172  0.3687
 6060TIP3   OH218185   0.699   2.333   0.856  0.3706 -0.1980 -0.2750
 6060TIP3    H118186   0.752   2.319   0.934  0.4002 -1.5390 -0.5071
 6060TIP3    H218187   0.663   2.421   0.866  2.1147  0.4991  0.1976
 6061TIP3   OH218188   4.345   4.703   4.068 -0.1596  0.3584  0.1799
 6061TIP3    H118189   4.321   4.617   4.033 -1.0198  0.7612 -0.2264
 6061TIP3    H218190   4.377   4.684   4.157  0.2048 -0.4429 -0.1103
 6062TIP3   OH218191   3.741   5.008   2.160 -0.1379 -0.1066  0.6981
 6062TIP3    H118192   3.736   4.954   2.081 -0.0062 -0.1458  0.7160
 6062TIP3    H218193   3.829   5.047   2.156  0.1013 -0.5947  1.1421
 6063TIP3   OH218194   3.947   5.831   3.916 -0.3878  0.0657  0.0355
 6063TIP3    H118195   3.880   5.763   3.911 -2.0954  1.7550 -2.2428
 6063TIP3    H218196   4.022   5.795   3.867 -0.4237 -0.9560  0.6884
 6064TIP3   OH218197   6.019   2.258   1.496 -0.3683  0.3494 -0.7772
 6064TIP3    H118198   5.941   2.259   1.442 -1.9081 -1.3754  1.2616
 6064TIP3    H218199   6.014   2.339   1.547 -1.6819 -0.4753  0.4436
 6065TIP3   OH218200   6.184   5.744   0.152 -1.0200 -0.5290  0.2806
 6065TIP3    H118201   6.119   5.674   0.159 -3.2104  0.8445 -3.3709
 6065TIP3    H218202   6.147   5.816   0.203 -2.6059  0.2682 -1.8282
 6066TIP3   OH218203   0.037   4.901   3.930  0.4845  0.3755 -0.1877
 6066TIP3    H118204   0.088   4.977   3.905 -0.7188  0.9675 -0.9485
 6066TIP3    H218205  -0.054   4.933   3.934 -0.1392 -1.1342 -1.1476
 6067TIP3   OH218206   3.667   3.664   4.261  0.1459  0.1499  0.8310
 6067TIP3    H118207   3.669   3.681   4.355  0.0787  0.2188  0.8189
 6067TIP3    H218208   3.682   3.569   4.254  0.6338  0.2194  0.8903
 6068TIP3   OH218209   2.470   1.878   0.555 -0.1723 -0.1341  0.2371
 6068TIP3    H118210   2.526   1.823   0.610 -1.4908  0.8543  2.7058
 6068TIP3    H218211   2.521   1.958   0.543 -0.3118  0.0732  0.9772
 6069TIP3   OH218212   3.753   0.790   1.502 -0.2160  0.1740  0.1894
 6069TIP3    H118213   3.769   0.703   1.537 -0.8775 -0.9495 -2.0988
 6069TIP3    H218214   3.659   0.791   1.483  0.0646  0.7351 -1.3512
 6070TIP3   OH218215   4.102   5.270   1.250  0.2373  0.3501  0.1201
 6070TIP3    H118216   4.075   5.340   1.309  0.7085  0.7229 -0.1002
 6070TIP3    H218217   4.024   5.252   1.197  0.5770  1.9023 -0.9821
 6071TIP3   OH218218   0.399   0.275   4.021 -0.3951  0.1932 -0.4502
 6071TIP3    H118219   0.346   0.195   4.013  0.7056 -0.6028 -0.1210
 6071TIP3    H218220   0.397   0.314   3.934  1.0551 -1.5466 -1.3348
 6072TIP3   OH218221   0.381   3.843   4.080  0.1429 -0.1598  0.4205
 6072TIP3    H118222   0.398   3.882   3.995  0.4095 -0.5406  0.2957
 6072TIP3    H218223   0.468   3.819   4.113 -0.0457 -1.1701  0.2367
 6073TIP3   OH218224   3.967   0.633   3.106  0.8878 -0.1016 -0.3809
 6073TIP3    H118225   4.015   0.574   3.164 -1.2021 -1.3858  0.1418
 6073TIP3    H218226   3.952   0.580   3.027 -1.0439 -0.3588  0.1078
 6074TIP3   OH218227   3.288   2.036   4.682 -0.1021  0.0385 -0.2225
 6074TIP3    H118228   3.270   1.953   4.726 -0.8738 -0.2182 -1.0034
 6074TIP3    H218229   3.281   2.101   4.752  2.3620 -0.6754  0.8141
 6075TIP3   OH218230   1.256   5.170   2.656  0.1452 -0.1542  0.2362
 6075TIP3    H118231   1.199   5.130   2.591 -0.8009  0.4914  0.6518
 6075TIP3    H218232   1.286   5.251   2.615  0.2463 -0.1718  0.2743
 6076TIP3   OH218233   1.261   2.418   3.515  0.0141  0.1953 -0.0701
 6076TIP3    H118234   1.351   2.432   3.487 -0.9137  1.6520 -2.7426
 6076TIP3    H218235   1.239   2.331   3.481  0.2060  0.1084  0.0262
 6077TIP3   OH218236   6.079   5.868   2.639  0.0547  0.3042  0.2357
 6077TIP3    H118237   6.041   5.786   2.607 -0.8700  0.1151  1.7105
 6077TIP3    H218238   6.138   5.841   2.709  2.4553  0.6610 -1.5387
 6078TIP3   OH218239   3.427   4.898   0.010 -0.1616  0.0117  0.9196
 6078TIP3    H118240   3.506   4.847   0.025 -0.2927 -0.0724  1.3572
 6078TIP3    H218241   3.359   4.832  -0.007 -0.3573  0.0258  1.6071
 6079TIP3   OH218242   1.772   1.457   0.123  0.3553 -0.1448  0.2024
 6079TIP3    H118243   1.767   1.546   0.087  0.1696  0.1760  0.9907
 6079TIP3    H218244   1.813   1.469   0.209  1.3781 -0.9688 -0.1520
 6080TIP3   OH218245   6.222   1.377   4.141  0.0598 -0.0071 -0.3260
 6080TIP3    H118246   6.183   1.291   4.156 -0.6688  0.3394 -0.2026
 6080TIP3    H218247   6.221   1.420   4.227  3.4044 -1.0332  0.4034
 6081TIP3   OH218248   1.246   5.735   0.206 -0.2723  0.4818 -0.3362
 6081TIP3    H118249   1.203   5.736   0.292  1.2158  0.5572  0.4535
 6081TIP3    H218250   1.338   5.718   0.227 -0.1148 -1.0412 -2.0449
 6082TIP3   OH218251   1.802   2.228   0.244 -0.1355  0.0248 -0.0722
 6082TIP3    H118252   1.897   2.219   0.244 -0.1320  0.0185  0.6471
 6082TIP3    H218253   1.777   2.219   0.336 -0.8168  0.1893 -0.2366
 6083TIP3   OH218254   3.206   0.702   4.433 -0.3537  0.2519 -0.4798
 6083TIP3    H118255   3.189   0.759   4.357  1.1666 -0.4269 -1.3589
 6083TIP3    H218256   3.300   0.685   4.429 -0.4563 -0.7115  0.9287
 6084TIP3   OH218257   2.396   4.500   5.122 -0.1654 -0.2278  0.0989
 6084TIP3    H118258   2.372   4.592   5.111 -0.7811 -0.4326 -0.3345
 6084TIP3    H218259   2.381   4.461   5.036  0.2311 -0.7013  0.2447
 6085TIP3   OH218260   0.571   0.579   1.761 -0.2002  0.1890  0.2770
 6085TIP3    H118261   0.666   0.585   1.764  0.0422 -0.9368 -2.4690
 6085TIP3    H218262   0.542   0.662   1.723 -0.4427  0.8413  1.7930
 6086TIP3   OH218263   4.492   0.701   1.467 -0.0305 -0.3602  0.6159
 6086TIP3    H118264   4.484   0.779   1.413  0.6386 -0.2595  0.6493
 6086TIP3    H218265   4.408   0.656   1.458 -0.2136  0.0725  0.1445
 6087TIP3   OH218266   4.629   0.473   3.259 -0.4175 -0.2285 -0.0840
 6087TIP3    H118267   4.681   0.420   3.199 -0.9607  1.1159 -1.8375
 6087TIP3    H218268   4.687   0.545   3.284 -1.0950  0.8152 -1.3826
 6088TIP3   OH218269   1.674   1.328   3.151  0.3136  0.0158  0.3193
 6088TIP3    H118270   1.626   1.272   3.090 -1.0415 -0.3506  1.6712
 6088TIP3    H218271   1.766   1.312   3.131 -0.0460 -2.1795  0.1870
 6089TIP3   OH218272   2.729   0.191   3.607  0.0432  0.3310 -0.2178
 6089TIP3    H118273   2.814   0.197   3.565 -0.7596  2.0831 -1.7499
 6089TIP3    H218274   2.722   0.100   3.635  2.1614  0.0124 -0.5518
 6090TIP3   OH218275   2.301   5.798   2.651 -0.0655  0.0749 -0.3595
 6090TIP3    H118276   2.395   5.776   2.648  0.4155  1.9758 -0.2455
 6090TIP3    H218277   2.258   5.715   2.671  1.6571 -0.7053  0.3312
 6091TIP3   OH218278   4.272   5.721   4.568 -0.4835  0.1349 -0.0105
 6091TIP3    H118279   4.360   5.743   4.536 -0.9535 -0.1224 -1.5798
 6091TIP3    H218280   4.214   5.748   4.497 -1.6401 -0.0489  0.8482
 6092TIP3   OH218281   2.902   2.206   0.209  0.0312  0.4137 -0.3091
 6092TIP3    H118282   2.926   2.254   0.130 -1.3359  0.9058 -0.4587
 6092TIP3    H218283   2.938   2.257   0.281  0.9257  0.1828 -0.5766
 6093TIP3   OH218284   4.458   2.224   5.147  0.1677  0.5310  0.0763
 6093TIP3    H118285   4.440   2.312   5.114 -0.8058 -0.0149 -0.9002
 6093TIP3    H218286   4.468   2.235   5.241 -0.5194  1.5997  0.0354
 6094TIP3   OH218287   4.610   0.140   2.304 -0.2603  0.5446 -0.4922
 6094TIP3    H118288   4.589   0.130   2.396  0.6826  0.1750 -0.3043
 6094TIP3    H218289   4.670   0.068   2.285 -0.3584  0.6798 -1.3681
 6095TIP3   OH218290   1.644   3.681   0.439  0.3009 -0.3079  0.1728
 6095TIP3    H118291   1.559   3.699   0.479  0.3656  0.4193 -0.0067
 6095TIP3    H218292   1.624   3.653   0.350  0.2339 -0.5474  0.2608
 6096TIP3   OH218293   4.908   5.439   2.401  0.3151  0.4602  0.3793
 6096TIP3    H118294   4.908   5.485   2.318  2.3655 -0.6982 -0.3343
 6096TIP3    H218295   4.991   5.463   2.443  1.9470 -3.0585 -0.4268
 6097TIP3   OH218296   2.884   2.356   0.875 -0.1677  0.3103 -0.0967
 6097TIP3    H118297   2.890   2.269   0.836  0.3746  1.0015 -1.6375
 6097TIP3    H218298   2.852   2.412   0.805  1.7429  1.7852  0.1118
 6098TIP3   OH218299   1.729   5.508   5.143  0.3471 -0.7827  0.1077
 6098TIP3    H118300   1.738   5.592   5.096 -3.9990 -0.4405 -0.5483
 6098TIP3    H218301   1.729   5.442   5.073 -0.4165 -0.8696  0.1847
 6099TIP3   OH218302   6.159   4.837   1.528  0.0225  0.0995 -0.0359
 6099TIP3    H118303   6.224   4.788   1.478  0.5758  0.4966  0.2781
 6099TIP3    H218304   6.158   4.924   1.488  1.0530  0.6730  1.1075
 6100TIP3   OH218305   1.801   3.966   1.514 -0.0518  0.1434  0.0628
 6100TIP3    H118306   1.790   3.910   1.591 -1.2352  0.7073  0.3405
 6100TIP3    H218307   1.778   3.909   1.440 -0.7639  0.1112  0.2988
 6101TIP3   OH218308   5.842   4.408   1.588 -0.2756  0.4469 -0.4776
 6101TIP3    H118309   5.873   4.499   1.591  0.2108  0.2488  0.8291
 6101TIP3    H218310   5.755   4.414   1.548 -0.1876  1.4645 -0.5431
 6102TIP3   OH218311   3.403   3.415   2.961 -0.0674 -0.3595 -0.0993
 6102TIP3    H118312   3.322   3.379   2.996  0.0191 -0.3726  0.0885
 6102TIP3    H218313   3.448   3.451   3.037 -1.4136  2.6730 -0.5888
 6103TIP3   OH218314   4.019   3.909   3.455 -0.2001  0.2192  0.2625
 6103TIP3    H118315   3.986   3.830   3.412 -0.2465  1.4747 -2.2124
 6103TIP3    H218316   4.114   3.897   3.459 -0.3593 -0.7823  1.7784
 6104TIP3   OH218317   5.478   0.161   2.210 -0.6649  0.5485 -0.0204
 6104TIP3    H118318   5.423   0.210   2.149 -1.9682 -0.7951  0.0217
 6104TIP3    H218319   5.418   0.128   2.277  0.4899  0.6245  1.1112
 6105TIP3   OH218320   4.850   1.868   1.102 -0.0738  0.2367  0.6280
 6105TIP3    H118321   4.895   1.894   1.021 -0.4089 -1.0288  0.0233
 6105TIP3    H218322   4.792   1.942   1.121  1.9827  1.8102  1.2794
 6106TIP3   OH218323   5.664   3.473   4.262 -0.2451  0.5256  0.0992
 6106TIP3    H118324   5.748   3.502   4.227  0.7951 -2.1717  0.1042
 6106TIP3    H218325   5.653   3.384   4.228 -2.4639  0.3019  1.1987
 6107TIP3   OH218326   4.269   2.318   0.937 -0.1834  0.1127 -0.4705
 6107TIP3    H118327   4.225   2.355   1.013  1.4449 -0.8431  1.0035
 6107TIP3    H218328   4.341   2.379   0.919  1.0379 -1.0066  0.4551
 6108TIP3   OH218329   0.052   3.902   1.594 -0.2717 -0.2066 -0.0613
 6108TIP3    H118330   0.057   3.851   1.675  0.0574 -0.1358 -0.0344
 6108TIP3    H218331  -0.036   3.938   1.593 -0.1204  0.1812  0.5030
 6109TIP3   OH218332   3.844   4.196   2.500 -0.1621  0.1344 -0.4640
 6109TIP3    H118333   3.796   4.152   2.571  0.0633  0.6297  0.0009
 6109TIP3    H218334   3.850   4.130   2.431 -0.8257 -0.1934 -0.2191
 6110TIP3   OH218335   5.097   5.252   3.723  0.2779 -0.2997  0.5446
 6110TIP3    H118336   5.078   5.208   3.806  2.3458  0.6668  1.6166
 6110TIP3    H218337   5.147   5.330   3.748 -0.3445  0.8370 -1.5217
 6111TIP3   OH218338   2.617   1.499   2.729 -0.2117 -0.9232 -0.6055
 6111TIP3    H118339   2.707   1.491   2.759 -0.1678 -0.4550 -0.5928
 6111TIP3    H218340   2.568   1.526   2.807 -0.5098 -1.9848 -0.4223
 6112TIP3   OH218341   1.121   3.364   0.396 -0.0185  0.4388 -0.1097
 6112TIP3    H118342   1.070   3.345   0.317 -0.2338  1.2164 -0.1713
 6112TIP3    H218343   1.104   3.457   0.413 -0.7516  0.0578  1.4097
 6113TIP3   OH218344   1.245   0.681   3.871 -0.3046 -0.0466 -0.4860
 6113TIP3    H118345   1.214   0.744   3.807  0.1833  0.8920  0.1737
 6113TIP3    H218346   1.302   0.732   3.929 -1.7156 -0.5605  1.4527
 6114TIP3   OH218347   0.144   1.502   1.899  0.4185 -0.3038  0.3569
 6114TIP3    H118348   0.142   1.593   1.869  2.1352 -0.4689 -0.4327
 6114TIP3    H218349   0.053   1.475   1.901 -0.0283  0.9912 -0.8497
 6115TIP3   OH218350   3.853   3.605   3.615  0.4254  0.3860 -0.0600
 6115TIP3    H118351   3.838   3.678   3.675 -0.2873  0.1481  0.0528
 6115TIP3    H218352   3.931   3.561   3.650 -0.3691 -0.1462  1.0853
 6116TIP3   OH218353   4.766   2.792   1.774  0.1353 -0.2977 -0.0720
 6116TIP3    H118354   4.859   2.769   1.779  0.4704  0.8654 -0.4283
 6116TIP3    H218355   4.723   2.731   1.834  1.3877  0.3911  1.6469
 6117TIP3   OH218356   5.083   4.797   0.137  0.3815 -0.3838 -0.2267
 6117TIP3    H118357   5.135   4.762   0.064  2.0140  0.3678  0.5460
 6117TIP3    H218358   5.143   4.796   0.211 -0.0937  2.3018  0.2616
 6118TIP3   OH218359   5.938   2.467   2.540  0.8582 -0.1451  0.6204
 6118TIP3    H118360   5.900   2.391   2.495 -0.5493  0.9892 -0.1925
 6118TIP3    H218361   5.905   2.460   2.629 -0.5524  0.3163  0.1580
 6119TIP3   OH218362   4.634   3.411   2.754  0.3703 -0.1337 -0.0689
 6119TIP3    H118363   4.714   3.421   2.703 -0.0342  0.1067 -0.6628
 6119TIP3    H218364   4.649   3.332   2.806  0.2512 -1.2001 -1.5769
 6120TIP3   OH218365   1.808   1.977   3.583  1.0032 -0.1312 -0.1625
 6120TIP3    H118366   1.837   2.045   3.522  0.1545 -0.6011 -1.1335
 6120TIP3    H218367   1.807   2.020   3.668 -1.8157  1.8427 -1.0546
 6121TIP3   OH218368   5.731   5.755   4.292 -0.0221 -0.0902 -0.4000
 6121TIP3    H118369   5.819   5.763   4.330  0.7540 -1.4090 -1.8017
 6121TIP3    H218370   5.717   5.661   4.283 -1.3147  0.1243 -0.7993
 6122TIP3   OH218371   1.001   3.421   1.600 -0.3021  0.5702 -0.0080
 6122TIP3    H118372   1.002   3.403   1.506 -1.4215  1.6060 -0.2456
 6122TIP3    H218373   0.950   3.349   1.637  1.1623 -0.5060 -0.0075
 6123TIP3   OH218374   5.954   4.434   2.399  0.1086 -0.1743 -0.4055
 6123TIP3    H118375   5.941   4.493   2.325  0.2175 -0.8551 -0.9631
 6123TIP3    H218376   5.867   4.400   2.418  0.0094  0.2991  0.0479
 6124TIP3   OH218377   2.853   1.291   2.637  0.4487  0.2009  0.4589
 6124TIP3    H118378   2.936   1.325   2.602  0.7634  0.0612  1.0540
 6124TIP3    H218379   2.850   1.323   2.727  0.2028 -0.3868  0.6678
 6125TIP3   OH218380   3.504   0.696   1.873  0.1915 -0.3875 -0.2390
 6125TIP3    H118381   3.452   0.760   1.826 -0.1529 -0.4086  0.1112
 6125TIP3    H218382   3.452   0.673   1.950  0.3781 -0.9735 -0.2798
 6126TIP3   OH218383   1.699   1.402   0.601  0.2377 -0.2071 -0.0967
 6126TIP3    H118384   1.608   1.391   0.573 -0.1912  1.9082  0.3096
 6126TIP3    H218385   1.700   1.373   0.692  0.5509 -2.4355 -0.7362
 6127TIP3   OH218386   2.914   3.349   3.484 -0.2495  0.2308 -0.3867
 6127TIP3    H118387   2.955   3.435   3.481  1.7383 -0.6473 -0.5232
 6127TIP3    H218388   2.929   3.319   3.574 -3.3176  1.0554  0.4868
 6128TIP3   OH218389   2.956   3.056   0.889  0.4289  0.0399 -0.4430
 6128TIP3    H118390   3.051   3.050   0.905  0.3215 -0.6679 -0.0280
 6128TIP3    H218391   2.949   3.085   0.799  1.0656 -2.5560 -1.4133
 6129TIP3   OH218392   1.937   5.832   3.561 -0.1433  0.1614 -0.3123
 6129TIP3    H118393   1.927   5.821   3.466  0.8839  2.4423 -0.7596
 6129TIP3    H218394   1.848   5.849   3.593 -0.2455  1.6438 -1.2728
 6130TIP3   OH218395   5.080   1.838   0.311 -0.2746 -0.4259 -0.4648
 6130TIP3    H118396   5.070   1.788   0.392  1.6509  1.4228  1.0440
 6130TIP3    H218397   5.122   1.776   0.250  1.7246 -0.8592  1.2226
 6131TIP3   OH218398   4.205   5.280   0.407 -0.0405 -0.1450  0.3617
 6131TIP3    H118399   4.284   5.333   0.419 -0.5754  0.3922  1.8330
 6131TIP3    H218400   4.136   5.344   0.390 -0.4204 -0.4930  0.5804
 6132TIP3   OH218401   5.672   2.156   0.009  0.2715  0.3262  0.2011
 6132TIP3    H118402   5.669   2.076   0.062 -0.4895  0.6222  0.6343
 6132TIP3    H218403   5.642   2.225   0.069 -1.2351  0.5701 -0.7738
 6133TIP3   OH218404   2.500   2.103   1.681  0.1982 -0.1382  0.4332
 6133TIP3    H118405   2.512   2.197   1.668 -0.6195 -0.2796 -1.7625
 6133TIP3    H218406   2.588   2.066   1.674  0.2210  0.1970 -1.8547
 6134TIP3   OH218407   4.998   0.904   2.899 -0.3824  0.0368  0.0424
 6134TIP3    H118408   4.965   0.974   2.843 -0.0085  0.6028  0.5140
 6134TIP3    H218409   4.920   0.864   2.937 -0.5626  0.7155  0.3902
 6135TIP3   OH218410   6.069   0.648   1.463 -0.1374 -0.3466  0.5768
 6135TIP3    H118411   6.141   0.618   1.407 -1.0946 -1.5506 -0.0724
 6135TIP3    H218412   6.075   0.592   1.541  0.3309  0.3578  1.0536
 6136TIP3   OH218413   0.813   1.514   1.131  0.8513  0.5270  0.8966
 6136TIP3    H118414   0.720   1.535   1.120  0.8158  0.5619  1.2406
 6136TIP3    H218415   0.859   1.587   1.091  0.7283  0.5009  0.7086
 6137TIP3   OH218416   1.667   0.602   3.057  0.5226 -0.7101  0.1995
 6137TIP3    H118417   1.747   0.652   3.076  0.7342 -1.5146  1.5743
 6137TIP3    H218418   1.596   0.661   3.083  0.7885 -1.3783  2.6950
 6138TIP3   OH218419   4.394   2.884   4.327 -0.2986  0.3879  0.4096
 6138TIP3    H118420   4.410   2.840   4.244  0.3249 -0.4881  0.9822
 6138TIP3    H218421   4.310   2.850   4.357  0.0749 -0.2752  0.7405
 6139TIP3   OH218422   1.711   2.370   2.247  0.0480 -0.0004  0.9145
 6139TIP3    H118423   1.790   2.423   2.251 -0.0483  0.1785  0.4124
 6139TIP3    H218424   1.725   2.302   2.314  0.6535 -0.0150  0.7775
 6140TIP3   OH218425   1.762   4.744   0.728  0.2299 -0.2313 -0.0910
 6140TIP3    H118426   1.809   4.705   0.801  0.7404 -0.8797 -0.7549
 6140TIP3    H218427   1.673   4.708   0.734  0.0595  0.2782  0.6176
 6141TIP3   OH218428   4.982   5.860   5.145 -0.0392  0.3187  0.1215
 6141TIP3    H118429   4.965   5.873   5.052 -0.7673  2.0831  0.4559
 6141TIP3    H218430   4.941   5.935   5.188  1.0262  0.0089  1.7997
 6142TIP3   OH218431   4.249   2.425   3.129  0.2588 -0.0112 -0.1887
 6142TIP3    H118432   4.270   2.516   3.107 -0.6649  0.1822 -0.3073
 6142TIP3    H218433   4.232   2.383   3.045  0.1406 -0.1525 -0.0959
 6143TIP3   OH218434   3.380   1.409   0.815  0.0149 -1.0427  0.2994
 6143TIP3    H118435   3.407   1.379   0.902 -1.7795 -0.2697  1.1993
 6143TIP3    H218436   3.301   1.357   0.796  0.1108 -0.8503 -0.6469
 6144TIP3   OH218437   2.525   4.829   2.509  0.5010 -0.0302 -0.2896
 6144TIP3    H118438   2.523   4.770   2.584  0.5118 -0.1252 -0.3644
 6144TIP3    H218439   2.472   4.904   2.536 -0.6848 -0.6863 -0.6974
 6145TIP3   OH218440   4.388   5.280   0.717 -0.7030 -0.0258 -0.1685
 6145TIP3    H118441   4.410   5.260   0.809  2.9069  1.0743 -0.6245
 6145TIP3    H218442   4.312   5.225   0.698 -0.2672 -1.9118  2.8550
 6146TIP3   OH218443   5.463   4.546   4.318  0.0886  0.2839  0.6835
 6146TIP3    H118444   5.549   4.557   4.277  0.2555 -1.0582  0.6078
 6146TIP3    H218445   5.403   4.531   4.245 -0.1013  0.5674  0.7775
 6147TIP3   OH218446   2.125   3.586   1.744 -0.2552 -0.1888  0.1692
 6147TIP3    H118447   2.056   3.625   1.690  0.7536  0.0050 -1.0292
 6147TIP3    H218448   2.111   3.492   1.736  1.7963 -0.3731 -3.2327
 6148TIP3   OH218449   1.420   2.939   2.751 -0.1409 -0.2517 -0.4412
 6148TIP3    H118450   1.367   2.919   2.828 -1.7395  0.5640 -1.2771
 6148TIP3    H218451   1.402   2.868   2.690  1.1117 -0.8876 -0.1141
 6149TIP3   OH218452   4.818   4.558   4.883 -0.1086 -0.3774  0.4802
 6149TIP3    H118453   4.802   4.535   4.791  0.3651  0.1455  0.2596
 6149TIP3    H218454   4.872   4.637   4.878 -0.9547  0.2557  1.2166
 6150TIP3   OH218455   1.864   5.363   3.293  0.2821  0.3096 -0.1730
 6150TIP3    H118456   1.933   5.304   3.322  0.3662  0.9421  0.9681
 6150TIP3    H218457   1.798   5.306   3.255  0.5626 -0.4782  0.4937
 6151TIP3   OH218458   2.782   5.879   4.727  0.3147  0.1173  0.8094
 6151TIP3    H118459   2.727   5.904   4.653  0.2117 -0.4069  0.7050
 6151TIP3    H218460   2.725   5.890   4.804 -0.2153 -1.1815  0.6340
 6152TIP3   OH218461   1.588   4.823   1.212  0.0018 -0.3748 -0.0725
 6152TIP3    H118462   1.545   4.846   1.130  0.9397 -0.6355 -0.6621
 6152TIP3    H218463   1.672   4.785   1.184  0.4431 -0.2186  1.0126
 6153TIP3   OH218464   1.609   0.636   3.844 -0.4291  0.1351  0.1595
 6153TIP3    H118465   1.554   0.715   3.850  0.4239  0.7659 -0.1136
 6153TIP3    H218466   1.631   0.630   3.751  0.3790  0.1877  0.3405
 6154TIP3   OH218467   1.742   5.568   0.703 -0.1450 -0.1561  0.1446
 6154TIP3    H118468   1.767   5.477   0.687 -0.1302 -0.0576 -0.4285
 6154TIP3    H218469   1.753   5.611   0.618  3.6938  1.2928  1.1260
 6155TIP3   OH218470   4.422   3.970   0.109  0.2509  0.0525 -0.0596
 6155TIP3    H118471   4.504   4.019   0.118  0.2962  0.5155 -2.3584
 6155TIP3    H218472   4.443   3.898   0.049 -0.6964 -0.6908  0.4549
 6156TIP3   OH218473   4.335   0.212   4.885  0.2270 -0.1114  0.0404
 6156TIP3    H118474   4.260   0.272   4.891 -0.4945 -0.8859 -0.9537
 6156TIP3    H218475   4.363   0.218   4.793  0.1837 -1.2277 -0.0608
 6157TIP3   OH218476   3.568   4.927   4.116 -0.4054 -0.2441  0.3868
 6157TIP3    H118477   3.661   4.940   4.098 -0.6659  0.9937 -0.1373
 6157TIP3    H218478   3.546   4.996   4.179 -1.1446 -0.0287 -0.1016
 6158TIP3   OH218479   0.962   3.694   2.532 -0.3574 -0.6466 -0.0099
 6158TIP3    H118480   1.024   3.738   2.591 -0.3099 -1.4834  0.5874
 6158TIP3    H218481   0.886   3.752   2.530  1.4997  2.0322 -3.2156
 6159TIP3   OH218482   1.357   0.987   2.090  0.1425 -0.1618  0.1306
 6159TIP3    H118483   1.287   0.922   2.098  1.1633 -1.2608  0.6148
 6159TIP3    H218484   1.384   1.003   2.181  0.1378  0.6779 -0.0151
 6160TIP3   OH218485   0.870   5.013   3.111 -0.3717  0.0450 -0.6395
 6160TIP3    H118486   0.781   5.010   3.077 -0.1678  1.0564 -1.3037
 6160TIP3    H218487   0.901   5.101   3.089  0.7505 -0.2585 -0.3252
 6161TIP3   OH218488   5.396   4.919   3.794  0.2080  0.1042 -0.0059
 6161TIP3    H118489   5.347   4.886   3.869 -0.0388 -0.2701 -0.3327
 6161TIP3    H218490   5.483   4.939   3.830  0.0646  0.0191  0.4001
 6162TIP3   OH218491   3.994   0.318   2.347  0.2091  0.4181  0.2190
 6162TIP3    H118492   4.074   0.368   2.359  1.1847 -0.6295 -1.5518
 6162TIP3    H218493   3.940   0.372   2.289 -0.0839  0.7879  0.8201
 6163TIP3   OH218494   0.922   0.838   2.588  0.1370 -0.1983  0.0067
 6163TIP3    H118495   0.982   0.803   2.655  1.6700 -0.2887 -1.3419
 6163TIP3    H218496   0.863   0.765   2.569  1.4846 -1.1646 -0.7143
 6164TIP3   OH218497   4.217   1.132   2.307  0.1802 -0.3623 -0.0332
 6164TIP3    H118498   4.151   1.169   2.247  0.5273  0.5100  0.1095
 6164TIP3    H218499   4.211   1.186   2.385  0.2080 -1.0683  0.4602
 6165TIP3   OH218500   2.918   3.879   4.227 -0.3502  0.1895  0.4040
 6165TIP3    H118501   2.859   3.857   4.299 -0.3146  1.2480  0.7694
 6165TIP3    H218502   3.006   3.862   4.262 -0.2778  1.5480  0.9483
 6166TIP3   OH218503   0.247   3.398   3.560 -0.0309 -1.1486 -0.3156
 6166TIP3    H118504   0.226   3.351   3.640 -0.7851 -1.2576 -0.5704
 6166TIP3    H218505   0.242   3.491   3.584  2.7255 -1.1239  0.5198
 6167TIP3   OH218506   3.872   0.467   2.165 -0.4408  0.7217 -0.8456
 6167TIP3    H118507   3.845   0.558   2.167  2.3026  1.6537 -1.4432
 6167TIP3    H218508   3.932   0.461   2.091  1.8899 -0.7556  0.9782
 6168TIP3   OH218509   3.010   1.098   1.614 -0.4603 -0.2012  0.8356
 6168TIP3    H118510   3.061   1.022   1.588  1.8829  1.0103  1.6340
 6168TIP3    H218511   2.942   1.105   1.547 -1.0025 -3.1520  0.9511
 6169TIP3   OH218512   1.559   0.445   1.458 -0.2569 -0.2069  0.0329
 6169TIP3    H118513   1.497   0.483   1.519 -0.7347 -1.4632  0.3732
 6169TIP3    H218514   1.507   0.427   1.379 -0.0777 -0.2663 -0.0740
 6170TIP3   OH218515   4.585   0.340   0.532 -0.1782 -0.1970  0.1029
 6170TIP3    H118516   4.533   0.301   0.602  0.4408 -0.5233  0.3918
 6170TIP3    H218517   4.667   0.290   0.533  1.0422  1.7086  1.1229
 6171TIP3   OH218518   5.323   1.565   0.890  0.0288  0.7626 -0.1467
 6171TIP3    H118519   5.275   1.642   0.921  0.3252  0.4679  1.1146
 6171TIP3    H218520   5.257   1.511   0.848 -0.4301  1.1198  0.1048
 6172TIP3   OH218521   0.666   5.397   2.162  0.3219 -0.6030  0.0485
 6172TIP3    H118522   0.604   5.466   2.188  0.4741 -0.5157  0.1825
 6172TIP3    H218523   0.637   5.320   2.211  1.2980 -0.1538  1.3921
 6173TIP3   OH218524   2.623   5.339   0.662  0.0782 -0.7131 -0.3521
 6173TIP3    H118525   2.558   5.409   0.673 -1.2096 -1.9090  0.0560
 6173TIP3    H218526   2.580   5.276   0.605  1.0622 -1.3511 -0.4078
 6174TIP3   OH218527   4.943   1.274   0.214  0.0325  0.1019 -0.3239
 6174TIP3    H118528   4.890   1.250   0.290  2.7492 -4.1660  0.5581
 6174TIP3    H218529   4.893   1.242   0.139  0.3209 -1.9575  0.3102
 6175TIP3   OH218530   3.097   5.540   0.059  0.5947 -1.0323  0.0524
 6175TIP3    H118531   3.120   5.632   0.073  2.4492 -0.7478 -3.5859
 6175TIP3    H218532   3.090   5.504   0.147  3.0002  1.8762  1.6640
 6176TIP3   OH218533   4.653   1.241   3.655 -0.0426  0.2876  0.3214
 6176TIP3    H118534   4.649   1.146   3.641  2.2959  0.2746 -0.7199
 6176TIP3    H218535   4.622   1.278   3.572 -0.9343  0.4636  0.7208
 6177TIP3   OH218536   1.328   3.591   3.923 -0.0503 -0.0522 -0.5299
 6177TIP3    H118537   1.337   3.561   3.832  2.5721 -0.4881 -0.2035
 6177TIP3    H218538   1.343   3.513   3.976  0.1259  0.5295  0.2978
 6178TIP3   OH218539   6.304   4.757   2.588  0.2870 -0.3017 -0.4695
 6178TIP3    H118540   6.363   4.691   2.550 -0.1034  0.7033 -3.0091
 6178TIP3    H218541   6.232   4.706   2.625 -1.0057 -1.3831 -4.0878
 6179TIP3   OH218542   4.698   4.085   5.130  0.2997 -0.1409  0.4575
 6179TIP3    H118543   4.704   4.161   5.072  0.9233 -1.6075 -1.5094
 6179TIP3    H218544   4.604   4.065   5.133  0.2081  0.2634  0.4169
 6180TIP3   OH218545   5.670   5.079   0.874  0.1265 -0.0323  0.2984
 6180TIP3    H118546   5.652   5.059   0.782  1.1590  0.2801  0.0169
 6180TIP3    H218547   5.762   5.104   0.875  0.2454 -0.4795  1.4948
 6181TIP3   OH218548   1.116   1.492   3.544 -0.4439  0.0153  1.1156
 6181TIP3    H118549   1.190   1.455   3.495  0.0318  1.9138  0.3245
 6181TIP3    H218550   1.038   1.458   3.500 -0.0440  2.2687 -1.6080
 6182TIP3   OH218551   5.608   3.352   0.408 -0.0364  0.0129 -0.2636
 6182TIP3    H118552   5.580   3.278   0.355  0.8900 -0.8645  0.4219
 6182TIP3    H218553   5.526   3.391   0.440 -0.5337 -1.1172 -0.1098
 6183TIP3   OH218554   3.386   4.134   2.729 -0.6554  0.0581  0.2422
 6183TIP3    H118555   3.320   4.068   2.708  0.1661 -0.3169 -1.3708
 6183TIP3    H218556   3.373   4.153   2.822 -3.4372  0.4949 -0.1575
 6184TIP3   OH218557   5.383   4.743   3.253 -0.6725  0.4153 -0.1905
 6184TIP3    H118558   5.330   4.678   3.208  0.3098 -1.1458  0.8235
 6184TIP3    H218559   5.335   4.762   3.333 -0.8432  0.7634 -0.3751
 6185TIP3   OH218560   0.370   3.918   2.047 -0.1522 -0.0049  0.0487
 6185TIP3    H118561   0.417   3.955   2.121 -0.4299 -0.4490  0.4547
 6185TIP3    H218562   0.375   3.985   1.978 -2.3364  1.6733  1.3828
 6186TIP3   OH218563   2.400   3.322   4.275 -0.1449 -0.1303  0.4043
 6186TIP3    H118564   2.450   3.245   4.246 -0.8023 -1.1590  1.8869
 6186TIP3    H218565   2.450   3.356   4.349 -0.4487  0.2037  0.4571
 6187TIP3   OH218566   1.256   2.937   2.390 -0.0387 -0.0151  0.4190
 6187TIP3    H118567   1.345   2.968   2.376 -0.3812  0.4050 -1.0526
 6187TIP3    H218568   1.264   2.870   2.457  1.5496 -0.7519 -0.4488
 6188TIP3   OH218569   4.304   4.413   3.142 -0.2464  0.1782 -0.4712
 6188TIP3    H118570   4.289   4.446   3.054 -0.5726  0.2936 -0.3737
 6188TIP3    H218571   4.369   4.473   3.179 -1.0814  0.9323 -0.1769
 6189TIP3   OH218572   5.945   4.971   4.644  0.4825  0.4045  0.0353
 6189TIP3    H118573   5.943   4.946   4.736 -0.7867 -0.7176 -0.2520
 6189TIP3    H218574   5.908   5.059   4.641 -0.5178  0.0169  0.5069
 6190TIP3   OH218575   0.820   2.776   2.744 -0.0837 -0.5756  0.2839
 6190TIP3    H118576   0.764   2.721   2.798 -0.6136 -0.0861  0.2396
 6190TIP3    H218577   0.900   2.787   2.796 -0.2019 -0.9149  0.5376
 6191TIP3   OH218578   1.100   0.882   3.348 -0.5364  0.2940 -0.0348
 6191TIP3    H118579   1.115   0.886   3.254 -0.8421 -0.1250 -0.1060
 6191TIP3    H218580   1.037   0.811   3.359 -2.5756  2.0423  0.2216
 6192TIP3   OH218581   2.653   1.987   4.640 -0.1192  0.0307 -0.2770
 6192TIP3    H118582   2.600   2.056   4.679  1.0110 -0.1366  1.7138
 6192TIP3    H218583   2.698   2.029   4.567 -1.4300  0.6723 -0.7574
 6193TIP3   OH218584   5.685   0.604   4.364  0.7359 -0.5586  0.1259
 6193TIP3    H118585   5.594   0.633   4.353  0.9011  0.6894  1.6427
 6193TIP3    H218586   5.734   0.657   4.301  0.5191 -0.5952 -0.0762
 6194TIP3   OH218587   6.170   1.285   4.845 -0.2507 -0.1401 -0.0127
 6194TIP3    H118588   6.186   1.238   4.927 -2.4750  1.7580  1.6491
 6194TIP3    H218589   6.257   1.311   4.815  0.8105 -2.8880  0.4260
 6195TIP3   OH218590   5.907   5.693   2.476 -0.0532 -0.2064  0.5108
 6195TIP3    H118591   5.813   5.698   2.463 -0.1238 -1.2363  0.5605
 6195TIP3    H218592   5.941   5.657   2.394  0.5668  2.2079 -0.3708
 6196TIP3   OH218593   3.209   4.602   3.495 -0.4798 -0.0726  0.1820
 6196TIP3    H118594   3.173   4.515   3.509  0.0492 -0.3687 -0.2643
 6196TIP3    H218595   3.268   4.615   3.570 -0.3908 -0.1826  0.1300
 6197TIP3   OH218596   1.931   4.018   0.378 -0.4972 -0.2264 -0.3324
 6197TIP3    H118597   1.838   4.037   0.361 -0.9059 -2.4365 -0.9015
 6197TIP3    H218598   1.931   3.927   0.407  1.5269 -0.3012 -0.4723
 6198TIP3   OH218599   1.512   5.258   1.261  0.0539  0.0032 -0.4280
 6198TIP3    H118600   1.527   5.322   1.191 -0.2190  0.8949  0.3066
 6198TIP3    H218601   1.599   5.243   1.299  0.3312 -1.0676 -1.4248
 6199TIP3   OH218602   6.036   4.876   3.380 -0.1164 -0.7167 -0.2177
 6199TIP3    H118603   6.006   4.926   3.456 -0.1962 -0.1831 -0.5953
 6199TIP3    H218604   5.998   4.789   3.393 -1.5571 -0.1537 -0.5008
 6200TIP3   OH218605   1.708   1.856   3.254 -0.5462 -0.4471  0.1554
 6200TIP3    H118606   1.726   1.889   3.166 -0.5323 -1.8250 -0.3846
 6200TIP3    H218607   1.633   1.907   3.285 -0.3980  0.2096 -0.5632
 6201TIP3   OH218608   4.192   1.692   0.800  1.1679 -0.2037  0.4158
 6201TIP3    H118609   4.159   1.780   0.781 -2.5218 -1.1985  1.3342
 6201TIP3    H218610   4.164   1.640   0.724 -0.8801 -1.3813  1.8730
 6202TIP3   OH218611   5.244   2.326   3.343 -0.3563 -0.1218  0.0957
 6202TIP3    H118612   5.158   2.323   3.383 -0.3569  2.6586  0.4478
 6202TIP3    H218613   5.305   2.338   3.416  0.0145  1.1360 -0.4035
 6203TIP3   OH218614   2.296   2.262   4.638  0.1901  0.6135  0.3247
 6203TIP3    H118615   2.210   2.279   4.599  0.2498  0.6211  0.1941
 6203TIP3    H218616   2.292   2.170   4.666  0.3576  0.4239 -0.2595
 6204TIP3   OH218617   4.808   5.952   1.963  0.4877 -0.3432 -0.0264
 6204TIP3    H118618   4.805   5.877   1.903  0.7058  0.0646 -0.5532
 6204TIP3    H218619   4.716   5.972   1.981  0.2997  1.1590 -2.3008
 6205TIP3   OH218620   5.138   1.752   1.977  0.1510  0.6614 -0.2815
 6205TIP3    H118621   5.200   1.757   1.904 -0.1563  2.4190 -0.4746
 6205TIP3    H218622   5.173   1.814   2.041 -0.3508  0.1897  0.4534
 6206TIP3   OH218623   5.945   4.604   3.425 -0.0970  0.8460  0.4795
 6206TIP3    H118624   5.879   4.557   3.373  0.2290  0.1258  0.7145
 6206TIP3    H218625   6.005   4.536   3.456  1.6943  1.6470 -1.0411
 6207TIP3   OH218626   1.139   5.839   2.446 -0.4159 -0.1747  0.0121
 6207TIP3    H118627   1.134   5.935   2.448 -0.6365 -0.1387 -1.4617
 6207TIP3    H218628   1.232   5.820   2.458 -0.3556  0.2165  0.1901
 6208TIP3   OH218629   0.809   5.785   3.862  0.8434  0.3519  0.9578
 6208TIP3    H118630   0.782   5.858   3.918 -0.6171  0.7284 -0.1657
 6208TIP3    H218631   0.857   5.827   3.791  0.3949  0.1788  0.5491
 6209TIP3   OH218632   1.086   2.770   2.845  0.4991  0.0562 -0.5293
 6209TIP3    H118633   1.131   2.692   2.876  1.8544  1.0181  0.0493
 6209TIP3    H218634   1.145   2.842   2.869  0.0762  1.1218 -2.4882
 6210TIP3   OH218635   1.348   3.535   5.097 -0.1507 -0.4821 -0.2188
 6210TIP3    H118636   1.304   3.451   5.086 -1.4512  0.0273  0.7573
 6210TIP3    H218637   1.278   3.596   5.119  1.0410  0.3161  1.7074
 6211TIP3   OH218638   4.998   0.556   2.932  0.6684 -0.1549 -0.3025
 6211TIP3    H118639   4.943   0.624   2.969  0.6854 -0.1753 -0.2388
 6211TIP3    H218640   4.967   0.546   2.842  1.0368  0.3339 -0.4887
 6212TIP3   OH218641   3.669   3.894   1.457 -0.0250  0.8171 -0.0519
 6212TIP3    H118642   3.587   3.892   1.506 -0.1565  0.0490 -0.2891
 6212TIP3    H218643   3.642   3.914   1.367  0.1075  1.1905 -0.0061
 6213TIP3   OH218644   0.199   1.503   2.637 -0.8462 -0.4620  0.1980
 6213TIP3    H118645   0.180   1.588   2.676  0.3811  0.0838 -0.3301
 6213TIP3    H218646   0.253   1.458   2.702 -0.3535 -0.2822 -0.0767
 6214TIP3   OH218647   0.619   2.184   2.357 -0.0623  0.1780  0.0758
 6214TIP3    H118648   0.707   2.220   2.346 -0.4449  0.7273 -1.3485
 6214TIP3    H218649   0.563   2.243   2.307 -1.3514  0.2367  1.5344
 6215TIP3   OH218650   5.253   2.109   0.404 -0.2263  0.1879  0.0647
 6215TIP3    H118651   5.296   2.040   0.353 -3.6743 -1.7055 -0.5630
 6215TIP3    H218652   5.180   2.065   0.448 -2.3140  3.3366  0.0665
 6216TIP3   OH218653   0.707   2.168   3.850  0.0515  0.5359 -0.2708
 6216TIP3    H118654   0.801   2.170   3.831  0.0300  0.4655 -0.3877
 6216TIP3    H218655   0.673   2.251   3.816 -0.1933 -0.1049 -1.6495
 6217TIP3   OH218656   0.171   3.143   3.447  0.2250  0.3184 -0.3183
 6217TIP3    H118657   0.196   3.227   3.485 -0.6347 -0.1012  1.2265
 6217TIP3    H218658   0.086   3.159   3.407  1.6814  1.1170 -3.4619
 6218TIP3   OH218659   0.496   4.492   3.067  0.1608  0.2728 -0.1822
 6218TIP3    H118660   0.529   4.452   3.148 -1.4483  1.3303  1.0613
 6218TIP3    H218661   0.423   4.548   3.096 -0.3686  0.7936 -2.3593
 6219TIP3   OH218662   5.501   2.948   1.366  0.0333  0.0311 -0.4275
 6219TIP3    H118663   5.442   2.949   1.291  1.7258  0.3247 -1.8307
 6219TIP3    H218664   5.447   2.977   1.440 -1.8449 -0.8588 -1.3815
 6220TIP3   OH218665   3.090   3.565   1.877  0.0871  0.4709  0.3369
 6220TIP3    H118666   3.090   3.620   1.956 -2.8730  1.5479 -0.2940
 6220TIP3    H218667   3.139   3.616   1.813  0.4421  0.7128  0.7916
 6221TIP3   OH218668   0.639   4.139   2.182  0.3068 -0.0559  0.2394
 6221TIP3    H118669   0.671   4.199   2.250 -0.7712  0.5268  0.2499
 6221TIP3    H218670   0.605   4.064   2.230 -0.3129  0.2875  0.3478
 6222TIP3   OH218671   2.544   2.416   1.049  0.1015 -0.6652  0.6142
 6222TIP3    H118672   2.590   2.347   1.001  2.5926  0.4186  1.2811
 6222TIP3    H218673   2.532   2.486   0.985 -1.0336 -1.0977  0.3376
 6223TIP3   OH218674   5.662   4.035   0.649 -0.4764 -0.3914  0.3539
 6223TIP3    H118675   5.660   4.003   0.559 -1.6471 -2.3768  1.0103
 6223TIP3    H218676   5.575   4.074   0.663 -0.7399 -1.1640  0.9473
 6224TIP3   OH218677   1.866   3.947   1.089  0.2118  0.4442 -0.0660
 6224TIP3    H118678   1.944   3.898   1.065 -0.7862 -0.5287 -1.4394
 6224TIP3    H218679   1.840   3.912   1.174  0.0451 -0.7913 -0.6065
 6225TIP3   OH218680   4.695   3.297   1.906  0.2265 -0.0330  0.1141
 6225TIP3    H118681   4.620   3.333   1.859  1.2218  0.0435 -1.5023
 6225TIP3    H218682   4.719   3.218   1.858  1.9077  0.5980 -0.1685
 6226TIP3   OH218683   1.019   1.863   2.216  0.5337  0.0386  0.8217
 6226TIP3    H118684   1.029   1.769   2.224  0.4463 -0.0823 -0.4050
 6226TIP3    H218685   0.977   1.877   2.131 -0.0803  1.1439  1.2721
 6227TIP3   OH218686   2.157   1.339   3.003 -0.2846  0.7618  0.2046
 6227TIP3    H118687   2.066   1.312   3.016  0.1360  0.0923  2.0085
 6227TIP3    H218688   2.209   1.275   3.052  1.3784 -0.2615 -2.6588
 6228TIP3   OH218689   0.757   0.471   3.803  0.7716 -0.1902 -0.3358
 6228TIP3    H118690   0.717   0.541   3.856  1.2135  0.0932 -0.3667
 6228TIP3    H218691   0.850   0.479   3.821  0.6949 -1.8549  0.9573
 6229TIP3   OH218692   5.621   5.617   0.679  0.3948  0.0271  0.0165
 6229TIP3    H118693   5.543   5.623   0.622 -0.0978 -0.3882  0.6422
 6229TIP3    H218694   5.670   5.543   0.644  1.0156  0.8809 -0.9844
 6230TIP3   OH218695   1.012   3.135   0.933  0.3175 -0.3671 -0.4248
 6230TIP3    H118696   1.024   3.199   0.863 -1.1130 -0.2145 -0.5635
 6230TIP3    H218697   0.992   3.053   0.887  0.1845 -0.4566 -0.2083
 6231TIP3   OH218698   1.143   0.787   1.230  0.3400  0.0062  0.3673
 6231TIP3    H118699   1.215   0.744   1.184  0.0654 -0.3537  0.2717
 6231TIP3    H218700   1.088   0.716   1.262  1.1941  0.1842  2.3882
 6232TIP3   OH218701   2.041   2.346   4.443 -0.0448 -0.1078  0.0252
 6232TIP3    H118702   1.981   2.284   4.401  1.2627 -0.9350 -0.6883
 6232TIP3    H218703   1.987   2.423   4.459 -1.8477 -1.5513  1.3485
 6233TIP3   OH218704   1.214   5.046   1.022  0.1235  0.1804 -0.1007
 6233TIP3    H118705   1.264   5.109   0.970  0.5215  0.9592  1.1692
 6233TIP3    H218706   1.139   5.023   0.968  0.6580  0.7692 -1.1040
 6234TIP3   OH218707   0.423   2.350   1.665  0.3373 -0.3410  0.0471
 6234TIP3    H118708   0.358   2.421   1.672  1.3905  0.6327  0.2226
 6234TIP3    H218709   0.483   2.366   1.737  1.6023 -0.3585 -0.9787
 6235TIP3   OH218710   1.395   3.097   1.275  0.5033  0.7273  0.0806
 6235TIP3    H118711   1.410   3.183   1.314 -0.2054  0.8855  0.0135
 6235TIP3    H218712   1.396   3.114   1.180 -0.2030  0.7654  0.0750
 6236TIP3   OH218713   4.449   0.084   3.776  0.0750 -0.2490  0.1091
 6236TIP3    H118714   4.407   0.026   3.713 -1.3176  0.5228  0.2727
 6236TIP3    H218715   4.435   0.042   3.860 -0.1103 -0.1474  0.1304
 6237TIP3   OH218716   1.033   1.364   2.692  0.6885  0.0089 -0.4481
 6237TIP3    H118717   0.951   1.338   2.649  0.7450 -0.2417 -0.4027
 6237TIP3    H218718   1.023   1.337   2.783  0.3250  1.0817 -0.1545
 6238TIP3   OH218719   3.443   1.345   2.367  0.2011 -0.3002  0.7806
 6238TIP3    H118720   3.356   1.339   2.327  0.6450  1.1109 -0.4721
 6238TIP3    H218721   3.475   1.254   2.370 -0.7912 -0.6854  0.0827
 6239TIP3   OH218722   5.671   3.013   3.115 -0.8022  0.0284 -0.5179
 6239TIP3    H118723   5.630   2.964   3.044 -1.1034 -1.7068  0.7944
 6239TIP3    H218724   5.629   3.099   3.111 -2.7706 -0.8804 -0.8007
 6240TIP3   OH218725   0.156   1.813   0.439  0.5841  0.2320 -0.0367
 6240TIP3    H118726   0.176   1.811   0.346 -0.4120 -2.3880 -0.2707
 6240TIP3    H218727   0.223   1.871   0.477  0.9113  1.4649 -2.3527
 6241TIP3   OH218728   2.814   5.687   0.017  0.5348 -0.0608  0.2708
 6241TIP3    H118729   2.845   5.768   0.059 -0.4929  0.3604  0.2322
 6241TIP3    H218730   2.756   5.647   0.081  0.1699 -0.2024 -0.1454
 6242TIP3   OH218731   0.927   4.612   2.094  0.1199  0.2175  0.6704
 6242TIP3    H118732   0.979   4.668   2.037 -1.5155  0.6815 -0.4047
 6242TIP3    H218733   0.959   4.633   2.182 -0.3267  2.7737  0.3136
 6243TIP3   OH218734   5.459   3.037   0.734  0.5198  0.2268  0.0139
 6243TIP3    H118735   5.472   3.023   0.828 -2.3170 -2.0152  0.2357
 6243TIP3    H218736   5.468   2.949   0.696 -0.3739  0.7340 -1.4635
 6244TIP3   OH218737   6.188   5.249   0.929 -0.5052  0.1149  0.4341
 6244TIP3    H118738   6.132   5.228   1.003  0.3507 -0.2006  1.0010
 6244TIP3    H218739   6.234   5.168   0.909 -0.5292  0.2689 -0.2758
 6245TIP3   OH218740   1.042   3.001   3.923  0.1741  0.1550  0.0906
 6245TIP3    H118741   0.979   2.985   3.854 -0.2113 -1.8001  0.8234
 6245TIP3    H218742   1.125   3.014   3.877 -0.6649  2.7848 -0.8838
 6246TIP3   OH218743   0.186   2.790   2.464 -0.0027 -0.1444  0.1940
 6246TIP3    H118744   0.264   2.811   2.515 -0.1629  1.1536 -0.0660
 6246TIP3    H218745   0.128   2.865   2.478 -0.6703 -0.4956 -0.6563
 6247TIP3   OH218746   1.724   3.878   2.317 -0.0422 -0.6039 -0.2375
 6247TIP3    H118747   1.744   3.864   2.225  0.3239  0.6583 -0.3556
 6247TIP3    H218748   1.686   3.965   2.321  0.5741 -0.3645  0.8978
 6248TIP3   OH218749   3.784   0.691   4.609  0.4674  0.1108  0.1112
 6248TIP3    H118750   3.735   0.690   4.527  0.5127 -0.5265  0.0856
 6248TIP3    H218751   3.842   0.767   4.602 -0.1389  0.5705 -0.0767
 6249TIP3   OH218752   3.490   5.644   0.281 -0.0983  0.0388  0.1257
 6249TIP3    H118753   3.528   5.608   0.201 -1.0024 -1.7428  0.4553
 6249TIP3    H218754   3.517   5.736   0.281 -0.6295  0.2711 -2.5476
 6250TIP3   OH218755   3.769   1.524   4.373 -0.1540  0.0526  0.4581
 6250TIP3    H118756   3.676   1.546   4.364 -0.0056  0.4644 -0.1821
 6250TIP3    H218757   3.792   1.484   4.289 -0.1674 -1.6632  1.2436
 6251TIP3   OH218758   2.054   2.948   3.122 -0.2274  0.0430 -0.0513
 6251TIP3    H118759   2.011   3.031   3.145 -1.7699 -0.6292 -0.3834
 6251TIP3    H218760   2.098   2.921   3.203 -0.6869  0.6219  0.4048
 6252TIP3   OH218761   1.890   0.810   0.001 -0.3195 -0.0900 -0.4008
 6252TIP3    H118762   1.798   0.831  -0.014  0.6488  5.3095 -0.4502
 6252TIP3    H218763   1.898   0.802   0.096 -0.6447  0.4934 -0.3259
 6253TIP3   OH218764   1.905   2.924   2.679  0.2274 -0.3125 -0.5612
 6253TIP3    H118765   1.887   3.004   2.630 -0.1601 -0.6757 -1.0282
 6253TIP3    H218766   1.966   2.951   2.747 -1.1089  0.7247  0.2894
 6254TIP3   OH218767   4.607   0.334   5.197  0.3021 -0.0932 -0.0614
 6254TIP3    H118768   4.572   0.368   5.115 -0.2816  0.2850  0.3445
 6254TIP3    H218769   4.623   0.241   5.179  2.0335  0.3775 -1.2085
 6255TIP3   OH218770   3.758   4.408   0.513  0.0012  0.2919 -0.1041
 6255TIP3    H118771   3.667   4.432   0.494  0.2463  3.2777  1.8135
 6255TIP3    H218772   3.801   4.409   0.428 -0.8381  3.5899 -0.6106
 6256TIP3   OH218773   2.006   4.270   2.869  0.1819 -0.5140 -0.2382
 6256TIP3    H118774   1.995   4.183   2.906  3.1393 -1.2211 -0.8194
 6256TIP3    H218775   1.951   4.327   2.923  0.7041 -2.2137  2.2075
 6257TIP3   OH218776   2.818   0.312   0.671  0.0008  0.0268 -0.0046
 6257TIP3    H118777   2.911   0.334   0.676 -0.3716  2.5377 -1.9691
 6257TIP3    H218778   2.807   0.276   0.583 -0.8308 -0.6419  0.3622
 6258TIP3   OH218779   5.118   1.430   4.304 -0.0781  0.0194  0.4004
 6258TIP3    H118780   5.201   1.440   4.257 -0.0306 -0.5932  0.3412
 6258TIP3    H218781   5.063   1.500   4.269  0.1699 -0.0295 -0.1101
 6259TIP3   OH218782   6.226   5.867   2.177 -0.1213  0.0402 -0.4674
 6259TIP3    H118783   6.142   5.822   2.169 -0.2196 -0.1630  1.3014
 6259TIP3    H218784   6.289   5.798   2.201 -0.4203  0.7954  3.0428
 6260TIP3   OH218785   3.966   4.712   5.192 -0.4614  0.1066 -0.2437
 6260TIP3    H118786   3.981   4.745   5.103 -0.0120  0.9635  0.1332
 6260TIP3    H218787   4.044   4.661   5.213 -0.9822 -0.8926 -0.6794
 6261TIP3   OH218788   3.284   3.861   4.238 -0.8129 -0.2205  0.2449
 6261TIP3    H118789   3.301   3.840   4.146 -0.1629 -0.5407  0.4333
 6261TIP3    H218790   3.225   3.792   4.267  0.4585 -1.1972  0.5665
 6262TIP3   OH218791   1.370   0.609   0.510 -0.3502  0.2958 -0.4499
 6262TIP3    H118792   1.377   0.514   0.500 -1.9496  0.1012  0.0110
 6262TIP3    H218793   1.425   0.645   0.440 -0.0782 -0.9611 -0.9077
 6263TIP3   OH218794   4.923   4.951   2.022  0.8241 -0.0208  1.1376
 6263TIP3    H118795   4.978   4.922   1.949  1.5160  0.0289  1.6294
 6263TIP3    H218796   4.926   4.879   2.084  1.0147  0.3275  1.5372
 6264TIP3   OH218797   5.321   2.416   2.097 -0.8105 -0.9155 -0.4091
 6264TIP3    H118798   5.284   2.442   2.181 -0.6915 -0.3210 -0.5399
 6264TIP3    H218799   5.284   2.478   2.034  0.4430 -0.2926 -0.5378
 6265TIP3   OH218800   5.823   2.514   4.940  0.3930  0.2042 -0.0876
 6265TIP3    H118801   5.840   2.593   4.991 -1.4429  0.9186 -0.4911
 6265TIP3    H218802   5.766   2.461   4.995 -0.7367  0.5081 -0.9115
 6266TIP3   OH218803   1.153   1.852   3.026 -0.0798  0.1994  0.1135
 6266TIP3    H118804   1.203   1.772   3.015  0.7211  0.7032  0.0436
 6266TIP3    H218805   1.104   1.861   2.944 -0.8864 -0.6897  0.4783
 6267TIP3   OH218806   4.404   1.046   4.984  0.3430 -0.2453 -0.3146
 6267TIP3    H118807   4.449   1.112   5.037  1.3332 -0.8313 -0.4157
 6267TIP3    H218808   4.467   0.975   4.973  0.6376  0.3258 -3.2461
 6268TIP3   OH218809   0.304   5.374   1.592 -0.2635 -0.0556 -0.1842
 6268TIP3    H118810   0.353   5.377   1.509  0.2420  0.2504  0.1200
 6268TIP3    H218811   0.308   5.464   1.624 -1.7831  0.1779 -0.5820
 6269TIP3   OH218812   6.119   0.620   4.722  0.6287 -0.0325  0.6531
 6269TIP3    H118813   6.114   0.597   4.629 -1.3084  0.7678  0.4992
 6269TIP3    H218814   6.183   0.559   4.759 -0.0876 -1.7835 -0.8153
 6270TIP3   OH218815   1.199   3.054   3.537 -0.4723  0.2018 -0.2504
 6270TIP3    H118816   1.228   3.134   3.493 -0.2229  1.0122  1.2846
 6270TIP3    H218817   1.240   3.059   3.624 -0.0397 -1.8611 -0.2832
 6271TIP3   OH218818   4.507   5.427   4.599  0.7050 -0.1900 -0.3817
 6271TIP3    H118819   4.469   5.369   4.533 -1.8648  1.3618 -0.4075
 6271TIP3    H218820   4.544   5.499   4.548 -0.8354  0.7591 -0.2263
 6272TIP3   OH218821   5.768   4.293   4.393 -0.5000  0.0308 -0.1298
 6272TIP3    H118822   5.735   4.280   4.304  0.4495  0.1229 -0.5064
 6272TIP3    H218823   5.692   4.321   4.444 -1.5033 -1.9754 -0.4437
 6273TIP3   OH218824   5.169   2.452   3.066  0.4085  1.1020 -0.5796
 6273TIP3    H118825   5.095   2.468   3.125  0.0056  0.4113 -0.8791
 6273TIP3    H218826   5.238   2.511   3.097  0.7220 -0.2383  1.5268
 6274TIP3   OH218827   2.709   5.632   0.615  0.4831 -0.2045 -0.7505
 6274TIP3    H118828   2.632   5.612   0.668 -0.2744  3.5615 -0.1177
 6274TIP3    H218829   2.674   5.653   0.529  0.8759  0.6372 -0.7124
 6275TIP3   OH218830   0.091   3.420   0.498 -0.0307 -0.8916 -0.1880
 6275TIP3    H118831   0.133   3.418   0.412 -0.6238  4.5130 -0.9424
 6275TIP3    H218832   0.163   3.417   0.560  0.5812 -2.4262 -0.9375
 6276TIP3   OH218833   1.792   5.582   3.766 -0.4548  0.3669  1.0370
 6276TIP3    H118834   1.858   5.541   3.710  0.5048 -0.9478  3.0367
 6276TIP3    H218835   1.708   5.560   3.724  0.2338 -0.3212 -0.0273
 6277TIP3   OH218836   3.259   4.609   3.217  0.2886 -0.2316  0.5072
 6277TIP3    H118837   3.256   4.634   3.309 -2.0666 -1.3643  0.8222
 6277TIP3    H218838   3.323   4.538   3.213 -1.1894 -1.7116  1.7526
 6278TIP3   OH218839   4.211   3.080   2.040 -0.2367 -0.2955  0.3084
 6278TIP3    H118840   4.268   3.156   2.047 -0.1247 -0.3090 -0.3720
 6278TIP3    H218841   4.125   3.112   2.068 -0.9334  0.9573 -2.8784
 6279TIP3   OH218842   1.305   4.400   2.767  0.5072 -0.0076 -0.2153
 6279TIP3    H118843   1.258   4.382   2.686  0.5962  0.6572 -0.4200
 6279TIP3    H218844   1.251   4.465   2.812  1.3061  0.9125 -0.5387
 6280TIP3   OH218845   5.704   2.463   4.538 -0.1412 -0.3629  0.0872
 6280TIP3    H118846   5.653   2.536   4.504  1.0763  0.4369 -0.0547
 6280TIP3    H218847   5.783   2.503   4.575  0.9487 -1.6456 -0.7362
 6281TIP3   OH218848   2.208   4.285   0.161 -0.0519  0.3749 -0.0141
 6281TIP3    H118849   2.129   4.319   0.119 -1.4169 -2.1628  0.3112
 6281TIP3    H218850   2.264   4.259   0.088  0.1568  1.4168 -0.2405
 6282TIP3   OH218851   3.392   0.611   4.879 -0.4398 -0.0109  0.2456
 6282TIP3    H118852   3.484   0.604   4.906 -0.3169  2.7346  0.8504
 6282TIP3    H218853   3.388   0.563   4.796  1.7001  0.2904 -0.0988
 6283TIP3   OH218854   6.114   0.046   3.705 -0.1982  0.1085 -0.1197
 6283TIP3    H118855   6.105  -0.023   3.771  1.3773 -0.7387 -0.7233
 6283TIP3    H218856   6.076   0.123   3.745  0.8609 -0.3412  1.8742
 6284TIP3   OH218857   6.100   0.889   1.610  0.2166 -0.4322 -0.1331
 6284TIP3    H118858   6.090   0.818   1.547 -1.9634  0.8619 -1.3564
 6284TIP3    H218859   6.172   0.942   1.576 -0.7898  0.1278 -1.4761
 6285TIP3   OH218860   4.386   5.585   0.711 -0.1880 -0.5114  0.2006
 6285TIP3    H118861   4.383   5.491   0.691 -0.2820 -0.4585 -0.0334
 6285TIP3    H218862   4.317   5.623   0.657 -0.3110 -0.3401  0.4740
 6286TIP3   OH218863   2.941   1.169   0.715 -0.3173 -0.0783  0.3728
 6286TIP3    H118864   2.918   1.087   0.759 -2.2645 -0.2423 -0.8080
 6286TIP3    H218865   2.872   1.230   0.742  0.3382  0.7651  0.1482
 6287TIP3   OH218866   2.087   0.160   2.325  1.0141 -0.1364 -0.2136
 6287TIP3    H118867   2.096   0.122   2.412 -2.8537  0.0800  0.4717
 6287TIP3    H218868   2.060   0.087   2.269 -1.8631  0.5840  0.0861
 6288TIP3   OH218869   2.437   3.959   0.055  0.0502  0.1315  0.6731
 6288TIP3    H118870   2.433   3.866   0.076  0.7197  0.0002  0.2624
 6288TIP3    H218871   2.510   3.966  -0.007  0.0505  0.9375  0.7565
 6289TIP3   OH218872   1.242   0.988   0.779  0.0435 -0.8584 -0.1156
 6289TIP3    H118873   1.223   1.076   0.746  1.5364 -0.5321 -0.1734
 6289TIP3    H218874   1.312   1.001   0.843  0.3843 -2.0138 -0.2254
 6290TIP3   OH218875   4.252   0.750   4.201 -0.7119 -1.0061  0.1942
 6290TIP3    H118876   4.270   0.696   4.278 -1.1961  0.0931  1.1082
 6290TIP3    H218877   4.338   0.761   4.160 -0.2302 -0.6508  1.2450
 6291TIP3   OH218878   0.453   2.208   0.774  0.2425  0.2070  0.2397
 6291TIP3    H118879   0.459   2.255   0.857 -0.9402 -1.4269  1.3186
 6291TIP3    H218880   0.449   2.277   0.707 -0.0650  1.5848  1.6233
 6292TIP3   OH218881   3.037   0.290   4.674 -0.0044  0.2417  0.0936
 6292TIP3    H118882   2.996   0.346   4.609 -1.8341 -0.1538  0.8568
 6292TIP3    H218883   3.008   0.202   4.652  1.1491 -0.1777  0.1614
 6293TIP3   OH218884   0.224   3.005   0.451  0.0857  0.1111  0.5275
 6293TIP3    H118885   0.226   3.062   0.527  0.5755  2.2719 -0.9975
 6293TIP3    H218886   0.136   2.967   0.451 -0.2054  0.7527  1.6935
 6294TIP3   OH218887   2.854   4.070   4.038  0.5696 -0.3166  0.1575
 6294TIP3    H118888   2.891   4.004   4.097  2.0776 -0.6417 -1.0788
 6294TIP3    H218889   2.910   4.147   4.050 -0.4299  0.3553  0.6843
 6295TIP3   OH218890   5.643   4.619   3.888 -0.1021 -0.4309 -0.4351
 6295TIP3    H118891   5.693   4.598   3.809 -0.1026  0.0170 -0.5613
 6295TIP3    H218892   5.552   4.602   3.865 -0.1233 -0.1118 -0.6045
 6296TIP3   OH218893   2.890   0.533   4.652  0.0848  0.2698 -0.0319
 6296TIP3    H118894   2.891   0.541   4.557 -1.4159  2.0978  0.0643
 6296TIP3    H218895   2.961   0.591   4.681 -0.9384  1.5465  0.0170
 6297TIP3   OH218896   2.400   1.111   3.492  0.5876 -0.5355  0.0097
 6297TIP3    H118897   2.349   1.076   3.565 -0.1539  0.0289 -0.2174
 6297TIP3    H218898   2.415   1.203   3.516  1.8182 -0.7833  0.2385
 6298TIP3   OH218899   1.258   5.122   4.944  0.4822 -0.4350 -0.5816
 6298TIP3    H118900   1.322   5.120   5.015 -0.6645  1.0877  0.5788
 6298TIP3    H218901   1.292   5.188   4.883 -1.2220  2.5408  1.4378
 6299TIP3   OH218902   3.345   1.146   4.014 -0.3975  0.4020 -0.5088
 6299TIP3    H118903   3.365   1.202   4.089 -1.6756  0.6013 -0.3030
 6299TIP3    H218904   3.346   1.206   3.938 -0.6844  0.5016 -0.4349
 6300TIP3   OH218905   4.054   2.805   3.018 -0.0929 -0.5215  0.5725
 6300TIP3    H118906   4.103   2.791   3.099 -1.2365 -2.1353  1.0254
 6300TIP3    H218907   4.052   2.900   3.007  0.9296 -0.3247  1.8992
 6301TIP3   OH218908   3.899  -0.005   5.121  0.5844 -0.2963  0.5935
 6301TIP3    H118909   3.960   0.069   5.117  1.1479 -0.7253  1.1793
 6301TIP3    H218910   3.926  -0.054   5.199 -1.1949  0.1155  1.5215
 6302TIP3   OH218911   1.476   4.013   0.562 -0.7790 -0.3840  0.2992
 6302TIP3    H118912   1.479   4.087   0.622  1.6945  0.0916 -0.3249
 6302TIP3    H218913   1.483   3.935   0.618 -1.7939 -0.1129  0.8274
 6303TIP3   OH218914   0.671   2.771   4.181  0.0398  0.0787 -0.1968
 6303TIP3    H118915   0.590   2.816   4.205  0.5040 -0.0347  1.7084
 6303TIP3    H218916   0.738   2.840   4.183  0.1057  0.0659 -1.2455
 6304TIP3   OH218917   2.972   0.435   1.975 -0.3608  0.1938 -0.3313
 6304TIP3    H118918   2.945   0.398   1.891  0.0422  0.7213 -0.7009
 6304TIP3    H218919   2.892   0.437   2.027 -0.5300 -0.5442 -0.5427
 6305TIP3   OH218920   1.631   3.052   4.229  0.1875 -0.3361  0.7043
 6305TIP3    H118921   1.538   3.047   4.207  0.7704 -0.8508 -1.9928
 6305TIP3    H218922   1.636   3.121   4.295 -1.9223  0.8888 -0.3094
 6306TIP3   OH218923   3.096   5.277   0.210  0.3856 -0.1080 -0.3934
 6306TIP3    H118924   3.102   5.273   0.305  1.6289 -1.7421 -0.5002
 6306TIP3    H218925   3.186   5.288   0.180 -0.0504  0.9838 -1.3815
 6307TIP3   OH218926   2.546   3.503   0.651  0.5150  0.5109  0.7473
 6307TIP3    H118927   2.470   3.532   0.601  0.6495 -0.5362 -0.1118
 6307TIP3    H218928   2.509   3.450   0.722  0.4298 -0.5161 -0.0275
 6308TIP3   OH218929   1.804   5.872   0.937  0.4188  0.6175  0.1309
 6308TIP3    H118930   1.872   5.922   0.893  0.1495 -0.2349 -1.3212
 6308TIP3    H218931   1.852   5.802   0.982  0.5452  0.2366 -0.5824
 6309TIP3   OH218932   0.966   3.424   3.257 -0.1195 -0.1084  0.9202
 6309TIP3    H118933   0.985   3.415   3.350  1.4729  0.5114  0.6793
 6309TIP3    H218934   1.011   3.350   3.215 -0.3023 -0.0254  0.5646
 6310TIP3   OH218935   3.940   5.924   1.998 -0.3950  0.4057 -0.8401
 6310TIP3    H118936   3.966   5.847   1.947  2.0039  1.0870 -0.7542
 6310TIP3    H218937   3.856   5.950   1.961 -0.4309 -1.2441 -2.0128
 6311TIP3   OH218938   4.104   4.037   5.107 -0.1301  0.0829 -0.0457
 6311TIP3    H118939   4.028   4.093   5.119  0.4103  1.1748 -1.4436
 6311TIP3    H218940   4.073   3.949   5.127 -1.6349  0.5668 -0.1593
 6312TIP3   OH218941   3.484   0.920   1.518  0.4233  0.2184  0.1946
 6312TIP3    H118942   3.422   0.901   1.588  0.4898  0.4342  0.3148
 6312TIP3    H218943   3.545   0.983   1.557  0.8740 -0.1953  0.1603
 6313TIP3   OH218944   0.282   5.256   0.240 -0.0175 -0.2268  0.1308
 6313TIP3    H118945   0.341   5.213   0.303 -1.0848 -0.2450  1.1480
 6313TIP3    H218946   0.296   5.349   0.255  0.6765 -0.2142 -0.5316
 6314TIP3   OH218947   0.359   0.806   2.367  0.1901 -0.4642 -0.0183
 6314TIP3    H118948   0.409   0.726   2.351  0.1384 -0.4385 -0.3297
 6314TIP3    H218949   0.269   0.784   2.343  0.7353  0.7437 -4.0608
 6315TIP3   OH218950   3.534   1.473   3.461  0.4150 -0.4386  0.1237
 6315TIP3    H118951   3.623   1.461   3.493  0.5639  0.9081  0.2924
 6315TIP3    H218952   3.503   1.552   3.507 -0.0484  0.4274 -1.6054
 6316TIP3   OH218953   3.848   3.912   2.373  0.3742  0.0835  0.2621
 6316TIP3    H118954   3.844   3.891   2.466  0.3081 -0.7168  0.0785
 6316TIP3    H218955   3.768   3.876   2.336  0.8246 -0.3970 -0.2643
 6317TIP3   OH218956   0.100   0.434   4.566 -0.0139 -0.0641 -0.0986
 6317TIP3    H118957   0.037   0.478   4.509  1.1756  0.2666 -1.2201
 6317TIP3    H218958   0.098   0.484   4.647 -0.9204  0.1637 -0.2503
 6318TIP3   OH218959   5.282   2.551   4.188 -0.0842  0.4488 -0.6637
 6318TIP3    H118960   5.250   2.565   4.099 -1.1152  0.8430 -0.2436
 6318TIP3    H218961   5.377   2.560   4.180 -0.2607  2.0519 -1.4552
 6319TIP3   OH218962   2.223   2.122   3.455  0.1108 -0.6781  0.0707
 6319TIP3    H118963   2.132   2.143   3.475 -0.3209 -2.0747 -0.3146
 6319TIP3    H218964   2.264   2.207   3.434 -1.2017 -0.0936 -0.1917
 6320TIP3   OH218965   1.754   4.622   4.639  0.2662 -0.0245 -0.2833
 6320TIP3    H118966   1.786   4.577   4.561  0.9123  1.1773 -0.7404
 6320TIP3    H218967   1.659   4.627   4.627  0.0879 -1.8978  0.1445
 6321TIP3   OH218968   3.843   4.035   0.475 -0.3303 -0.6765  0.3186
 6321TIP3    H118969   3.927   4.080   0.484 -0.2274 -1.0593  1.3668
 6321TIP3    H218970   3.832   4.023   0.381  0.3209  0.2554  0.1139
 6322TIP3   OH218971   6.283   1.769   1.102 -0.1969  0.5893 -0.0158
 6322TIP3    H118972   6.358   1.797   1.049  0.4748 -1.2651 -0.1296
 6322TIP3    H218973   6.230   1.716   1.041  0.9301 -2.1490  1.2276
 6323TIP3   OH218974   3.298   3.008   1.097 -0.1928 -0.2663 -0.0786
 6323TIP3    H118975   3.273   3.032   1.008  0.4457 -3.0487 -1.1372
 6323TIP3    H218976   3.393   3.022   1.099 -0.1196 -0.7344 -0.0593
 6324TIP3   OH218977   0.878   4.911   1.457 -0.3073  0.2781  0.5692
 6324TIP3    H118978   0.793   4.868   1.465 -1.0005  1.8582  2.4201
 6324TIP3    H218979   0.875   4.954   1.372 -0.6671 -1.0564 -0.1152
 6325TIP3   OH218980   5.746   3.946   0.027  0.4650  0.3145  0.0938
 6325TIP3    H118981   5.702   3.979  -0.051  1.4770 -1.4878 -1.3125
 6325TIP3    H218982   5.768   4.025   0.077 -2.3064  1.3858 -0.2183
 6326TIP3   OH218983   0.443   0.048   4.893  0.1884 -0.0996  0.2423
 6326TIP3    H118984   0.438  -0.047   4.896  1.1481 -0.1515  0.4877
 6326TIP3    H218985   0.451   0.075   4.985 -1.5109  0.3267  0.3047
 6327TIP3   OH218986   0.447   4.588   2.128 -0.0671 -0.4941 -0.7056
 6327TIP3    H118987   0.519   4.586   2.066  1.0192  0.6373  0.4585
 6327TIP3    H218988   0.433   4.497   2.152  1.6704 -0.6544 -0.2030
 6328TIP3   OH218989   2.973   5.943   4.103 -0.5224  0.3099  0.5244
 6328TIP3    H118990   2.889   5.949   4.148 -0.4785  2.0151  0.4284
 6328TIP3    H218991   2.977   6.022   4.049  1.8369  1.0790  1.7401
 6329TIP3   OH218992   3.264   5.720   2.665  0.1344  0.2903  0.5221
 6329TIP3    H118993   3.198   5.769   2.713  0.0985  1.7364 -0.9381
 6329TIP3    H218994   3.216   5.678   2.593  0.3434 -1.0779  1.1443
 6330TIP3   OH218995   4.325   5.117   2.526 -0.4005  0.1574 -0.0362
 6330TIP3    H118996   4.280   5.036   2.503  2.3547 -1.3268 -0.6534
 6330TIP3    H218997   4.283   5.184   2.471 -1.5152 -1.1896 -0.8987
 6331TIP3   OH218998   2.190   2.313   2.315  0.1715  0.6252  0.4587
 6331TIP3    H118999   2.143   2.393   2.293 -0.0772  0.3630  0.0151
 6331TIP3    H219000   2.136   2.271   2.381  0.8516  1.3492  1.5118
 6332TIP3   OH219001   3.311   3.314   4.879 -0.3294  0.1266 -0.4205
 6332TIP3    H119002   3.328   3.304   4.785 -0.8644 -1.1081 -0.4155
 6332TIP3    H219003   3.386   3.362   4.913 -0.7509  1.7641 -1.6831
 6333TIP3   OH219004   3.472   1.414   4.958  0.1462  0.1634  0.0552
 6333TIP3    H119005   3.552   1.459   4.985 -0.4035  0.1161  1.8705
 6333TIP3    H219006   3.496   1.368   4.877  0.8626  3.2742 -1.6582
 6334TIP3   OH219007   1.023   3.687   4.125  0.2463 -0.3276  0.0768
 6334TIP3    H119008   1.106   3.640   4.128  0.7721  0.6364  1.3087
 6334TIP3    H219009   0.958   3.619   4.106  1.2320 -1.1942 -0.3024
 6335TIP3   OH219010   3.493   2.369   2.072  0.8276  0.1464 -0.3106
 6335TIP3    H119011   3.457   2.352   2.160  1.2318 -0.4755 -0.2600
 6335TIP3    H219012   3.416   2.369   2.015  0.4684  1.3247  0.1362
 6336TIP3   OH219013   2.027   3.576   0.324  0.1864  0.4311  0.0172
 6336TIP3    H119014   2.080   3.617   0.255 -0.7098 -0.8753 -1.5237
 6336TIP3    H219015   1.964   3.522   0.276  0.9830 -2.3489  1.8879
 6337TIP3   OH219016   4.224   0.152   1.972  0.0782 -0.2739 -0.0104
 6337TIP3    H119017   4.216   0.173   2.065 -0.3371 -0.1695 -0.0681
 6337TIP3    H219018   4.134   0.135   1.943  0.2876 -1.0543 -0.2215
 6338TIP3   OH219019   1.311   5.413   4.273 -0.4255 -0.3476 -0.4361
 6338TIP3    H119020   1.238   5.352   4.282 -0.1095 -0.7009 -0.2095
 6338TIP3    H219021   1.285   5.472   4.203 -0.6022 -0.9523 -0.8925
 6339TIP3   OH219022   5.532   2.344   2.458  0.3584 -0.6329 -0.0049
 6339TIP3    H119023   5.607   2.360   2.400  0.2006  1.0291  0.1985
 6339TIP3    H219024   5.551   2.397   2.536 -0.1160 -1.7238  0.8869
 6340TIP3   OH219025   1.174   1.266   1.645  0.0302  0.0102 -0.5644
 6340TIP3    H119026   1.208   1.242   1.732  0.3914 -3.1205 -1.4230
 6340TIP3    H219027   1.240   1.326   1.609  0.5820  0.2579  0.8032
 6341TIP3   OH219028   1.744   2.602   1.052 -0.1486  0.0881  0.2808
 6341TIP3    H119029   1.752   2.650   1.134 -0.7379  0.6516  0.0155
 6341TIP3    H219030   1.724   2.669   0.986 -0.7209 -0.4810 -0.1393
 6342TIP3   OH219031   1.283   3.993   0.336  0.4398 -0.8091 -0.1983
 6342TIP3    H119032   1.210   4.018   0.392 -0.2947  0.3725 -1.6016
 6342TIP3    H219033   1.359   3.991   0.394 -0.5677 -1.3334  1.1455
 6343TIP3   OH219034   5.069   0.512   2.361 -0.0270 -0.2008  0.2375
 6343TIP3    H119035   5.013   0.582   2.395 -2.2906 -1.0714 -1.5225
 6343TIP3    H219036   5.022   0.432   2.380  2.2270 -1.3205  1.6199
 6344TIP3   OH219037   5.049   4.159   1.733 -0.5350  0.1821 -0.3223
 6344TIP3    H119038   5.029   4.137   1.641 -0.0239  0.0058 -0.3933
 6344TIP3    H219039   4.963   4.176   1.772 -0.7604  0.2450 -0.8302
 6345TIP3   OH219040   1.327   1.283   0.609  0.1123 -0.6647 -0.5931
 6345TIP3    H119041   1.263   1.234   0.660  1.0399 -0.3534  0.9206
 6345TIP3    H219042   1.354   1.355   0.665  2.4922 -1.3230 -0.7329
 6346TIP3   OH219043   1.948   4.434   3.579  0.1108 -0.3538  0.8761
 6346TIP3    H119044   2.027   4.392   3.545 -1.1417 -1.4494 -0.8684
 6346TIP3    H219045   1.933   4.392   3.664  1.1435 -0.4607  1.0137
 6347TIP3   OH219046   6.143   3.211   1.715  0.2917  0.0141  0.0913
 6347TIP3    H119047   6.128   3.139   1.654 -1.6187  0.8644 -0.5365
 6347TIP3    H219048   6.210   3.265   1.672  0.6587 -0.6130 -0.1330
 6348TIP3   OH219049   4.705   2.269   3.654 -0.0454 -0.2397 -0.4250
 6348TIP3    H119050   4.634   2.321   3.692 -0.7326 -0.8622 -0.8518
 6348TIP3    H219051   4.783   2.324   3.667 -0.2027 -0.4735  1.9907
 6349TIP3   OH219052   5.727   4.974   1.294  0.6069  0.2486  0.0157
 6349TIP3    H119053   5.754   5.062   1.318  0.1223  0.5340 -0.4792
 6349TIP3    H219054   5.792   4.945   1.229 -1.0416  1.5082 -2.3263
 6350TIP3   OH219055   5.216   4.194   2.974  0.2248  0.3081 -0.0312
 6350TIP3    H119056   5.261   4.247   3.040 -1.0714  1.4919 -0.0484
 6350TIP3    H219057   5.168   4.128   3.024 -1.5376  1.8012  0.3448
 6351TIP3   OH219058   1.034   3.944   1.705 -0.1511  0.3803 -0.4225
 6351TIP3    H119059   0.950   3.961   1.747 -0.8983 -1.4322 -1.1086
 6351TIP3    H219060   1.029   3.854   1.675  1.4216  0.7445 -1.9670
 6352TIP3   OH219061   5.349   1.373   4.603 -0.2366 -0.0585 -0.3047
 6352TIP3    H119062   5.396   1.397   4.684 -0.5124 -1.0920  0.1733
 6352TIP3    H219063   5.257   1.388   4.624 -0.3056 -0.2822 -0.4497
 6353TIP3   OH219064   2.274   4.507   4.618  0.2975 -0.0087 -0.6564
 6353TIP3    H119065   2.312   4.433   4.570  1.1452  0.2974 -0.4770
 6353TIP3    H219066   2.299   4.584   4.566  1.5973  0.3704  0.4583
 6354TIP3   OH219067   2.318   1.949   4.102 -0.4467  0.0715 -0.2009
 6354TIP3    H119068   2.361   1.877   4.148  0.6972 -1.3840 -3.3004
 6354TIP3    H219069   2.390   1.998   4.062 -1.4403  0.3343 -1.7227
 6355TIP3   OH219070   1.383   3.938   2.150  0.0118 -0.3418  0.4043
 6355TIP3    H119071   1.363   3.888   2.228  0.0635 -1.4465 -0.2752
 6355TIP3    H219072   1.349   3.885   2.078 -0.2823  0.7785 -0.3140
 6356TIP3   OH219073   0.681   0.400   2.048  0.4183  0.4406 -0.7449
 6356TIP3    H119074   0.597   0.439   2.071  0.1666 -0.1340 -0.6761
 6356TIP3    H219075   0.719   0.374   2.132  1.0361  1.4137 -0.6959
 6357TIP3   OH219076   6.318   2.877   1.165  0.4038  0.4071 -0.4216
 6357TIP3    H119077   6.231   2.915   1.179 -0.8095 -2.8581  2.0422
 6357TIP3    H219078   6.372   2.917   1.232 -0.1067 -0.0684  0.2826
 6358TIP3   OH219079   4.719   1.184   0.105 -0.6610  0.1791  0.4202
 6358TIP3    H119080   4.638   1.183   0.157  1.2495  1.1705  3.7336
 6358TIP3    H219081   4.722   1.097   0.066 -3.2960  0.1116  0.1544
 6359TIP3   OH219082   2.608   3.867   0.334  0.4301 -0.3547  0.6388
 6359TIP3    H119083   2.518   3.863   0.300  0.4863  0.8659  0.3058
 6359TIP3    H219084   2.664   3.861   0.257  0.6309 -0.8530  0.8228
 6360TIP3   OH219085   1.103   0.749   1.658  0.4623 -0.1977  0.9869
 6360TIP3    H119086   1.169   0.767   1.725  1.7522  0.6586 -0.4421
 6360TIP3    H219087   1.086   0.834   1.617 -0.4346 -0.6686  0.3399
 6361TIP3   OH219088   5.214   5.957   3.374  0.3325 -0.4728 -0.8197
 6361TIP3    H119089   5.121   5.934   3.367 -0.0069  0.8153 -0.8931
 6361TIP3    H219090   5.236   5.995   3.289  0.4536  0.7730 -0.2528
 6362TIP3   OH219091   1.606   0.165   2.039 -0.0597  0.4398  0.4653
 6362TIP3    H119092   1.570   0.223   1.972  1.1151  1.4419  0.6614
 6362TIP3    H219093   1.644   0.224   2.104  1.6554 -0.5350  0.4077
 6363TIP3   OH219094   3.561   4.586   4.641  0.2408  0.2404 -0.0065
 6363TIP3    H119095   3.584   4.636   4.562  3.0366  0.2386  0.6939
 6363TIP3    H219096   3.545   4.653   4.708 -0.1485  0.2155 -0.0710
 6364TIP3   OH219097   2.426   0.569   1.963 -0.3661 -0.4190 -0.0669
 6364TIP3    H119098   2.402   0.626   1.890 -1.4751 -3.1191 -1.9900
 6364TIP3    H219099   2.344   0.551   2.008 -0.9314 -3.6549 -2.0545
 6365TIP3   OH219100   1.332   3.195   2.639  0.4908  0.0874 -0.1801
 6365TIP3    H119101   1.368   3.283   2.650 -0.3383  0.1587  3.2630
 6365TIP3    H219102   1.407   3.136   2.651  0.5175  0.3140  0.8343
 6366TIP3   OH219103   4.675   5.104   0.987 -0.1620 -0.3236  0.2858
 6366TIP3    H119104   4.623   5.179   0.958  1.0194  1.3545  2.2703
 6366TIP3    H219105   4.630   5.072   1.065  1.4729  0.9360  1.8254
 6367TIP3   OH219106   4.569   2.200   0.920 -0.3658 -0.2336  0.2818
 6367TIP3    H119107   4.478   2.217   0.944 -0.0028  0.6968  1.1193
 6367TIP3    H219108   4.565   2.153   0.837 -1.5992  0.0083  0.1945
 6368TIP3   OH219109   3.360   4.102   3.289  0.1882 -0.3836 -0.2181
 6368TIP3    H119110   3.367   4.023   3.342 -0.5829 -0.5499 -0.3587
 6368TIP3    H219111   3.275   4.139   3.312  0.1782 -0.0509 -0.7812
 6369TIP3   OH219112   5.531   1.182   1.324 -0.0369 -0.1717  0.1757
 6369TIP3    H119113   5.457   1.242   1.333 -0.2644 -0.3610 -0.3820
 6369TIP3    H219114   5.574   1.183   1.410  0.1010  0.9642  0.1012
 6370TIP3   OH219115   4.006   2.819   1.797 -0.2744  0.0909 -0.0396
 6370TIP3    H119116   3.971   2.805   1.885  0.5811  1.8821  0.6259
 6370TIP3    H219117   3.967   2.749   1.745 -0.2384 -1.4757  1.8945
 6371TIP3   OH219118   5.765   4.884   1.696 -0.7640  0.3850 -0.5298
 6371TIP3    H119119   5.780   4.954   1.760 -0.2810  0.1762 -0.4070
 6371TIP3    H219120   5.728   4.929   1.620 -2.1149  0.5325  0.1707
 6372TIP3   OH219121   0.913   3.147   2.804  0.0940  0.3178 -0.2377
 6372TIP3    H119122   0.917   3.235   2.765 -0.7352 -0.3675 -2.0082
 6372TIP3    H219123   0.970   3.094   2.748  0.0261 -0.4185  0.3815
 6373TIP3   OH219124   2.337   2.775   4.807 -0.0049 -0.0151  0.0058
 6373TIP3    H119125   2.358   2.732   4.725  0.8404  0.4008 -0.0073
 6373TIP3    H219126   2.343   2.706   4.873  0.9944 -0.0069 -0.0614
 6374TIP3   OH219127   3.387   3.088   0.589  0.1078  0.1727  0.0118
 6374TIP3    H119128   3.352   3.145   0.520 -0.5616  2.2086  1.8967
 6374TIP3    H219129   3.458   3.139   0.628  0.9408 -1.2333  0.3874
 6375TIP3   OH219130   5.533   4.341   4.504  0.4946 -0.2732  0.5247
 6375TIP3    H119131   5.498   4.421   4.464 -0.7943 -0.2789  1.5341
 6375TIP3    H219132   5.485   4.335   4.587 -0.4023 -2.7679 -0.1015
 6376TIP3   OH219133   0.740   0.392   0.144 -0.4183  0.3095 -0.2522
 6376TIP3    H119134   0.759   0.326   0.211 -0.0369  0.8203  0.1445
 6376TIP3    H219135   0.683   0.346   0.082 -1.1726 -0.0197  0.6699
 6377TIP3   OH219136   1.854   3.188   2.554 -0.5362  0.3775 -0.6091
 6377TIP3    H119137   1.780   3.193   2.494  0.2344  1.1735 -1.5191
 6377TIP3    H219138   1.866   3.277   2.586  0.8857  0.5583 -1.5534
 6378TIP3   OH219139   6.025   4.583   2.661 -0.7317 -0.2355  0.2348
 6378TIP3    H119140   6.013   4.490   2.680 -0.9730 -0.3001 -0.2016
 6378TIP3    H219141   5.941   4.610   2.624 -0.2866 -0.1328 -0.7487
 6379TIP3   OH219142   5.842   2.099   0.602 -0.1112 -0.0278  0.1205
 6379TIP3    H119143   5.827   2.023   0.657  2.3118 -1.8579 -1.5354
 6379TIP3    H219144   5.761   2.107   0.550 -0.5252 -1.3167  0.5219
 6380TIP3   OH219145   5.460   0.809   5.019  0.2974 -0.3582  0.2428
 6380TIP3    H119146   5.492   0.863   5.092  0.7152 -0.1467 -0.0925
 6380TIP3    H219147   5.528   0.816   4.952 -0.1750 -0.3828 -0.2505
 6381TIP3   OH219148   6.190   1.662   2.234  0.1905 -0.0228 -0.0423
 6381TIP3    H119149   6.241   1.589   2.269 -1.9258 -1.9452 -0.6969
 6381TIP3    H219150   6.101   1.647   2.266 -0.4644  1.8647 -0.8355
 6382TIP3   OH219151   4.958   3.645   1.483  0.4112 -0.5325 -0.7743
 6382TIP3    H119152   5.043   3.645   1.527  0.5517  0.7442 -1.0101
 6382TIP3    H219153   4.917   3.727   1.510 -1.3870 -1.7641  0.5036
 6383TIP3   OH219154   6.173   0.531   3.968  0.0510  0.0032  0.0625
 6383TIP3    H119155   6.141   0.601   3.911  0.0089  0.5949  0.7959
 6383TIP3    H219156   6.096   0.479   3.989 -0.0675  0.2159  0.1605
 6384TIP3   OH219157   0.151   0.794   4.722 -0.1720 -0.2327  0.0056
 6384TIP3    H119158   0.174   0.848   4.797 -0.6094 -0.6974  0.4826
 6384TIP3    H219159   0.157   0.704   4.754  0.8462 -0.4904 -0.8636
 6385TIP3   OH219160   5.216   5.152   2.994 -0.2218 -0.3300 -0.5438
 6385TIP3    H119161   5.176   5.077   2.951  0.5545 -0.5273 -0.9429
 6385TIP3    H219162   5.273   5.113   3.061 -0.7197 -0.0553  0.0489
 6386TIP3   OH219163   3.303   0.793   0.665  0.0276  0.1338 -0.2201
 6386TIP3    H119164   3.388   0.790   0.708  0.4486  0.3596 -1.0176
 6386TIP3    H219165   3.313   0.737   0.588  0.6518  2.9463 -2.3548
 6387TIP3   OH219166   2.144   3.255   4.055  0.0968 -0.2084 -0.2085
 6387TIP3    H119167   2.094   3.174   4.069  0.3274 -0.2510  0.4056
 6387TIP3    H219168   2.081   3.325   4.069 -0.1013 -0.2839 -0.7326
 6388TIP3   OH219169   5.559   4.809   0.776  0.3494  0.3233  0.0040
 6388TIP3    H119170   5.559   4.861   0.696  0.3459 -0.1617 -0.3117
 6388TIP3    H219171   5.560   4.874   0.846 -1.8007  0.8231 -0.3433
 6389TIP3   OH219172   2.784   3.912   3.594  0.7589 -0.6949  0.1042
 6389TIP3    H119173   2.767   3.829   3.550  2.1758 -1.1305  0.3227
 6389TIP3    H219174   2.792   3.975   3.522 -0.9798 -0.5935 -0.0294
 6390TIP3   OH219175   5.605   4.268   3.661 -0.0156 -0.2359  0.6760
 6390TIP3    H119176   5.685   4.216   3.668 -0.3421 -0.7606  0.4815
 6390TIP3    H219177   5.547   4.232   3.728 -0.7505 -1.0304 -0.3746
 6391TIP3   OH219178   6.164   1.319   0.058 -0.1614 -0.3494 -0.0537
 6391TIP3    H119179   6.092   1.295  -0.000 -0.8718  0.5306  0.4332
 6391TIP3    H219180   6.121   1.358   0.134  0.7520 -1.3340  1.0102
 6392TIP3   OH219181   4.520   0.709   4.888 -0.2204  0.7015  0.1854
 6392TIP3    H119182   4.577   0.634   4.869 -1.3963 -0.3267  0.6084
 6392TIP3    H219183   4.542   0.773   4.820  1.4029  0.3349  0.3115
 6393TIP3   OH219184   2.972   0.861   3.694 -0.6596  0.5463 -0.2260
 6393TIP3    H119185   3.028   0.938   3.702 -0.4031  0.4970 -1.4025
 6393TIP3    H219186   2.898   0.890   3.640 -0.9222  0.1596 -0.0812
 6394TIP3   OH219187   3.332   1.009   4.818 -0.2695  0.6471  0.3110
 6394TIP3    H119188   3.340   0.944   4.888  2.3735  0.9706  0.4387
 6394TIP3    H219189   3.384   0.973   4.746  0.6916  2.2694  0.1385
 6395TIP3   OH219190   1.262   2.653   5.024  0.1336 -0.0683  0.0194
 6395TIP3    H119191   1.271   2.640   4.930 -1.0267  1.3050 -0.3304
 6395TIP3    H219192   1.184   2.709   5.033 -0.0778 -0.5718  1.8241
 6396TIP3   OH219193   6.251   4.908   2.933 -0.1780  0.2285  0.3328
 6396TIP3    H119194   6.294   4.970   2.874  2.2234 -0.8864  0.7699
 6396TIP3    H219195   6.285   4.930   3.019  0.3091 -1.3012  0.5637
 6397TIP3   OH219196   3.930   0.365   3.939  0.5546  0.1542 -0.4464
 6397TIP3    H119197   3.966   0.373   3.850 -0.1097  2.3895 -0.5885
 6397TIP3    H219198   3.902   0.454   3.961 -0.3660 -0.5773  1.5682
 6398TIP3   OH219199   6.130   5.095   1.440 -0.1607 -0.0592  0.6358
 6398TIP3    H119200   6.176   5.074   1.359  1.5479  2.3995  0.8420
 6398TIP3    H219201   6.047   5.134   1.410 -0.6802 -1.4619  0.1747
 6399TIP3   OH219202   3.734   3.181   1.562 -0.3628  0.4887 -0.0452
 6399TIP3    H119203   3.778   3.265   1.557 -1.5737  1.1838  0.5618
 6399TIP3    H219204   3.766   3.141   1.643 -0.2791  0.6507  0.0008
 6400TIP3   OH219205   5.556   5.786   1.310 -0.6587 -0.1383  0.3082
 6400TIP3    H119206   5.462   5.783   1.326 -0.6053  0.6441  0.7953
 6400TIP3    H219207   5.564   5.828   1.224 -0.7271  0.3640  0.5476
 6401TIP3   OH219208   1.431   4.229   4.279  0.8116 -0.7353 -0.2819
 6401TIP3    H119209   1.448   4.205   4.188  0.1379  1.2023 -0.9492
 6401TIP3    H219210   1.336   4.229   4.286  0.7418  2.0009 -0.4439
 6402TIP3   OH219211   5.547   5.642   5.067  0.2991 -0.4704  0.1489
 6402TIP3    H119212   5.452   5.645   5.059  0.1920  2.3161  1.1514
 6402TIP3    H219213   5.567   5.550   5.083 -2.5125 -0.8295  2.4809
 6403TIP3   OH219214   0.357   2.018   0.441 -0.4548 -0.0313  0.7213
 6403TIP3    H119215   0.422   2.040   0.509 -1.0618 -0.1188  1.3379
 6403TIP3    H219216   0.398   2.046   0.359 -0.2226  1.2230  1.2418
 6404TIP3   OH219217   4.201   4.296   3.554 -0.4128 -0.0306  0.3314
 6404TIP3    H119218   4.293   4.289   3.528 -0.6450  1.3805 -0.9960
 6404TIP3    H219219   4.195   4.378   3.602 -0.8027 -0.6195  1.3237
 6405TIP3   OH219220   2.928   5.895   0.973  0.1562 -0.2125 -0.4147
 6405TIP3    H119221   2.875   5.818   0.953 -0.4609  0.3993 -1.1839
 6405TIP3    H219222   2.866   5.960   1.007  0.8666 -0.4786  1.5208
 6406TIP3   OH219223   3.188   0.961   1.142 -0.2847 -0.7699  0.0908
 6406TIP3    H119224   3.118   1.022   1.166  0.9098  0.3074  0.9593
 6406TIP3    H219225   3.160   0.877   1.178 -1.4301 -0.5077 -0.1508
 6407TIP3   OH219226   6.258   3.316   3.618 -0.0019 -0.2228 -0.2062
 6407TIP3    H119227   6.232   3.342   3.530 -2.4974 -1.8204 -0.0203
 6407TIP3    H219228   6.347   3.350   3.628  0.1095  0.5262 -3.0853
 6408TIP3   OH219229   0.057   1.970   0.168  0.1063  0.1132  0.2518
 6408TIP3    H119230   0.026   2.040   0.111 -3.5846  0.5349  2.4307
 6408TIP3    H219231   0.096   2.015   0.243  0.2042 -0.2713  0.4376
 6409TIP3   OH219232   0.378   2.731   2.165 -0.7457  0.4202  0.3360
 6409TIP3    H119233   0.465   2.713   2.200 -0.9839  0.2666  0.8612
 6409TIP3    H219234   0.383   2.704   2.073 -0.3596  0.0353  0.4682
 6410TIP3   OH219235   4.899   0.175   1.291 -0.1991  0.4524 -0.3307
 6410TIP3    H119236   4.984   0.194   1.251  0.7556 -1.1422  0.8370
 6410TIP3    H219237   4.906   0.206   1.380 -0.3166 -0.8954  0.1794
 6411TIP3   OH219238   3.427   1.711   4.515 -0.2293  0.5970 -0.3152
 6411TIP3    H119239   3.367   1.760   4.570 -1.6614 -0.6213 -0.7401
 6411TIP3    H219240   3.497   1.774   4.495 -0.7139  1.6764  1.1716
 6412TIP3   OH219241   3.794   3.016   1.764  0.8273  0.2486 -0.1216
 6412TIP3    H119242   3.774   3.021   1.857  0.1966 -2.5480 -0.0036
 6412TIP3    H219243   3.805   2.922   1.747  1.7139  0.7260 -2.7196
 6413TIP3   OH219244   2.147   3.080   1.426 -0.1499  0.8266 -0.0327
 6413TIP3    H119245   2.220   3.128   1.465  0.1982  1.6760 -1.6469
 6413TIP3    H219246   2.140   3.000   1.478  1.3450  1.1497  0.7096
 6414TIP3   OH219247   1.189   3.847   2.639 -0.8759 -0.1513  0.1298
 6414TIP3    H119248   1.171   3.938   2.661 -2.2319 -0.2587 -0.4017
 6414TIP3    H219249   1.241   3.814   2.712 -0.4194  1.0193  0.3587
 6415TIP3   OH219250   5.320   0.619   0.012  0.7214  0.2315 -0.0219
 6415TIP3    H119251   5.247   0.580  -0.035  0.8737 -1.8418  1.2992
 6415TIP3    H219252   5.302   0.599   0.104  0.7183  3.6014  0.8269
 6416TIP3   OH219253   5.419   2.861   2.350 -0.2322 -0.0966  0.2783
 6416TIP3    H119254   5.498   2.915   2.357 -0.4454  0.4915 -1.2438
 6416TIP3    H219255   5.444   2.776   2.384  1.6487 -0.4754 -1.8288
 6417TIP3   OH219256   5.153   3.233   2.150 -0.1986 -0.1112 -0.2476
 6417TIP3    H119257   5.062   3.222   2.124 -0.5444  0.6547  0.5663
 6417TIP3    H219258   5.199   3.252   2.069 -0.5615 -1.5543 -0.8186
 6418TIP3   OH219259   0.092   3.085   3.991 -0.5895 -0.2278  0.6181
 6418TIP3    H119260   0.080   3.054   4.081  0.6866  2.8847  2.0107
 6418TIP3    H219261   0.115   3.006   3.941  0.8843 -1.7676  3.4921
 6419TIP3   OH219262   3.303   1.047   0.867  0.1411  0.2153 -0.4374
 6419TIP3    H119263   3.260   1.111   0.809 -0.5629 -0.7762 -1.0337
 6419TIP3    H219264   3.278   1.075   0.955  0.0707  0.9211 -0.6709
 6420TIP3   OH219265   3.814   5.358   3.578  0.5234  0.2742  0.1597
 6420TIP3    H119266   3.824   5.453   3.585 -1.7173  0.5365  0.6628
 6420TIP3    H219267   3.799   5.328   3.668 -0.2234 -0.3429 -0.1559
 6421TIP3   OH219268   2.139   5.481   4.994 -0.1392 -0.5750 -0.1124
 6421TIP3    H119269   2.101   5.536   5.062 -0.7102  0.3899 -1.2044
 6421TIP3    H219270   2.198   5.539   4.946  0.9857 -1.4858  0.1167
 6422TIP3   OH219271   0.964   4.247   0.610  0.1668  0.6686  0.2468
 6422TIP3    H119272   0.947   4.248   0.704 -0.4835  0.9170  0.1283
 6422TIP3    H219273   0.878   4.252   0.569  0.4934  1.6186 -0.3565
 6423TIP3   OH219274   2.672   3.758   0.608 -0.2601  0.3345 -0.3758
 6423TIP3    H119275   2.625   3.675   0.598  2.8368 -1.4234 -1.4937
 6423TIP3    H219276   2.639   3.812   0.536 -1.8683 -0.0795 -0.0072
 6424TIP3   OH219277   5.547   5.352   0.592  0.1168 -0.0797 -0.1020
 6424TIP3    H119278   5.539   5.317   0.681 -0.5626 -0.5323 -0.3298
 6424TIP3    H219279   5.457   5.374   0.567  0.4585  1.2386 -0.2158
 6425TIP3   OH219280   3.750   5.908   4.127  0.0595 -0.1145  0.3642
 6425TIP3    H119281   3.822   5.927   4.067 -1.2378  2.1431 -0.5903
 6425TIP3    H219282   3.774   5.952   4.208 -0.8416  1.9810 -0.4274
 6426TIP3   OH219283   5.998   4.283   4.843 -0.5105 -0.1687 -0.2161
 6426TIP3    H119284   6.037   4.313   4.761 -1.4477  0.6651 -0.3744
 6426TIP3    H219285   6.053   4.322   4.911 -1.0525  1.0329 -0.4364
 6427TIP3   OH219286   4.890   4.108   1.525 -0.4617  0.0834 -0.0934
 6427TIP3    H119287   4.936   4.121   1.443 -0.5690 -0.1663 -0.1955
 6427TIP3    H219288   4.835   4.186   1.535  0.3397  0.6064  0.2712
 6428TIP3   OH219289   2.083   0.988   1.219 -0.0895 -0.7250 -0.6003
 6428TIP3    H119290   2.020   0.918   1.204 -0.2902 -0.7684  0.3800
 6428TIP3    H219291   2.032   1.059   1.259  0.7310 -1.4088  1.8557
 6429TIP3   OH219292   5.054   3.278   4.716  0.1571  0.2485 -0.6382
 6429TIP3    H119293   5.148   3.286   4.701  0.4049 -0.7212  0.2660
 6429TIP3    H219294   5.046   3.264   4.811 -0.6201 -2.7165 -1.0189
 6430TIP3   OH219295   1.877   4.341   4.057 -0.2520 -0.6064 -0.1464
 6430TIP3    H119296   1.927   4.266   4.092  0.5022 -0.6630 -1.3160
 6430TIP3    H219297   1.846   4.387   4.136 -0.0113 -1.6650  0.5944
 6431TIP3   OH219298   4.013   3.249   0.651 -0.2784 -0.2226  0.0042
 6431TIP3    H119299   4.055   3.290   0.727  0.8978 -2.5040  0.6613
 6431TIP3    H219300   4.014   3.156   0.671 -2.1315 -0.6782 -1.7802
 6432TIP3   OH219301   5.500   4.195   2.287  0.4010 -0.1006 -0.2943
 6432TIP3    H119302   5.417   4.222   2.249  0.6372 -1.6301 -2.0474
 6432TIP3    H219303   5.476   4.144   2.364 -0.2705  0.0614 -0.3907
 6433TIP3   OH219304   3.775   3.303   2.517  0.2764  0.4931 -0.1094
 6433TIP3    H119305   3.706   3.316   2.581  0.1021  0.9390 -0.3865
 6433TIP3    H219306   3.767   3.377   2.456  0.2236 -0.0945 -0.8366
 6434TIP3   OH219307   1.414   0.607   1.657 -0.4912 -0.1837 -0.3357
 6434TIP3    H119308   1.477   0.660   1.707 -1.2853 -1.1058  1.7944
 6434TIP3    H219309   1.383   0.666   1.588  0.7199  1.1742  0.2204
 6435TIP3   OH219310   4.351   2.669   3.041 -0.1234  0.0548  0.3171
 6435TIP3    H119311   4.373   2.762   3.048  0.3335 -0.0182 -0.0755
 6435TIP3    H219312   4.433   2.627   3.015 -0.3404 -0.4525  0.4432
 6436TIP3   OH219313   3.672   2.084   4.961 -0.3341  0.1255  0.7164
 6436TIP3    H119314   3.727   2.091   4.883  0.0978  1.4088  1.1165
 6436TIP3    H219315   3.703   2.005   5.004  0.6468  0.3757  0.5039
 6437TIP3   OH219316   3.386   2.514   1.103 -0.4218  0.3236 -0.2044
 6437TIP3    H119317   3.295   2.531   1.079 -0.3910  1.0228  0.1319
 6437TIP3    H219318   3.389   2.526   1.198  0.0796  0.6504 -0.2507
 6438TIP3   OH219319   2.055   2.135   2.519 -0.2659  0.4400 -0.7565
 6438TIP3    H119320   2.150   2.127   2.531 -0.4474 -0.0870  0.4777
 6438TIP3    H219321   2.021   2.049   2.543 -0.9161 -0.0106 -3.1019
 6439TIP3   OH219322   2.598   1.370   0.303 -0.1049 -0.0140  0.1602
 6439TIP3    H119323   2.616   1.278   0.322  0.3103  0.4273  2.0752
 6439TIP3    H219324   2.675   1.400   0.255  1.2898  0.1028  2.3262
 6440TIP3   OH219325   0.866   4.309   3.569  0.0057  0.5091  0.0729
 6440TIP3    H119326   0.877   4.397   3.606 -1.4424  0.8458 -0.2245
 6440TIP3    H219327   0.780   4.312   3.528 -0.2929 -1.2248  0.5175
 6441TIP3   OH219328   2.179   3.300   0.963  0.1473  0.1364  0.2655
 6441TIP3    H119329   2.136   3.306   1.049  1.5006  0.4755  0.9419
 6441TIP3    H219330   2.146   3.218   0.926 -0.5173  0.0204  1.0777
 6442TIP3   OH219331   3.045   3.420   1.527 -0.0539 -0.5489 -0.0049
 6442TIP3    H119332   3.013   3.330   1.537 -3.6544  0.6747  0.7809
 6442TIP3    H219333   3.051   3.433   1.433 -1.0601 -1.1523 -0.1707
 6443TIP3   OH219334   3.428   5.535   4.775 -0.2228 -0.2599  0.2158
 6443TIP3    H119335   3.378   5.600   4.726 -0.7438 -0.8075  0.0056
 6443TIP3    H219336   3.516   5.573   4.784 -0.2909  0.1047 -0.6236
 6444TIP3   OH219337   0.390   5.645   1.629  0.2790  0.2173 -0.6340
 6444TIP3    H119338   0.468   5.682   1.671  0.7625  0.5254 -1.7600
 6444TIP3    H219339   0.421   5.611   1.545 -0.1156 -2.9749  0.3860
 6445TIP3   OH219340   5.901   3.145   1.603 -0.4490 -0.6243 -0.2303
 6445TIP3    H119341   5.974   3.201   1.628 -0.0399 -0.9672 -0.6382
 6445TIP3    H219342   5.881   3.095   1.683 -1.7087  1.0275  0.5516
 6446TIP3   OH219343   5.253   0.719   4.103  0.4474  0.1441 -0.0233
 6446TIP3    H119344   5.172   0.752   4.141 -1.2044 -1.6248 -1.7735
 6446TIP3    H219345   5.231   0.631   4.072  2.6420  0.1389 -1.8181
 6447TIP3   OH219346   0.194   5.015   1.126 -0.2129 -0.0442  0.4195
 6447TIP3    H119347   0.252   5.072   1.076  0.6087 -0.4529  0.8775
 6447TIP3    H219348   0.223   5.025   1.217 -1.1971  0.1282  0.7285
 6448TIP3   OH219349   3.100   4.960   2.677 -0.2685  0.1830 -0.3875
 6448TIP3    H119350   3.058   4.917   2.751 -0.4151 -0.1716 -0.6715
 6448TIP3    H219351   3.162   5.021   2.716 -0.9082  0.5714  0.0351
 6449TIP3   OH219352   0.698   2.405   0.240  0.5274  0.1585 -0.4027
 6449TIP3    H119353   0.739   2.380   0.157  1.1504 -1.0132  0.2254
 6449TIP3    H219354   0.613   2.442   0.216  2.2021  3.4669 -1.8199
 6450TIP3   OH219355   0.235   5.718   0.030 -0.3665  0.0015  0.0143
 6450TIP3    H119356   0.237   5.622   0.026 -0.0683  0.0379 -1.2571
 6450TIP3    H219357   0.285   5.740   0.109  2.2505 -0.8359 -1.2778
 6451TIP3   OH219358   6.102   4.379   4.603  0.2207  0.0504  0.3578
 6451TIP3    H119359   6.134   4.291   4.586  1.7785  0.4069  1.1669
 6451TIP3    H219360   6.139   4.432   4.532  0.2384  0.2344  0.5031
 6452TIP3   OH219361   5.870   0.226   4.921  0.0433 -0.6943  0.4420
 6452TIP3    H119362   5.803   0.280   4.879 -0.4457 -0.1173  1.9033
 6452TIP3    H219363   5.944   0.284   4.934 -0.0037 -0.7201  0.8440
 6453TIP3   OH219364   1.838   0.620   0.741  0.1515  0.1725 -0.5683
 6453TIP3    H119365   1.773   0.556   0.712  0.8912 -0.0071 -1.9039
 6453TIP3    H219366   1.794   0.704   0.732 -0.7207 -0.0888  0.9028
 6454TIP3   OH219367   4.974   3.614   0.136 -0.1901  0.0177 -0.0926
 6454TIP3    H119368   5.039   3.591   0.070  0.0088  2.1188 -0.7003
 6454TIP3    H219369   5.020   3.604   0.220 -0.3277 -2.2856 -0.2362
 6455TIP3   OH219370   1.246   4.742   4.420  0.5214 -0.0804 -0.0237
 6455TIP3    H119371   1.183   4.703   4.480 -0.9403 -0.0064 -1.4154
 6455TIP3    H219372   1.253   4.678   4.349  1.2800  0.3573 -0.3529
 6456TIP3   OH219373   5.041   3.664   2.146  0.0540 -0.0070  0.0027
 6456TIP3    H119374   5.019   3.744   2.098 -0.1875 -0.6619 -0.9980
 6456TIP3    H219375   5.129   3.642   2.117  0.2381  0.0449  0.5034
 6457TIP3   OH219376   6.033   5.776   1.240 -0.0582  0.0210  0.6216
 6457TIP3    H119377   6.110   5.747   1.191 -1.5733 -2.1060 -0.7428
 6457TIP3    H219378   6.005   5.698   1.288 -2.9903 -0.2792 -1.2997
 6458TIP3   OH219379   0.343   1.454   4.539 -0.3277 -0.1637 -0.2485
 6458TIP3    H119380   0.381   1.541   4.555 -0.6380  0.0020 -0.4072
 6458TIP3    H219381   0.370   1.432   4.450  2.0916 -1.4420  0.6958
 6459TIP3   OH219382   2.901   4.439   5.127  0.2820 -0.6699  0.0072
 6459TIP3    H119383   2.947   4.485   5.197  0.3148 -0.7462  0.0360
 6459TIP3    H219384   2.939   4.476   5.047 -1.2038  0.9186 -0.0203
 6460TIP3   OH219385   2.770   5.147   1.349 -0.0668  0.2172  0.3613
 6460TIP3    H119386   2.824   5.100   1.412 -0.2721  1.0411  1.1679
 6460TIP3    H219387   2.808   5.125   1.264  1.6078  0.8340  0.9016
 6461TIP3   OH219388   2.414   0.770   2.169 -0.5769 -0.0093 -0.1426
 6461TIP3    H119389   2.327   0.732   2.181  0.9373 -3.2846  1.6415
 6461TIP3    H219390   2.448   0.728   2.090 -0.6986  1.6011 -1.0970
 6462TIP3   OH219391   4.216   5.798   1.440 -0.0841 -0.4929  0.1922
 6462TIP3    H119392   4.239   5.792   1.533  0.7576  0.1634  0.0320
 6462TIP3    H219393   4.212   5.891   1.422 -0.0469 -0.6185 -0.4850
 6463TIP3   OH219394   1.609   5.470   1.085 -0.1901 -0.3363  0.4903
 6463TIP3    H119395   1.615   5.541   1.020 -0.1521  1.0109  1.9062
 6463TIP3    H219396   1.699   5.440   1.096 -0.2335 -0.7847 -0.2718
 6464TIP3   OH219397   1.053   2.497   4.694  0.6400 -0.0385 -0.2400
 6464TIP3    H119398   0.981   2.484   4.756  1.0968  2.1755  0.8696
 6464TIP3    H219399   1.120   2.435   4.722  0.0824 -0.4559  0.2006
 6465TIP3   OH219400   6.211   4.160   1.080 -0.1757 -0.1202 -0.7132
 6465TIP3    H119401   6.290   4.173   1.133  0.3538 -0.6329 -1.3532
 6465TIP3    H219402   6.144   4.214   1.123  0.0689 -0.9747  0.8330
 6466TIP3   OH219403   2.450   2.136   0.726  0.2782 -0.3149  0.7564
 6466TIP3    H119404   2.506   2.148   0.650 -0.6264  1.2126  0.3017
 6466TIP3    H219405   2.373   2.090   0.692 -1.4025  2.7472  0.0554
 6467TIP3   OH219406   3.484   5.386   4.998 -0.0354 -0.5149  0.0684
 6467TIP3    H119407   3.567   5.427   5.023 -0.3716  0.0508  0.2876
 6467TIP3    H219408   3.449   5.444   4.930  0.0756 -1.1282 -0.5151
 6468TIP3   OH219409   4.398   3.372   1.272  0.0314  0.2049  0.2241
 6468TIP3    H119410   4.313   3.381   1.228  0.6555 -0.1607 -1.0963
 6468TIP3    H219411   4.383   3.408   1.360 -1.9300 -1.3285  0.6064
 6469TIP3   OH219412   3.790   5.109   4.348 -0.5740  0.2764 -0.1481
 6469TIP3    H119413   3.697   5.128   4.359 -0.9732 -0.6039 -1.6357
 6469TIP3    H219414   3.814   5.151   4.265  0.5766  1.1587  0.5927
 6470TIP3   OH219415   2.111   1.782   3.568 -0.3360 -0.1588  0.4837
 6470TIP3    H119416   2.102   1.722   3.641  0.8369 -2.2883 -1.0198
 6470TIP3    H219417   2.028   1.777   3.520 -0.3972 -0.2406  0.6015
 6471TIP3   OH219418   4.042   4.876   2.831  0.5636 -0.3201 -0.0575
 6471TIP3    H119419   3.978   4.905   2.895 -0.0242  1.2076 -1.2873
 6471TIP3    H219420   4.126   4.904   2.867  0.2738  0.1611  0.2584
 6472TIP3   OH219421   6.266   0.210   4.658 -0.2298 -0.0926  0.0170
 6472TIP3    H119422   6.269   0.281   4.723 -1.2076  0.0641 -0.0887
 6472TIP3    H219423   6.334   0.232   4.595 -0.8267  1.0139 -0.2672
 6473TIP3   OH219424   1.949   5.203   0.886  0.1978 -0.0252 -0.2539
 6473TIP3    H119425   1.883   5.139   0.911 -0.6808  1.6387  2.0683
 6473TIP3    H219426   1.902   5.264   0.829 -0.4334  1.2560  1.5363
 6474TIP3   OH219427   0.832   5.656   0.663  0.5198 -0.6578 -0.4697
 6474TIP3    H119428   0.808   5.638   0.572  0.2076 -1.2699 -0.2686
 6474TIP3    H219429   0.753   5.691   0.703  0.1899 -1.8859 -0.0254
 6475TIP3   OH219430   2.422   0.363   4.823 -0.1371  0.2871 -0.2128
 6475TIP3    H119431   2.499   0.393   4.774  0.2115  0.7572  0.6085
 6475TIP3    H219432   2.456   0.298   4.884 -0.0475  1.7413  1.3772
 6476TIP3   OH219433   5.960   5.772   4.650 -0.5787  0.2052 -0.1017
 6476TIP3    H119434   5.947   5.711   4.722 -2.1357  0.3567 -0.2258
 6476TIP3    H219435   5.942   5.721   4.571 -0.5126  0.4697 -0.2900
 6477TIP3   OH219436   5.044   0.339   5.082  0.1257  0.6603 -0.2943
 6477TIP3    H119437   5.058   0.323   4.989 -0.9868  0.1186 -0.3899
 6477TIP3    H219438   4.986   0.269   5.110  1.8007 -0.2184  1.2252
 6478TIP3   OH219439   3.775   2.510   4.600  0.2203 -0.3203 -0.2149
 6478TIP3    H119440   3.759   2.514   4.694 -0.8905 -0.0092 -0.4120
 6478TIP3    H219441   3.763   2.599   4.569 -0.9072 -0.6881 -0.8763
 6479TIP3   OH219442   4.154   4.734   1.374 -0.3142 -0.1877  0.0837
 6479TIP3    H119443   4.173   4.800   1.307  1.2713 -1.2737 -0.6149
 6479TIP3    H219444   4.121   4.659   1.324  2.5954 -1.6855  0.1876
 6480TIP3   OH219445   1.267   2.957   5.034 -0.0817 -0.5109 -0.5704
 6480TIP3    H119446   1.185   2.908   5.036  0.2865 -1.1876 -1.5247
 6480TIP3    H219447   1.257   3.019   4.962 -0.8674  1.4557  1.1390
 6481TIP3   OH219448   5.822   5.048   5.075 -0.3561  0.8317 -0.5134
 6481TIP3    H119449   5.832   4.963   5.032  1.6855  0.5218  0.4486
 6481TIP3    H219450   5.836   5.030   5.168 -0.1921  2.1689 -0.2587
 6482TIP3   OH219451   5.988   0.084   4.340  0.6403 -0.1611 -0.3563
 6482TIP3    H119452   5.997   0.058   4.432 -0.2567  1.2176  0.1629
 6482TIP3    H219453   5.927   0.159   4.342  0.7722  0.0379 -2.0499
 6483TIP3   OH219454   1.411   1.780   4.858  0.0985  0.1704  0.6918
 6483TIP3    H119455   1.352   1.766   4.932 -0.0680 -0.7950  0.3880
 6483TIP3    H219456   1.373   1.729   4.787  0.2457  1.1006 -0.0790
 6484TIP3   OH219457   3.740   5.857   1.827 -0.3630  0.7897 -0.0596
 6484TIP3    H119458   3.674   5.819   1.885  1.9585  0.1219  2.2968
 6484TIP3    H219459   3.737   5.801   1.749 -0.3220 -1.3258  1.3712
 6485TIP3   OH219460   0.492   0.563   2.328 -0.1366 -0.1651 -0.1408
 6485TIP3    H119461   0.433   0.491   2.351  0.5425 -0.4418  0.8150
 6485TIP3    H219462   0.545   0.577   2.407  0.8241  0.3190 -0.8482
 6486TIP3   OH219463   2.713   4.659   4.588  0.0545 -0.4033  0.4461
 6486TIP3    H119464   2.783   4.620   4.535  0.9361  0.8043  0.7081
 6486TIP3    H219465   2.636   4.654   4.531  0.5156 -1.0222 -0.1490
 6487TIP3   OH219466   1.662   5.896   2.789 -0.1229 -0.3110 -0.2957
 6487TIP3    H119467   1.704   5.953   2.724  1.2186  1.0433  1.6225
 6487TIP3    H219468   1.680   5.807   2.758 -0.6521  0.2617 -2.4107
 6488TIP3   OH219469   3.401   3.617   2.772 -0.6985 -0.3547 -0.5132
 6488TIP3    H119470   3.388   3.699   2.821  1.6867  0.1581 -0.6443
 6488TIP3    H219471   3.409   3.550   2.840 -0.6348 -0.1538 -0.3203
 6489TIP3   OH219472   2.050   5.883   2.597 -0.0255  0.0303 -0.0510
 6489TIP3    H119473   2.144   5.874   2.605  0.2137  1.1095 -1.3034
 6489TIP3    H219474   2.018   5.885   2.688  1.3725  1.5491  0.4642
 6490TIP3   OH219475   2.082   0.758   4.429 -0.2672  0.1131  0.2105
 6490TIP3    H119476   1.994   0.763   4.391 -0.4999  3.3421  0.9193
 6490TIP3    H219477   2.073   0.797   4.516  1.1696 -2.9873  1.8931
 6491TIP3   OH219478   3.608   1.688   3.198  0.4585 -0.2411  0.1430
 6491TIP3    H119479   3.535   1.747   3.185  0.5581 -0.3115 -0.7884
 6491TIP3    H219480   3.577   1.624   3.262 -0.3992 -0.4497 -0.4745
 6492TIP3   OH219481   3.565   5.540   0.033  0.4318 -0.1526 -0.1510
 6492TIP3    H119482   3.659   5.547   0.019  0.6653  1.0534  1.7101
 6492TIP3    H219483   3.526   5.587  -0.041  1.3859  1.1941  0.1591
 6493TIP3   OH219484   0.147   0.948   4.203 -0.2207  0.0244 -0.1671
 6493TIP3    H119485   0.182   0.859   4.210 -0.3378 -0.0421 -0.4105
 6493TIP3    H219486   0.141   0.978   4.294 -0.8503 -0.4763 -0.0312
 6494TIP3   OH219487   0.812   4.947   3.383  0.4139 -0.2075 -0.3893
 6494TIP3    H119488   0.823   4.935   3.289 -0.1914  0.7892 -0.6089
 6494TIP3    H219489   0.764   5.030   3.391  1.8026  0.5284  0.8527
 6495TIP3   OH219490   1.842   3.610   3.403 -0.5720 -0.1070  0.3520
 6495TIP3    H119491   1.888   3.526   3.408 -1.1589 -0.4566 -0.0812
 6495TIP3    H219492   1.770   3.602   3.466 -0.7579 -0.0113  0.1539
 6496TIP3   OH219493   4.067   3.727   1.320 -0.2637 -0.0362 -0.4820
 6496TIP3    H119494   4.046   3.772   1.403 -0.3506 -0.2960 -0.3631
 6496TIP3    H219495   4.162   3.734   1.312 -0.1151 -1.0652  0.2482
 6497TIP3   OH219496   5.667   3.237   0.739  0.3910 -0.0262 -0.5712
 6497TIP3    H119497   5.603   3.283   0.686 -1.1774 -0.9601  0.4481
 6497TIP3    H219498   5.643   3.145   0.732  1.6700 -0.4137 -0.2155
 6498TIP3   OH219499   0.526   1.066   1.106  0.4538 -0.7449 -0.2197
 6498TIP3    H119500   0.579   1.110   1.173  0.3230 -1.6185  0.4741
 6498TIP3    H219501   0.439   1.103   1.117  0.8071  0.4137 -1.1081
 6499TIP3   OH219502   2.467   1.989   3.260 -0.2979  0.1576 -0.4330
 6499TIP3    H119503   2.392   1.935   3.287  1.1147 -1.7333 -0.0143
 6499TIP3    H219504   2.476   2.053   3.330 -1.4992  0.4174 -0.4883
 6500TIP3   OH219505   3.510   5.955   1.575 -0.0770 -0.3869  0.2331
 6500TIP3    H119506   3.501   5.869   1.615 -0.1119  0.1382  1.3920
 6500TIP3    H219507   3.484   6.016   1.644  0.5667  0.5794 -0.3627
 6501TIP3   OH219508   3.843   2.267   1.063 -0.0953 -0.0715  0.0412
 6501TIP3    H119509   3.753   2.294   1.084 -0.0251 -0.2172  0.5410
 6501TIP3    H219510   3.897   2.309   1.130  0.3944  1.2370 -1.1228
 6502TIP3   OH219511   5.485   3.857   2.085 -0.0023 -0.0670 -1.0414
 6502TIP3    H119512   5.433   3.935   2.103 -0.2407 -0.5838  0.5735
 6502TIP3    H219513   5.429   3.803   2.028 -0.8917 -0.2267 -0.0362
 6503TIP3   OH219514   4.372   4.463   1.675 -0.0992  0.1769 -0.6474
 6503TIP3    H119515   4.318   4.525   1.724 -1.0183  0.0680 -1.4924
 6503TIP3    H219516   4.450   4.451   1.729 -1.1896 -0.1403  0.9171
 6504TIP3   OH219517   5.766   0.276   0.174  0.2792  0.3233 -0.0497
 6504TIP3    H119518   5.723   0.217   0.112 -0.0331  0.6696 -0.1676
 6504TIP3    H219519   5.791   0.219   0.247 -1.5979  0.3177  0.6430
 6505TIP3   OH219520   0.889   1.176   4.496 -0.5380 -0.1247  0.6417
 6505TIP3    H119521   0.803   1.135   4.493 -0.1658 -0.9523  1.0598
 6505TIP3    H219522   0.871   1.270   4.499 -1.3890 -0.0939 -2.2743
 6506TIP3   OH219523   1.927   5.232   2.129 -0.2965  0.5096 -0.4554
 6506TIP3    H119524   1.845   5.188   2.107  1.3487 -2.0077 -1.9836
 6506TIP3    H219525   1.942   5.211   2.221 -1.3045  0.9723 -0.1716
 6507TIP3   OH219526   2.175   3.471   4.664  0.0967  0.5032 -0.0815
 6507TIP3    H119527   2.182   3.565   4.645 -1.6242  1.0097  1.4971
 6507TIP3    H219528   2.242   3.456   4.731  0.6158  0.5182 -0.5916
 6508TIP3   OH219529   4.443   3.339   4.649  0.2271  0.2040 -0.0350
 6508TIP3    H119530   4.464   3.248   4.672  0.8025  0.0848 -0.9620
 6508TIP3    H219531   4.524   3.373   4.612  0.5093  1.6056  1.7083
 6509TIP3   OH219532   6.319   3.539   4.533 -0.1075 -0.1905 -0.3294
 6509TIP3    H119533   6.369   3.596   4.592 -0.3274 -0.6631  0.3311
 6509TIP3    H219534   6.235   3.583   4.523 -1.3304 -1.6523  2.3879
 6510TIP3   OH219535   2.345   3.620   5.127  0.5696  0.0833 -0.6116
 6510TIP3    H119536   2.357   3.700   5.177  0.0320  0.6556 -1.3639
 6510TIP3    H219537   2.434   3.592   5.104  0.7729  0.2895 -0.0726
 6511TIP3   OH219538   4.154   2.347   1.591 -0.5069 -0.2336 -0.4705
 6511TIP3    H119539   4.123   2.437   1.586 -0.0323 -0.0901 -0.8459
 6511TIP3    H219540   4.096   2.306   1.656  0.3679  0.7761  1.0178
 6512TIP3   OH219541   0.805   3.039   4.644  0.1666  0.0684  0.1149
 6512TIP3    H119542   0.740   3.109   4.650  1.2678  1.4725 -2.5295
 6512TIP3    H219543   0.760   2.969   4.597  0.2754  0.7348 -1.0254
 6513TIP3   OH219544   0.801   3.285   1.056 -0.1426  0.3996 -0.1145
 6513TIP3    H119545   0.844   3.213   1.009 -0.9031  0.1603 -0.4772
 6513TIP3    H219546   0.824   3.363   1.006 -0.3002  0.2436 -0.4430
 6514TIP3   OH219547   4.680   1.527   2.699  0.3880  0.3717 -0.4951
 6514TIP3    H119548   4.661   1.602   2.756  1.6153  1.3483 -1.3173
 6514TIP3    H219549   4.765   1.548   2.659 -0.7397  0.1462 -3.2824
 6515TIP3   OH219550   0.425   0.490   0.707 -0.7430  0.5221 -0.4845
 6515TIP3    H119551   0.368   0.563   0.683  0.8454  1.4821 -1.4933
 6515TIP3    H219552   0.511   0.530   0.722 -0.4030 -0.8214  1.4516
 6516TIP3   OH219553   3.487   2.783   2.011 -0.1576  0.0269 -0.3367
 6516TIP3    H119554   3.447   2.696   2.019  0.9944 -0.4653  0.2965
 6516TIP3    H219555   3.420   2.843   2.040 -0.8211 -0.6898 -0.3532
 6517TIP3   OH219556   5.502   3.234   1.705 -0.4887 -0.8565 -0.1563
 6517TIP3    H119557   5.526   3.251   1.614 -0.1029 -1.9628 -0.2794
 6517TIP3    H219558   5.575   3.182   1.740 -0.5931 -0.3857  0.8092
 6518TIP3   OH219559   4.083   3.537   5.083 -0.2840  0.6944 -0.1936
 6518TIP3    H119560   4.145   3.505   5.149 -0.4558 -0.3003 -0.4943
 6518TIP3    H219561   4.051   3.620   5.118  0.5765  0.7997  0.3705
 6519TIP3   OH219562   3.642   0.671   5.050 -0.1224 -0.2342  0.0940
 6519TIP3    H119563   3.660   0.584   5.016 -1.2213  0.1144 -1.4825
 6519TIP3    H219564   3.682   0.731   4.987 -0.6957  0.4190  0.3317
 6520TIP3   OH219565   5.623   5.333   5.117 -0.0071 -0.1544 -0.1655
 6520TIP3    H119566   5.589   5.300   5.034  0.8003  0.6136 -0.8154
 6520TIP3    H219567   5.705   5.286   5.130 -1.1951 -1.9740  1.3816
 6521TIP3   OH219568   5.695   2.152   5.016 -0.0725 -0.4904  0.1454
 6521TIP3    H119569   5.636   2.083   4.984  2.0771 -0.5278 -4.4773
 6521TIP3    H219570   5.771   2.105   5.049 -0.6454 -0.3507  1.7230
 6522TIP3   OH219571   4.641   5.362   1.224  0.3352 -0.4798 -0.2867
 6522TIP3    H119572   4.564   5.315   1.257 -0.2284 -0.1808 -1.1479
 6522TIP3    H219573   4.641   5.345   1.130  1.7602 -1.0917 -0.2051
 6523TIP3   OH219574   0.534   0.930   0.790 -0.9505 -0.3714  0.2124
 6523TIP3    H119575   0.592   0.874   0.842 -1.8853 -1.5340  0.0411
 6523TIP3    H219576   0.579   1.014   0.786  0.4167 -1.0567  0.6296
 6524TIP3   OH219577   2.986   5.146   0.442 -0.3415 -0.8584 -0.2221
 6524TIP3    H119578   2.979   5.098   0.525  1.6943 -1.9323 -0.6179
 6524TIP3    H219579   2.938   5.091   0.379 -1.1516 -0.4744  0.0420
 6525TIP3   OH219580   4.116   5.486   4.314  0.5415  0.3733 -0.5279
 6525TIP3    H119581   4.104   5.575   4.347  0.6280  0.7802 -1.5593
 6525TIP3    H219582   4.132   5.497   4.221  0.4908 -0.7338 -0.6802
 6526TIP3   OH219583   5.150   1.849   3.758  0.0117  0.0403  0.6224
 6526TIP3    H119584   5.150   1.793   3.835 -1.1374 -0.1848  0.4805
 6526TIP3    H219585   5.081   1.812   3.701 -0.7272  1.5280  0.4900
 6527TIP3   OH219586   3.727   0.933   1.097 -0.4144 -0.4028 -0.1863
 6527TIP3    H119587   3.688   0.975   1.020 -0.2183 -0.5757 -0.3825
 6527TIP3    H219588   3.661   0.943   1.166 -0.7106 -0.4961 -0.4520
 6528TIP3   OH219589   1.865   0.750   1.952  0.1090 -0.2170  0.5396
 6528TIP3    H119590   1.849   0.750   1.858 -1.7201 -1.5750  0.7891
 6528TIP3    H219591   1.816   0.826   1.984 -0.0717 -0.3130  0.4949
 6529TIP3   OH219592   1.559   2.222   4.095 -0.0481  0.1167  0.3784
 6529TIP3    H119593   1.609   2.303   4.103 -0.0336  0.3507 -1.6273
 6529TIP3    H219594   1.612   2.166   4.039 -1.1968 -0.2989 -0.3305
 6530TIP3   OH219595   6.044   0.413   4.963  0.1966  0.2253  0.2314
 6530TIP3    H119596   6.125   0.433   4.917 -0.0189 -0.2424 -0.3626
 6530TIP3    H219597   6.072   0.371   5.045  0.5433 -0.9014 -0.4400
 6531TIP3   OH219598   1.797   3.250   4.454  0.6804 -0.4160  0.2963
 6531TIP3    H119599   1.804   3.344   4.469  0.1425 -0.2491 -0.5030
 6531TIP3    H219600   1.883   3.225   4.421  0.8278 -0.2154  0.5205
 6532TIP3   OH219601   0.904   4.225   0.890  0.1943  0.0588 -0.0870
 6532TIP3    H119602   0.906   4.304   0.943  0.9076 -0.9091  1.3999
 6532TIP3    H219603   0.842   4.168   0.935  2.4103 -1.6194  1.0216
 6533TIP3   OH219604   2.648   0.755   4.112  0.0124 -0.4204  0.3574
 6533TIP3    H119605   2.575   0.732   4.055 -1.4069 -0.2487  2.0241
 6533TIP3    H219606   2.659   0.850   4.100 -1.8853  0.0810  2.0639
 6534TIP3   OH219607   4.603   5.975   3.463 -0.3010 -0.1113  0.0343
 6534TIP3    H119608   4.591   5.976   3.558  0.5319 -1.5429  0.1812
 6534TIP3    H219609   4.528   5.925   3.430 -1.7296  2.0660 -0.3217
 6535TIP3   OH219610   0.081   1.480   4.646 -0.6128 -0.2558 -0.2649
 6535TIP3    H119611   0.166   1.492   4.602  0.3934 -1.7708  1.1671
 6535TIP3    H219612   0.063   1.566   4.685 -0.0156  0.2343 -1.0247
 6536TIP3   OH219613   3.190   3.946   2.786 -0.7535 -0.2586 -0.5694
 6536TIP3    H119614   3.127   3.910   2.848 -0.1621 -0.6903 -0.2089
 6536TIP3    H219615   3.136   3.983   2.716 -1.3848 -2.8233 -1.5237
 6537TIP3   OH219616   4.265   4.899   4.365 -0.0744  0.1078 -0.0601
 6537TIP3    H119617   4.170   4.887   4.366 -0.3004  1.1782  3.2285
 6537TIP3    H219618   4.300   4.810   4.369 -0.9279 -0.2746 -0.6916
 6538TIP3   OH219619   4.765   1.921   2.222  0.4062 -0.0702 -0.2017
 6538TIP3    H119620   4.708   1.846   2.239  0.1784 -0.3558 -2.0588
 6538TIP3    H219621   4.781   1.919   2.128 -0.0283  2.5141 -0.4288
 6539TIP3   OH219622   3.235   3.241   0.422  0.3760 -0.1145  0.2144
 6539TIP3    H119623   3.257   3.334   0.425 -1.6756  0.4360 -0.0685
 6539TIP3    H219624   3.149   3.238   0.379  0.7164 -2.2114 -0.4508
 6540TIP3   OH219625   4.964   1.274   3.842  0.1198 -0.6849  0.1137
 6540TIP3    H119626   4.906   1.338   3.884  1.7677  0.5914  0.5641
 6540TIP3    H219627   4.979   1.310   3.755  0.6533 -0.7069  0.1934
 6541TIP3   OH219628   4.456   3.181   3.500  0.0363 -0.0460 -0.1277
 6541TIP3    H119629   4.536   3.232   3.514  0.1967  0.0562 -1.3428
 6541TIP3    H219630   4.386   3.246   3.494 -0.1213 -0.1229  0.6886
 6542TIP3   OH219631   0.509   3.501   3.990 -0.8657  0.0955 -0.5252
 6542TIP3    H119632   0.496   3.591   3.961 -1.2547  0.4183  0.5861
 6542TIP3    H219633   0.434   3.483   4.047  0.3626 -0.1126  1.1105
 6543TIP3   OH219634   1.760   5.247   1.433  0.3488  0.4795  0.0995
 6543TIP3    H119635   1.745   5.154   1.415 -0.5695  0.9668 -2.0774
 6543TIP3    H219636   1.855   5.258   1.429  0.5995 -0.6088  2.0175
 6544TIP3   OH219637   1.192   3.856   1.261  0.2955  0.1064  0.0382
 6544TIP3    H119638   1.102   3.876   1.285  0.4800  0.8883  0.1138
 6544TIP3    H219639   1.245   3.908   1.321  0.8372 -1.4953  1.0023
 6545TIP3   OH219640   1.320   1.433   5.078 -0.6681 -0.0453 -0.3504
 6545TIP3    H119641   1.301   1.510   5.024 -0.3526 -0.0431 -0.4563
 6545TIP3    H219642   1.242   1.378   5.069 -0.3140 -0.3852 -1.3894
 6546TIP3   OH219643   3.547   2.490   4.085 -0.2704  0.2809 -0.1796
 6546TIP3    H119644   3.505   2.520   4.165  0.8284 -0.3871  0.6779
 6546TIP3    H219645   3.512   2.402   4.071  2.4019 -1.2985  1.8710
 6547TIP3   OH219646   0.526   5.567   2.951 -0.5822 -0.5715  0.8704
 6547TIP3    H119647   0.447   5.550   3.003  0.1478 -0.5093  2.0301
 6547TIP3    H219648   0.598   5.540   3.008  0.2543 -0.3661 -0.0700
 6548TIP3   OH219649   0.714   1.214   2.469  0.1629 -0.4981 -0.5394
 6548TIP3    H119650   0.808   1.197   2.472  0.2166 -0.0479  1.3430
 6548TIP3    H219651   0.674   1.130   2.492  0.0747 -0.7000 -1.3787
 6549TIP3   OH219652   5.151   0.614   4.415 -0.2296 -0.5289 -0.1750
 6549TIP3    H119653   5.187   0.665   4.488 -2.3497 -0.5290  0.9589
 6549TIP3    H219654   5.073   0.663   4.387 -1.5011 -2.3400 -0.0109
 6550TIP3   OH219655   0.421   2.398   0.601 -0.2796  0.0485  0.1505
 6550TIP3    H119656   0.438   2.454   0.525 -0.4959  1.6814  1.2570
 6550TIP3    H219657   0.333   2.422   0.629  0.6186  1.0916  2.2222
 6551TIP3   OH219658   2.883   3.645   1.176  0.0394 -0.4316 -0.0534
 6551TIP3    H119659   2.800   3.598   1.164 -0.8108  1.1827 -0.7405
 6551TIP3    H219660   2.943   3.578   1.208 -1.1727 -1.9504 -0.7845
 6552TIP3   OH219661   0.680   3.241   3.061 -0.0286 -0.1342 -0.3677
 6552TIP3    H119662   0.682   3.189   2.981  0.0702  0.4171 -0.7320
 6552TIP3    H219663   0.587   3.258   3.076 -0.0874 -0.7119 -0.0449
 6553TIP3   OH219664   5.131   0.073   4.369  0.2131  0.3520  0.1407
 6553TIP3    H119665   5.069   0.012   4.329 -0.8625  0.6294  1.3154
 6553TIP3    H219666   5.097   0.160   4.344  1.8704  0.5342 -1.7332
 6554TIP3   OH219667   3.031   4.426   0.898  0.1288 -0.1905 -0.2538
 6554TIP3    H119668   2.958   4.372   0.868 -0.1524  0.5249 -0.8696
 6554TIP3    H219669   2.991   4.493   0.953  0.2852  0.3309 -0.7633
 6555TIP3   OH219670   5.781   5.644   3.491 -0.1358  0.3386 -0.3179
 6555TIP3    H119671   5.832   5.647   3.410  1.4871  0.6224  0.6901
 6555TIP3    H219672   5.777   5.735   3.520 -0.8264  0.2559 -0.1331
 6556TIP3   OH219673   2.899   0.514   3.289  0.0612 -0.0036 -0.4045
 6556TIP3    H119674   2.831   0.520   3.356  2.1327  0.5799  1.8025
 6556TIP3    H219675   2.865   0.563   3.215 -3.0339 -2.0647 -0.5264
 6557TIP3   OH219676   2.980   5.865   0.175 -0.2338  0.0966 -0.3387
 6557TIP3    H119677   2.992   5.959   0.162  0.0903  0.2487  0.8846
 6557TIP3    H219678   3.067   5.833   0.200 -0.1133 -0.7227 -1.6884
 6558TIP3   OH219679   4.705   2.660   3.592 -0.1767  0.1301  0.3404
 6558TIP3    H119680   4.761   2.708   3.531 -0.3148  0.8294  0.7618
 6558TIP3    H219681   4.666   2.591   3.538  1.8103 -0.9885  0.2391
 6559TIP3   OH219682   5.347   5.350   2.819 -0.2367  0.5382  0.1215
 6559TIP3    H119683   5.315   5.284   2.881  1.6113  0.2156  0.7978
 6559TIP3    H219684   5.359   5.302   2.737  0.4611  0.1764  0.4289
 6560TIP3   OH219685   2.817   1.824   2.795  0.2776  0.5106  0.7954
 6560TIP3    H119686   2.771   1.874   2.727 -2.4619  1.9502  3.4433
 6560TIP3    H219687   2.884   1.883   2.828 -1.4758  1.7531  2.3770
 6561TIP3   OH219688   1.988   2.026   2.175  0.0273  0.1129  0.4799
 6561TIP3    H119689   1.951   2.058   2.258 -0.2232  0.2245  0.3245
 6561TIP3    H219690   2.050   2.094   2.148  0.6777 -0.2735  0.9628
 6562TIP3   OH219691   4.249   0.305   3.757 -0.0987 -0.2649 -0.2363
 6562TIP3    H119692   4.253   0.217   3.796  0.0966 -1.6135 -3.0080
 6562TIP3    H219693   4.180   0.298   3.691 -0.2759  1.7793 -0.3245
 6563TIP3   OH219694   5.739   0.124   2.112 -0.4057  0.0310 -0.2086
 6563TIP3    H119695   5.654   0.130   2.155 -0.8092  0.0671 -0.9914
 6563TIP3    H219696   5.751   0.030   2.098  0.3321 -0.0980  1.1436
 6564TIP3   OH219697   2.538   0.876   2.990  0.0788  0.1144  0.3041
 6564TIP3    H119698   2.555   0.928   3.069  0.1554  3.9948 -1.9887
 6564TIP3    H219699   2.444   0.859   2.992 -0.1160  1.1337  0.7528
 6565TIP3   OH219700   3.091   5.629   1.022 -0.1659  0.1511 -0.2618
 6565TIP3    H119701   3.079   5.724   1.030  1.9000  0.2600  3.3077
 6565TIP3    H219702   3.017   5.591   1.068 -0.3761  0.0160 -0.6985
 6566TIP3   OH219703   4.043   0.150   1.572 -0.2183 -0.1606  0.2097
 6566TIP3    H119704   4.069   0.230   1.618 -2.0238  0.7209 -0.2001
 6566TIP3    H219705   4.028   0.086   1.641  0.4633  0.0806  0.5952
 6567TIP3   OH219706   1.714   2.919   3.145  0.1911 -0.3547  0.5200
 6567TIP3    H119707   1.703   2.900   3.052 -0.2742  2.4063 -0.0879
 6567TIP3    H219708   1.760   3.002   3.148 -0.2966 -0.0786  2.7517
 6568TIP3   OH219709   5.395   2.502   1.727  0.4244 -0.0051 -0.4551
 6568TIP3    H119710   5.376   2.408   1.727  0.6337 -0.0643 -1.8032
 6568TIP3    H219711   5.471   2.510   1.784 -1.9083 -0.0825  2.9653
 6569TIP3   OH219712   5.442   4.251   0.817  0.0400 -0.3345  0.5531
 6569TIP3    H119713   5.490   4.333   0.829  0.2993 -0.2336 -0.9682
 6569TIP3    H219714   5.449   4.233   0.723  0.9058 -2.6545  0.9875
 6570TIP3   OH219715   3.520   5.112   4.303 -0.1557 -0.0415  0.2281
 6570TIP3    H119716   3.481   5.199   4.307 -1.3201 -0.5131 -0.3522
 6570TIP3    H219717   3.451   5.053   4.333 -0.1335 -0.9643 -1.4064
 6571TIP3   OH219718   6.174   1.825   0.116 -0.3077 -0.1853  0.8506
 6571TIP3    H119719   6.243   1.857   0.174 -0.7289 -1.1451  1.9169
 6571TIP3    H219720   6.107   1.789   0.174 -0.9544 -0.7747 -0.2097
 6572TIP3   OH219721   2.323   1.840   1.284 -0.3399  0.4796 -0.0512
 6572TIP3    H119722   2.347   1.925   1.322  0.5303  0.6880 -1.0140
 6572TIP3    H219723   2.332   1.853   1.190  0.7720 -0.9495 -0.1767
 6573TIP3   OH219724   3.251   2.772   3.080  0.2023 -0.1403  0.3232
 6573TIP3    H119725   3.160   2.761   3.055  0.1575 -3.0702  1.3235
 6573TIP3    H219726   3.250   2.837   3.151 -0.4511  3.1455 -2.4564
 6574TIP3   OH219727   0.475   1.920   1.837 -0.1327 -0.4154 -0.6398
 6574TIP3    H119728   0.535   1.868   1.890  2.5098  1.4614 -1.6234
 6574TIP3    H219729   0.484   2.009   1.870 -1.5035  0.1370 -1.6356
 6575TIP3   OH219730   1.696   4.147   0.672  0.2501 -0.2536  0.1639
 6575TIP3    H119731   1.789   4.170   0.669  0.4362 -0.3236  2.7854
 6575TIP3    H219732   1.695   4.054   0.693 -0.2810  0.2918  3.0054
 6576TIP3   OH219733   2.298   1.179   4.737 -0.4133  0.2182 -0.9976
 6576TIP3    H119734   2.279   1.241   4.807 -0.4522  0.7905 -1.4961
 6576TIP3    H219735   2.324   1.099   4.781  0.1321  0.7494 -0.3374
 6577TIP3   OH219736   0.154   4.331   4.412 -0.0223 -0.0540  0.3874
 6577TIP3    H119737   0.198   4.313   4.495  1.5515  0.2255 -0.3453
 6577TIP3    H219738   0.214   4.390   4.366 -1.8696  1.6015 -0.0553
 6578TIP3   OH219739   3.670   3.722   2.811  0.0571  0.2658 -0.0057
 6578TIP3    H119740   3.621   3.640   2.816  1.1997 -0.4578 -0.3000
 6578TIP3    H219741   3.669   3.756   2.901 -2.2285  1.0624 -0.2592
 6579TIP3   OH219742   3.880   5.335   4.854  0.3412  0.5057  0.4240
 6579TIP3    H119743   3.923   5.409   4.812 -0.2922 -0.1020 -1.3748
 6579TIP3    H219744   3.951   5.273   4.874  0.5399  0.3606 -0.7026
 6580TIP3   OH219745   3.672   4.423   0.812 -0.3903 -0.1834 -0.0680
 6580TIP3    H119746   3.728   4.489   0.771 -2.4280  0.3560 -2.2070
 6580TIP3    H219747   3.660   4.356   0.745 -1.6880 -0.6467  0.5841
 6581TIP3   OH219748   5.645   2.490   2.671 -0.4706  0.5259  0.1986
 6581TIP3    H119749   5.587   2.533   2.734  0.3110  0.4958  0.9545
 6581TIP3    H219750   5.711   2.446   2.725  0.0531  0.2680 -0.6346
 6582TIP3   OH219751   6.018   5.419   1.670  0.0362  0.0130 -0.8925
 6582TIP3    H119752   6.103   5.412   1.626  0.5742  0.6083  0.0188
 6582TIP3    H219753   5.972   5.488   1.622  0.6028  0.6253 -0.5801
 6583TIP3   OH219754   4.647   0.552   4.176  0.1688 -0.1882  1.0986
 6583TIP3    H119755   4.707   0.526   4.106  0.2704 -0.0385  1.1297
 6583TIP3    H219756   4.575   0.490   4.169 -0.0071  0.0631  0.6121
 6584TIP3   OH219757   0.520   1.394   5.131 -0.8492  0.4605  0.2726
 6584TIP3    H119758   0.540   1.457   5.200  1.1842  0.4980 -0.2975
 6584TIP3    H219759   0.514   1.447   5.051  0.7761  0.0007 -0.1938
 6585TIP3   OH219760   3.206   3.303   1.077  0.3478 -1.2495  0.1337
 6585TIP3    H119761   3.188   3.293   0.983  0.1311  0.8219 -0.0927
 6585TIP3    H219762   3.296   3.335   1.080 -0.3385  0.7843  0.4558
 6586TIP3   OH219763   3.983   2.202   4.250 -0.0911  0.1027  0.0305
 6586TIP3    H119764   4.055   2.179   4.191  0.6701  4.1550 -0.8928
 6586TIP3    H219765   3.904   2.172   4.204  0.7446 -0.3774 -1.1351
 6587TIP3   OH219766   1.980   2.217   3.458 -0.2086  0.2736 -0.4321
 6587TIP3    H119767   1.980   2.289   3.396  1.2660  1.4419  0.8652
 6587TIP3    H219768   1.947   2.255   3.540  2.8456  0.2220  0.9650
 6588TIP3   OH219769   0.180   5.067   3.260 -0.6660  0.3179 -0.2767
 6588TIP3    H119770   0.210   5.069   3.170  0.6568 -1.5046  0.0654
 6588TIP3    H219771   0.237   5.128   3.306  0.4802 -0.7411 -0.2277
 6589TIP3   OH219772   1.605   1.594   1.553  0.1879 -0.0569 -0.0644
 6589TIP3    H119773   1.646   1.681   1.547 -1.2484  0.6199 -0.4784
 6589TIP3    H219774   1.670   1.535   1.516  0.6894  1.0219 -0.9789
 6590TIP3   OH219775   0.025   4.626   4.801 -0.2103  0.4225 -0.2176
 6590TIP3    H119776   0.022   4.612   4.895  1.4486  4.0958  0.5956
 6590TIP3    H219777  -0.032   4.702   4.787  0.8655  0.9708 -1.8771
 6591TIP3   OH219778   1.995   3.380   3.470  0.4758  0.1166  0.6021
 6591TIP3    H119779   1.972   3.323   3.544  1.8914  0.0618  1.0318
 6591TIP3    H219780   2.084   3.409   3.489  0.4261  1.0713 -0.5001
 6592TIP3   OH219781   1.059   4.749   1.870 -0.3380  0.1959  0.1283
 6592TIP3    H119782   1.029   4.835   1.899  1.1638  0.9143 -0.3361
 6592TIP3    H219783   1.094   4.764   1.782  3.0881 -0.1104  1.2870
 6593TIP3   OH219784   5.122   2.097   3.544  0.0861 -0.1262  0.1634
 6593TIP3    H119785   5.206   2.137   3.566 -0.6528  0.1623  2.8352
 6593TIP3    H219786   5.142   2.005   3.527  0.8365 -0.3449  2.0202
 6594TIP3   OH219787   5.467   4.130   4.823 -0.6768 -0.0475  0.7154
 6594TIP3    H119788   5.556   4.096   4.837 -1.2753 -2.0690 -0.1487
 6594TIP3    H219789   5.477   4.225   4.831  1.8522 -0.1014 -0.7658
 6595TIP3   OH219790   3.523   4.738   0.408  0.0361 -0.1962  0.0279
 6595TIP3    H119791   3.611   4.762   0.379 -0.3964  1.1360 -0.2253
 6595TIP3    H219792   3.528   4.644   0.424  1.9083  0.1057  1.4999
 6596TIP3   OH219793   4.205   5.537   4.065  0.5677  0.0111  0.2225
 6596TIP3    H119794   4.185   5.608   4.003 -0.6105 -0.5619 -0.0838
 6596TIP3    H219795   4.157   5.461   4.031  2.4105 -1.1685  0.1115
 6597TIP3   OH219796   2.444   3.263   2.903 -0.6606 -0.0137 -0.9122
 6597TIP3    H119797   2.388   3.187   2.919  0.0898 -0.3704  0.1167
 6597TIP3    H219798   2.390   3.322   2.850 -1.9838 -0.3504  0.0273
 6598TIP3   OH219799   5.154   4.752   4.745 -0.5726 -0.3729  0.7051
 6598TIP3    H119800   5.156   4.838   4.702 -0.1725 -0.4412  0.5801
 6598TIP3    H219801   5.063   4.740   4.770 -0.9438 -0.6396 -0.7185
 6599TIP3   OH219802   5.262   5.332   0.533  0.5645  0.3085  0.0863
 6599TIP3    H119803   5.241   5.294   0.618  2.6299  0.1497  0.5691
 6599TIP3    H219804   5.305   5.261   0.485 -0.0721  0.5659 -0.9183
 6600TIP3   OH219805   0.806   0.230   0.805 -0.3554  0.0371  0.0689
 6600TIP3    H119806   0.859   0.150   0.796  0.5500  0.5149  0.9746
 6600TIP3    H219807   0.802   0.266   0.716  1.1014  0.1375  0.0110
 6601TIP3   OH219808   5.709   4.193   2.116 -0.2984 -0.2772 -0.1865
 6601TIP3    H119809   5.690   4.280   2.081  1.1598  0.4321  0.7108
 6601TIP3    H219810   5.646   4.181   2.187  0.7470  0.9272  1.0084
 6602TIP3   OH219811   3.410   2.147   1.005 -0.0239  0.0886  0.2811
 6602TIP3    H119812   3.337   2.087   1.006  0.3108 -0.3277  0.0125
 6602TIP3    H219813   3.380   2.221   0.951 -1.2291  1.2060  2.3377
 6603TIP3   OH219814   5.217   4.483   1.387 -0.3340 -0.4378 -0.2372
 6603TIP3    H119815   5.137   4.482   1.439 -0.2237 -2.1244 -0.0631
 6603TIP3    H219816   5.206   4.412   1.324  0.1734  0.6096 -1.5614
 6604TIP3   OH219817   2.194   1.813   0.911 -0.3135  0.4503  0.3814
 6604TIP3    H119818   2.244   1.887   0.946 -0.2348  0.7935 -0.4326
 6604TIP3    H219819   2.103   1.834   0.930 -0.1912 -0.0716  1.6734
 6605TIP3   OH219820   4.763   0.722   3.017  0.3474  0.6736 -0.1187
 6605TIP3    H119821   4.799   0.704   3.104 -0.5134 -0.7076 -0.0226
 6605TIP3    H219822   4.680   0.767   3.034 -0.0942 -0.0885 -0.1775
 6606TIP3   OH219823   4.501   2.982   1.916 -0.8200  0.2388  0.1289
 6606TIP3    H119824   4.529   3.030   1.838  0.3946 -0.4001  0.1393
 6606TIP3    H219825   4.406   2.990   1.916 -0.9500 -0.5856 -1.9816
 6607TIP3   OH219826   2.326   0.244   1.376 -0.3878 -0.4811  0.2349
 6607TIP3    H119827   2.405   0.254   1.322 -1.5048  0.4095 -1.3090
 6607TIP3    H219828   2.359   0.244   1.466  1.5630 -2.1514 -0.3932
 6608TIP3   OH219829   5.011   0.371   0.763  0.1982  0.3305 -0.0345
 6608TIP3    H119830   5.086   0.428   0.779  0.3266 -0.4704  2.8247
 6608TIP3    H219831   4.936   0.421   0.795  0.1266 -0.4867  1.1460
 6609TIP3   OH219832   4.161   4.551   2.352 -0.3664 -0.8338 -0.2721
 6609TIP3    H119833   4.095   4.482   2.359 -0.0816 -1.0370  0.5781
 6609TIP3    H219834   4.157   4.597   2.436 -1.7422  1.3046 -1.4351
 6610TIP3   OH219835   1.903   4.375   1.477 -0.0697 -0.2604 -0.0530
 6610TIP3    H119836   1.869   4.315   1.411  0.3116  0.9395 -1.4077
 6610TIP3    H219837   1.984   4.408   1.439 -0.4021  1.2857  0.5081
 6611TIP3   OH219838   2.142   4.919   2.229 -0.1365 -0.0110  0.4307
 6611TIP3    H119839   2.117   5.007   2.258  0.3052  0.2038  0.1624
 6611TIP3    H219840   2.237   4.921   2.225 -0.1744  0.5392 -2.6822
 6612TIP3   OH219841   4.959   2.651   2.093 -0.1841 -0.1663  0.3826
 6612TIP3    H119842   4.984   2.592   2.165  0.4222 -0.6428 -0.2020
 6612TIP3    H219843   4.864   2.651   2.094 -0.1947  0.5144  1.7324
 6613TIP3   OH219844   4.808   1.397   1.534  0.4899  0.6221  0.5231
 6613TIP3    H119845   4.894   1.438   1.547  0.5821 -0.0970  2.4170
 6613TIP3    H219846   4.753   1.467   1.499  1.1720  1.8261  1.7820
 6614TIP3   OH219847   5.275   5.816   4.149 -0.5452  0.4217 -0.4535
 6614TIP3    H119848   5.320   5.743   4.105 -0.8110  0.2646 -0.4681
 6614TIP3    H219849   5.270   5.790   4.241  1.0550  1.2687 -0.0958
 6615TIP3   OH219850   4.001   5.454   0.422 -0.4111 -0.1240  0.0084
 6615TIP3    H119851   3.933   5.451   0.354 -0.0454 -2.1383 -0.3174
 6615TIP3    H219852   3.952   5.473   0.503 -1.3706 -1.4244 -0.2389
 6616TIP3   OH219853   2.042   1.997   0.046 -0.1003 -0.0367 -0.1890
 6616TIP3    H119854   1.990   2.077   0.048 -0.9228 -0.5403 -0.7285
 6616TIP3    H219855   2.128   2.025   0.016  0.0024  0.8334  0.8329
 6617TIP3   OH219856   0.097   1.271   0.797  0.4564  0.4613 -0.1040
 6617TIP3    H119857   0.166   1.332   0.771 -3.0683  4.1096 -1.9342
 6617TIP3    H219858   0.053   1.248   0.715  0.0916 -2.7405  0.8489
 6618TIP3   OH219859   3.607   2.841   2.286  0.2847 -0.0809 -0.0476
 6618TIP3    H119860   3.586   2.839   2.193  1.8381 -1.5142 -0.4262
 6618TIP3    H219861   3.602   2.749   2.314  2.6679 -0.1129  0.5434
 6619TIP3   OH219862   5.649   1.155   3.008 -0.0021  0.2772 -0.1066
 6619TIP3    H119863   5.650   1.247   3.035 -3.0386  0.3363  0.0978
 6619TIP3    H219864   5.715   1.113   3.064 -0.7456  1.8059  2.0530
 6620TIP3   OH219865   0.120   4.335   3.892  0.1562 -0.6353  0.2504
 6620TIP3    H119866   0.186   4.368   3.953  0.4735 -1.8122  0.5626
 6620TIP3    H219867   0.061   4.282   3.946 -1.3367  0.7420  0.0618
 6621TIP3   OH219868   4.666   3.499   1.589 -0.2071  0.0952  0.0503
 6621TIP3    H119869   4.754   3.536   1.598 -0.1535 -0.0328  0.0554
 6621TIP3    H219870   4.625   3.515   1.674  0.0711 -0.5179  0.3042
 6622TIP3   OH219871   6.044   1.998   4.878  0.2256 -0.8201  0.8301
 6622TIP3    H119872   6.106   2.070   4.874  1.3285 -1.7781 -0.0663
 6622TIP3    H219873   6.011   2.000   4.968 -1.8778  2.4551  0.1476
 6623TIP3   OH219874   1.520   1.358   0.183  0.3504 -0.0537  0.8679
 6623TIP3    H119875   1.476   1.383   0.102  0.2073  0.1041  0.9925
 6623TIP3    H219876   1.606   1.399   0.177  0.4822 -0.3731  0.6180
 6624TIP3   OH219877   1.193   1.239   1.263  0.5437 -0.6179 -0.2003
 6624TIP3    H119878   1.105   1.223   1.296  1.4121 -0.8473  2.1458
 6624TIP3    H219879   1.215   1.159   1.215 -0.0231 -1.0970  0.3251
 6625TIP3   OH219880   4.049   3.279   4.801 -1.1275 -0.1085 -0.0579
 6625TIP3    H119881   4.128   3.226   4.787 -0.7532  0.2727  0.5536
 6625TIP3    H219882   3.991   3.256   4.729 -0.9566 -1.3233  0.1809
 6626TIP3   OH219883   3.231   2.466   1.650  0.0690  0.1696 -0.3331
 6626TIP3    H119884   3.139   2.489   1.634  0.5743  1.0961 -2.1493
 6626TIP3    H219885   3.275   2.550   1.660  0.4102 -0.2808  2.9020
 6627TIP3   OH219886   4.086   1.995   5.099  0.3402  0.0428 -0.0523
 6627TIP3    H119887   4.109   2.058   5.031  0.8902  1.5647  1.4939
 6627TIP3    H219888   4.169   1.952   5.121  0.8446  1.8816  1.9008
 6628TIP3   OH219889   4.747   5.774   4.597 -0.3352  0.0115 -0.4398
 6628TIP3    H119890   4.707   5.852   4.558 -0.3506 -0.0232 -0.4941
 6628TIP3    H219891   4.687   5.749   4.668  0.4535  0.9435  0.5821
 6629TIP3   OH219892   3.550   3.177   4.595  0.4300  0.2399  0.1569
 6629TIP3    H119893   3.536   3.127   4.515  0.4735  0.0019  0.2961
 6629TIP3    H219894   3.641   3.160   4.619  0.9637  1.7195 -0.6997
 6630TIP3   OH219895   0.683   2.419   3.229 -0.1099 -0.5133  0.2007
 6630TIP3    H119896   0.712   2.485   3.293 -0.4487 -0.5424  0.3862
 6630TIP3    H219897   0.590   2.407   3.247 -0.3861  0.0189 -0.7877
 6631TIP3   OH219898   6.064   2.835   3.373  0.2750  0.2220 -0.0024
 6631TIP3    H119899   6.073   2.928   3.393 -0.5094  0.6527 -1.4574
 6631TIP3    H219900   6.031   2.834   3.283 -0.2933 -1.4470  0.1978
 6632TIP3   OH219901   3.949   3.670   4.195  0.4841 -0.4525 -0.0457
 6632TIP3    H119902   3.859   3.679   4.226 -0.1807 -2.4057 -1.1998
 6632TIP3    H219903   3.976   3.760   4.173 -0.9440  0.2419  0.8783
 6633TIP3   OH219904   0.559   3.653   0.543 -0.2249 -0.0517  0.4306
 6633TIP3    H119905   0.604   3.707   0.609 -2.3006 -0.5905  2.4096
 6633TIP3    H219906   0.625   3.589   0.516  0.0823 -1.4628  3.9800
 6634TIP3   OH219907   6.048   0.457   1.212 -0.2216  0.3266 -0.2441
 6634TIP3    H119908   6.013   0.424   1.295  0.3501  0.6463  0.1284
 6634TIP3    H219909   6.125   0.403   1.195  1.6789  2.4136  1.1773
 6635TIP3   OH219910   2.919   1.205   0.448 -0.1230  0.1343 -0.2185
 6635TIP3    H119911   2.885   1.122   0.415  1.9337 -0.8062 -0.0821
 6635TIP3    H219912   2.917   1.195   0.543  0.9711 -0.1390 -0.2148
 6636TIP3   OH219913   5.829   4.186   0.161  0.0696 -0.6075 -0.1634
 6636TIP3    H119914   5.898   4.130   0.196  0.1218 -0.4366  0.0069
 6636TIP3    H219915   5.837   4.269   0.209  0.9823  0.1028 -1.4711
 6637TIP3   OH219916   4.430   2.008   2.630  0.6461 -0.1970  0.2481
 6637TIP3    H119917   4.363   2.068   2.597 -0.7891 -1.2244  1.1689
 6637TIP3    H219918   4.509   2.061   2.635  0.2002  0.7918 -1.8818
 6638TIP3   OH219919   5.098   0.982   1.230  0.4506  0.2856 -0.0390
 6638TIP3    H119920   5.056   1.047   1.287  1.1723  0.1321  0.6765
 6638TIP3    H219921   5.042   0.905   1.237  0.5585  0.2531  0.4982
 6639TIP3   OH219922   5.359   3.496   1.020  0.0931  0.4138  0.5362
 6639TIP3    H119923   5.312   3.414   1.034  0.4338  0.1806  0.3244
 6639TIP3    H219924   5.413   3.507   1.097  0.8074 -0.0812  0.1157
 6640TIP3   OH219925   1.541   1.030   4.219  0.1922  0.0872 -0.2303
 6640TIP3    H119926   1.512   1.097   4.157  3.7147  0.5545 -1.5901
 6640TIP3    H219927   1.569   1.079   4.296 -2.4077 -0.3682  1.1276
   6.34094   5.97830   5.17737   0.00000   0.00000  -2.11365   0.00000  -2.11365  -2.98915
