Title t=  39.00000 step= 19500
19927
    1ASP      N    1   2.142   0.456   2.664
    1ASP    HT1    2   2.089   0.447   2.753
    1ASP    HT2    3   2.185   0.365   2.638
    1ASP    HT3    4   2.066   0.468   2.593
    1ASP     CA    5   2.234   0.576   2.666
    1ASP     HA    6   2.314   0.565   2.737
    1ASP     CB    7   2.274   0.605   2.520
    1ASP    HB1    8   2.187   0.617   2.452
    1ASP    HB2    9   2.334   0.521   2.480
    1ASP     CG   10   2.374   0.714   2.509
    1ASP    OD1   11   2.427   0.767   2.612
    1ASP    OD2   12   2.411   0.741   2.394
    1ASP      C   13   2.140   0.679   2.728
    1ASP      O   14   2.033   0.648   2.784
    2ALA      N   15   2.160   0.811   2.718
    2ALA     HN   16   2.249   0.837   2.681
    2ALA     CA   17   2.083   0.924   2.781
    2ALA     HA   18   2.060   0.897   2.883
    2ALA     CB   19   2.158   1.052   2.761
    2ALA    HB1   20   2.193   1.049   2.656
    2ALA    HB2   21   2.249   1.038   2.823
    2ALA    HB3   22   2.107   1.148   2.782
    2ALA      C   23   1.944   0.942   2.722
    2ALA      O   24   1.911   0.904   2.609
    3ASP      N   25   1.858   0.995   2.806
    3ASP     HN   26   1.888   1.045   2.887
    3ASP     CA   27   1.716   1.008   2.779
    3ASP     HA   28   1.676   0.910   2.757
    3ASP     CB   29   1.647   1.058   2.905
    3ASP    HB1   30   1.537   1.062   2.888
    3ASP    HB2   31   1.677   1.160   2.935
    3ASP     CG   32   1.671   0.960   3.021
    3ASP    OD1   33   1.685   0.835   2.998
    3ASP    OD2   34   1.650   1.002   3.135
    3ASP      C   35   1.699   1.110   2.667
    3ASP      O   36   1.775   1.207   2.632
    4GLY      N   37   1.589   1.095   2.596
    4GLY     HN   38   1.533   1.017   2.621
    4GLY     CA   39   1.531   1.197   2.504
    4GLY    HA1   40   1.444   1.147   2.463
    4GLY    HA2   41   1.607   1.205   2.427
    4GLY      C   42   1.497   1.336   2.558
    4GLY      O   43   1.503   1.354   2.681
    5PRO      N   44   1.435   1.426   2.482
    5PRO     CD   45   1.436   1.418   2.327
    5PRO    HD1   46   1.373   1.331   2.298
    5PRO    HD2   47   1.542   1.403   2.298
    5PRO     CA   48   1.360   1.535   2.539
    5PRO     HA   49   1.432   1.599   2.587
    5PRO     CB   50   1.294   1.599   2.416
    5PRO    HB1   51   1.293   1.710   2.414
    5PRO    HB2   52   1.188   1.567   2.412
    5PRO     CG   53   1.363   1.548   2.284
    5PRO    HG1   54   1.290   1.539   2.201
    5PRO    HG2   55   1.432   1.628   2.251
    5PRO      C   56   1.252   1.488   2.642
    5PRO      O   57   1.200   1.371   2.645
    6GLY      N   58   1.219   1.584   2.726
    6GLY     HN   59   1.266   1.672   2.731
    6GLY     CA   60   1.097   1.594   2.810
    6GLY    HA1   61   1.098   1.682   2.872
    6GLY    HA2   62   1.085   1.507   2.873
    6GLY      C   63   0.957   1.597   2.739
    6GLY      O   64   0.951   1.597   2.613
    7ASP      N   65   0.842   1.613   2.811
    7ASP     HN   66   0.854   1.624   2.910
    7ASP     CA   67   0.712   1.657   2.751
    7ASP     HA   68   0.687   1.578   2.681
    7ASP     CB   69   0.598   1.671   2.852
    7ASP    HB1   70   0.496   1.705   2.823
    7ASP    HB2   71   0.627   1.749   2.926
    7ASP     CG   72   0.576   1.540   2.932
    7ASP    OD1   73   0.518   1.552   3.044
    7ASP    OD2   74   0.606   1.432   2.886
    7ASP      C   75   0.720   1.787   2.673
    7ASP      O   76   0.782   1.885   2.724
    8PRO      N   77   0.653   1.800   2.553
    8PRO     CD   78   0.625   1.693   2.462
    8PRO    HD1   79   0.539   1.629   2.491
    8PRO    HD2   80   0.707   1.619   2.447
    8PRO     CA   81   0.618   1.933   2.499
    8PRO     HA   82   0.708   1.990   2.481
    8PRO     CB   83   0.547   1.893   2.371
    8PRO    HB1   84   0.548   1.981   2.304
    8PRO    HB2   85   0.439   1.870   2.387
    8PRO     CG   86   0.610   1.758   2.323
    8PRO    HG1   87   0.544   1.696   2.259
    8PRO    HG2   88   0.706   1.776   2.269
    8PRO      C   89   0.531   2.008   2.601
    8PRO      O   90   0.465   1.947   2.682
    9ASP      N   91   0.549   2.141   2.608
    9ASP     HN   92   0.627   2.169   2.552
    9ASP     CA   93   0.476   2.240   2.690
    9ASP     HA   94   0.502   2.221   2.794
    9ASP     CB   95   0.531   2.377   2.651
    9ASP    HB1   96   0.491   2.459   2.713
    9ASP    HB2   97   0.513   2.413   2.547
    9ASP     CG   98   0.683   2.384   2.685
    9ASP    OD1   99   0.722   2.330   2.785
    9ASP    OD2  100   0.761   2.453   2.614
    9ASP      C  101   0.322   2.231   2.671
    9ASP      O  102   0.280   2.208   2.559
   10ALA      N  103   0.237   2.240   2.780
   10ALA     HN  104   0.281   2.246   2.869
   10ALA     CA  105   0.098   2.250   2.773
   10ALA     HA  106   0.066   2.153   2.737
   10ALA     CB  107   0.040   2.272   2.918
   10ALA    HB1  108   0.069   2.374   2.951
   10ALA    HB2  109   0.077   2.197   2.991
   10ALA    HB3  110  -0.070   2.271   2.928
   10ALA      C  111   0.039   2.357   2.681
   10ALA      O  112   0.088   2.469   2.665
   11GLY      N  113   6.273   2.325   2.604
   11GLY     HN  114   6.232   2.234   2.598
   11GLY     CA  115   6.209   2.424   2.510
   11GLY    HA1  116   6.265   2.515   2.497
   11GLY    HA2  117   6.111   2.446   2.549
   11GLY      C  118   6.193   2.365   2.366
   11GLY    OT1  119   6.300   2.347   2.300
   11GLY    OT2  120   6.078   2.350   2.318
   12SOD    SOD  121   5.071   3.356   4.397
   13SOD    SOD  122   0.335   2.211   4.707
   14SOD    SOD  123   0.595   0.568   2.678
   15SOD    SOD  124   6.220   1.112   1.407
   16SOD    SOD  125   1.609   2.830   2.500
   17SOD    SOD  126   3.142   2.278   3.577
   18SOD    SOD  127   1.499   3.507   1.563
   19SOD    SOD  128   6.015   0.472   4.857
   20SOD    SOD  129   6.298   4.723   1.764
   21SOD    SOD  130   4.360   3.958   3.412
   22SOD    SOD  131   0.478   1.987   1.707
   23SOD    SOD  132   1.884   5.142   1.202
   24SOD    SOD  133   3.172   0.279   2.766
   25SOD    SOD  134   0.465   0.397   1.732
   26SOD    SOD  135   1.687   4.305   2.192
   27SOD    SOD  136   0.270   3.397   2.963
   28SOD    SOD  137   0.379   5.847   3.814
   29SOD    SOD  138   6.128   2.993   0.033
   30SOD    SOD  139   1.655   1.779   3.734
   31SOD    SOD  140   3.057   3.941   0.828
   32SOD    SOD  141   4.805   0.247   0.287
   33SOD    SOD  142   5.231   1.010   4.498
   34CLA    CLA  143   1.930   2.508   3.504
   35CLA    CLA  144   0.778   1.811   1.104
   36CLA    CLA  145   6.294   5.190   2.427
   37CLA    CLA  146   3.046   3.071   3.225
   38CLA    CLA  147   3.580   1.623   4.562
   39CLA    CLA  148   2.917   5.976   1.655
   40CLA    CLA  149   1.803   0.954   4.677
   41CLA    CLA  150   2.448   1.481   0.345
   42CLA    CLA  151   6.206   3.748   0.727
   43CLA    CLA  152   5.004   4.244   2.777
   44CLA    CLA  153   4.956   1.248   0.196
   45CLA    CLA  154   6.052   3.088   3.859
   46CLA    CLA  155   4.644   0.474   0.614
   47CLA    CLA  156   5.949   1.336   1.817
   48CLA    CLA  157   3.093   0.187   4.409
   49CLA    CLA  158   0.471   2.469   1.945
   50CLA    CLA  159   5.166   0.426   4.645
   51CLA    CLA  160   2.387   5.645   5.066
   52TIP3   OH2  161   0.394   3.285   1.510
   52TIP3    H1  162   0.441   3.210   1.473
   52TIP3    H2  163   0.366   3.254   1.597
   53TIP3   OH2  164   0.921   2.990   0.239
   53TIP3    H1  165   0.832   2.973   0.269
   53TIP3    H2  166   0.944   3.074   0.279
   54TIP3   OH2  167   1.236   0.303   2.371
   54TIP3    H1  168   1.186   0.310   2.452
   54TIP3    H2  169   1.323   0.337   2.394
   55TIP3   OH2  170   4.442   2.879   1.685
   55TIP3    H1  171   4.415   2.948   1.746
   55TIP3    H2  172   4.374   2.879   1.618
   56TIP3   OH2  173   3.807   2.208   4.221
   56TIP3    H1  174   3.848   2.155   4.289
   56TIP3    H2  175   3.880   2.256   4.181
   57TIP3   OH2  176   4.052   3.805   1.438
   57TIP3    H1  177   4.052   3.714   1.469
   57TIP3    H2  178   3.977   3.845   1.481
   58TIP3   OH2  179   5.512   5.849   0.342
   58TIP3    H1  180   5.538   5.767   0.299
   58TIP3    H2  181   5.417   5.852   0.333
   59TIP3   OH2  182   3.022   1.657   0.560
   59TIP3    H1  183   3.060   1.695   0.481
   59TIP3    H2  184   2.968   1.584   0.528
   60TIP3   OH2  185   5.822   2.900   0.539
   60TIP3    H1  186   5.832   2.819   0.489
   60TIP3    H2  187   5.728   2.905   0.558
   61TIP3   OH2  188   5.259   2.683   4.267
   61TIP3    H1  189   5.210   2.740   4.208
   61TIP3    H2  190   5.263   2.731   4.350
   62TIP3   OH2  191   2.193   0.333   3.462
   62TIP3    H1  192   2.126   0.396   3.488
   62TIP3    H2  193   2.170   0.253   3.509
   63TIP3   OH2  194   2.792   4.859   1.990
   63TIP3    H1  195   2.841   4.815   2.060
   63TIP3    H2  196   2.751   4.788   1.941
   64TIP3   OH2  197   1.144   4.256   0.380
   64TIP3    H1  198   1.211   4.289   0.321
   64TIP3    H2  199   1.083   4.209   0.324
   65TIP3   OH2  200   0.078   3.084   1.384
   65TIP3    H1  201  -0.001   3.059   1.335
   65TIP3    H2  202   0.132   3.131   1.320
   66TIP3   OH2  203   3.164   3.814   4.459
   66TIP3    H1  204   3.190   3.726   4.432
   66TIP3    H2  205   3.069   3.816   4.446
   67TIP3   OH2  206   1.589   1.596   1.404
   67TIP3    H1  207   1.639   1.532   1.455
   67TIP3    H2  208   1.563   1.548   1.325
   68TIP3   OH2  209   2.209   3.533   0.974
   68TIP3    H1  210   2.303   3.515   0.979
   68TIP3    H2  211   2.203   3.611   0.919
   69TIP3   OH2  212   4.200   2.924   0.154
   69TIP3    H1  213   4.163   2.879   0.077
   69TIP3    H2  214   4.295   2.922   0.139
   70TIP3   OH2  215   2.422   3.958   2.433
   70TIP3    H1  216   2.360   3.930   2.501
   70TIP3    H2  217   2.494   3.895   2.440
   71TIP3   OH2  218   0.710   5.743   2.793
   71TIP3    H1  219   0.648   5.757   2.721
   71TIP3    H2  220   0.719   5.830   2.833
   72TIP3   OH2  221   1.997   1.315   2.538
   72TIP3    H1  222   1.940   1.254   2.585
   72TIP3    H2  223   1.979   1.400   2.579
   73TIP3   OH2  224   3.340   2.229   2.798
   73TIP3    H1  225   3.353   2.165   2.728
   73TIP3    H2  226   3.247   2.251   2.793
   74TIP3   OH2  227   1.808   0.731   1.736
   74TIP3    H1  228   1.720   0.747   1.700
   74TIP3    H2  229   1.864   0.726   1.659
   75TIP3   OH2  230   4.820   0.705   0.082
   75TIP3    H1  231   4.814   0.800   0.072
   75TIP3    H2  232   4.847   0.692   0.173
   76TIP3   OH2  233   2.590   2.291   3.184
   76TIP3    H1  234   2.514   2.336   3.221
   76TIP3    H2  235   2.553   2.217   3.137
   77TIP3   OH2  236   2.730   3.785   3.580
   77TIP3    H1  237   2.720   3.690   3.581
   77TIP3    H2  238   2.731   3.811   3.672
   78TIP3   OH2  239   3.538   1.608   2.753
   78TIP3    H1  240   3.504   1.671   2.816
   78TIP3    H2  241   3.610   1.654   2.710
   79TIP3   OH2  242   5.386   3.042   3.953
   79TIP3    H1  243   5.327   3.057   4.027
   79TIP3    H2  244   5.352   3.098   3.883
   80TIP3   OH2  245   0.960   0.947   1.541
   80TIP3    H1  246   1.054   0.965   1.530
   80TIP3    H2  247   0.954   0.900   1.624
   81TIP3   OH2  248   3.280   4.149   3.087
   81TIP3    H1  249   3.248   4.191   3.007
   81TIP3    H2  250   3.356   4.201   3.113
   82TIP3   OH2  251   4.409   0.735   2.992
   82TIP3    H1  252   4.415   0.685   2.910
   82TIP3    H2  253   4.498   0.767   3.007
   83TIP3   OH2  254   3.934   4.112   3.416
   83TIP3    H1  255   3.899   4.130   3.504
   83TIP3    H2  256   3.967   4.196   3.385
   84TIP3   OH2  257   1.416   0.037   2.968
   84TIP3    H1  258   1.442   0.112   3.021
   84TIP3    H2  259   1.337   0.065   2.923
   85TIP3   OH2  260   0.344   0.291   1.550
   85TIP3    H1  261   0.348   0.197   1.569
   85TIP3    H2  262   0.275   0.300   1.484
   86TIP3   OH2  263   3.725   1.289   2.963
   86TIP3    H1  264   3.730   1.273   2.869
   86TIP3    H2  265   3.639   1.257   2.988
   87TIP3   OH2  266   4.010   4.660   1.799
   87TIP3    H1  267   3.938   4.645   1.737
   87TIP3    H2  268   4.083   4.610   1.762
   88TIP3   OH2  269   2.309   1.007   2.342
   88TIP3    H1  270   2.350   0.937   2.394
   88TIP3    H2  271   2.344   0.996   2.254
   89TIP3   OH2  272   2.249   3.796   2.891
   89TIP3    H1  273   2.156   3.816   2.883
   89TIP3    H2  274   2.261   3.772   2.983
   90TIP3   OH2  275   4.036   3.571   1.889
   90TIP3    H1  276   4.002   3.621   1.963
   90TIP3    H2  277   4.121   3.539   1.918
   91TIP3   OH2  278   0.726   4.010   2.965
   91TIP3    H1  279   0.793   4.077   2.978
   91TIP3    H2  280   0.663   4.050   2.905
   92TIP3   OH2  281   0.445   0.063   2.204
   92TIP3    H1  282   0.409  -0.025   2.218
   92TIP3    H2  283   0.445   0.103   2.291
   93TIP3   OH2  284   1.439   5.534   3.464
   93TIP3    H1  285   1.434   5.542   3.559
   93TIP3    H2  286   1.354   5.565   3.433
   94TIP3   OH2  287   2.144   0.708   1.085
   94TIP3    H1  288   2.207   0.778   1.071
   94TIP3    H2  289   2.190   0.646   1.142
   95TIP3   OH2  290   5.832   1.376   4.098
   95TIP3    H1  291   5.836   1.349   4.006
   95TIP3    H2  292   5.918   1.417   4.113
   96TIP3   OH2  293   1.254   0.343   2.669
   96TIP3    H1  294   1.258   0.269   2.729
   96TIP3    H2  295   1.324   0.401   2.698
   97TIP3   OH2  296   3.604   0.159   4.951
   97TIP3    H1  297   3.572   0.192   4.867
   97TIP3    H2  298   3.651   0.234   4.989
   98TIP3   OH2  299   5.537   4.337   0.118
   98TIP3    H1  300   5.526   4.428   0.090
   98TIP3    H2  301   5.503   4.335   0.207
   99TIP3   OH2  302   1.027   4.812   5.161
   99TIP3    H1  303   0.942   4.813   5.204
   99TIP3    H2  304   1.062   4.900   5.175
  100TIP3   OH2  305   6.211   4.060   1.616
  100TIP3    H1  306   6.307   4.056   1.616
  100TIP3    H2  307   6.186   4.053   1.524
  101TIP3   OH2  308   2.162   0.567   1.769
  101TIP3    H1  309   2.074   0.594   1.796
  101TIP3    H2  310   2.212   0.649   1.764
  102TIP3   OH2  311   0.064   1.947   3.633
  102TIP3    H1  312   0.098   2.022   3.682
  102TIP3    H2  313   0.136   1.922   3.576
  103TIP3   OH2  314   1.090   0.227   3.241
  103TIP3    H1  315   1.094   0.148   3.188
  103TIP3    H2  316   1.126   0.202   3.326
  104TIP3   OH2  317   1.162   0.700   1.553
  104TIP3    H1  318   1.179   0.793   1.543
  104TIP3    H2  319   1.249   0.659   1.556
  105TIP3   OH2  320   5.870   5.574   2.199
  105TIP3    H1  321   5.832   5.648   2.151
  105TIP3    H2  322   5.905   5.517   2.130
  106TIP3   OH2  323   2.887   4.626   1.102
  106TIP3    H1  324   2.950   4.695   1.079
  106TIP3    H2  325   2.815   4.638   1.041
  107TIP3   OH2  326   3.008   5.489   4.034
  107TIP3    H1  327   2.919   5.507   4.064
  107TIP3    H2  328   3.030   5.405   4.073
  108TIP3   OH2  329   5.525   1.081   3.456
  108TIP3    H1  330   5.486   1.112   3.373
  108TIP3    H2  331   5.477   1.001   3.476
  109TIP3   OH2  332   2.906   0.525   2.128
  109TIP3    H1  333   2.845   0.599   2.128
  109TIP3    H2  334   2.923   0.508   2.221
  110TIP3   OH2  335   6.228   1.509   3.580
  110TIP3    H1  336   6.233   1.531   3.673
  110TIP3    H2  337   6.302   1.450   3.565
  111TIP3   OH2  338   0.358   4.007   1.548
  111TIP3    H1  339   0.414   4.084   1.543
  111TIP3    H2  340   0.372   3.972   1.636
  112TIP3   OH2  341   1.782   2.032   2.046
  112TIP3    H1  342   1.833   2.087   2.105
  112TIP3    H2  343   1.691   2.045   2.075
  113TIP3   OH2  344   2.942   3.598   1.787
  113TIP3    H1  345   2.879   3.546   1.837
  113TIP3    H2  346   3.009   3.535   1.760
  114TIP3   OH2  347   1.173   2.922   0.223
  114TIP3    H1  348   1.080   2.910   0.243
  114TIP3    H2  349   1.218   2.857   0.277
  115TIP3   OH2  350   0.294   3.541   3.178
  115TIP3    H1  351   0.229   3.579   3.237
  115TIP3    H2  352   0.340   3.617   3.141
  116TIP3   OH2  353   0.682   0.539   2.467
  116TIP3    H1  354   0.635   0.605   2.417
  116TIP3    H2  355   0.774   0.563   2.457
  117TIP3   OH2  356   4.014   2.690   1.982
  117TIP3    H1  357   4.090   2.644   2.016
  117TIP3    H2  358   3.948   2.683   2.051
  118TIP3   OH2  359   5.353   5.922   2.772
  118TIP3    H1  360   5.417   5.951   2.706
  118TIP3    H2  361   5.274   5.973   2.753
  119TIP3   OH2  362   5.857   2.498   3.667
  119TIP3    H1  363   5.786   2.543   3.712
  119TIP3    H2  364   5.878   2.424   3.724
  120TIP3   OH2  365   1.591   2.357   2.575
  120TIP3    H1  366   1.675   2.378   2.614
  120TIP3    H2  367   1.544   2.310   2.645
  121TIP3   OH2  368   1.150   4.148   0.710
  121TIP3    H1  369   1.115   4.232   0.681
  121TIP3    H2  370   1.226   4.171   0.764
  122TIP3   OH2  371   2.613   4.593   0.840
  122TIP3    H1  372   2.564   4.593   0.758
  122TIP3    H2  373   2.616   4.685   0.865
  123TIP3   OH2  374   3.941   1.345   2.627
  123TIP3    H1  375   3.871   1.288   2.596
  123TIP3    H2  376   3.919   1.432   2.593
  124TIP3   OH2  377   0.426   1.237   3.898
  124TIP3    H1  378   0.454   1.260   3.986
  124TIP3    H2  379   0.497   1.181   3.864
  125TIP3   OH2  380   4.627   3.729   4.706
  125TIP3    H1  381   4.621   3.779   4.788
  125TIP3    H2  382   4.718   3.740   4.678
  126TIP3   OH2  383   3.889   4.214   4.895
  126TIP3    H1  384   3.948   4.193   4.823
  126TIP3    H2  385   3.867   4.129   4.933
  127TIP3   OH2  386   4.692   1.828   1.396
  127TIP3    H1  387   4.711   1.896   1.331
  127TIP3    H2  388   4.635   1.767   1.350
  128TIP3   OH2  389   0.339   0.828   1.438
  128TIP3    H1  390   0.305   0.844   1.350
  128TIP3    H2  391   0.374   0.739   1.434
  129TIP3   OH2  392   5.582   4.045   4.474
  129TIP3    H1  393   5.563   3.994   4.395
  129TIP3    H2  394   5.674   4.068   4.465
  130TIP3   OH2  395   2.179   3.796   1.332
  130TIP3    H1  396   2.159   3.703   1.345
  130TIP3    H2  397   2.102   3.830   1.286
  131TIP3   OH2  398   2.208   5.214   3.835
  131TIP3    H1  399   2.241   5.240   3.922
  131TIP3    H2  400   2.275   5.155   3.801
  132TIP3   OH2  401   4.640   0.855   5.143
  132TIP3    H1  402   4.664   0.776   5.191
  132TIP3    H2  403   4.565   0.891   5.191
  133TIP3   OH2  404   1.621   1.798   4.831
  133TIP3    H1  405   1.705   1.840   4.818
  133TIP3    H2  406   1.589   1.777   4.743
  134TIP3   OH2  407   2.788   1.529   3.816
  134TIP3    H1  408   2.776   1.584   3.739
  134TIP3    H2  409   2.821   1.589   3.883
  135TIP3   OH2  410   4.451   5.949   3.786
  135TIP3    H1  411   4.511   5.899   3.842
  135TIP3    H2  412   4.377   5.971   3.843
  136TIP3   OH2  413   6.067   5.023   1.946
  136TIP3    H1  414   6.075   5.043   2.039
  136TIP3    H2  415   6.121   5.089   1.902
  137TIP3   OH2  416   4.354   1.551   0.059
  137TIP3    H1  417   4.295   1.615   0.099
  137TIP3    H2  418   4.299   1.476   0.038
  138TIP3   OH2  419   1.614   2.327   4.086
  138TIP3    H1  420   1.687   2.370   4.131
  138TIP3    H2  421   1.639   2.234   4.082
  139TIP3   OH2  422   0.434   2.270   0.421
  139TIP3    H1  423   0.389   2.327   0.484
  139TIP3    H2  424   0.467   2.197   0.474
  140TIP3   OH2  425   1.428   1.015   3.294
  140TIP3    H1  426   1.476   1.025   3.377
  140TIP3    H2  427   1.493   1.033   3.227
  141TIP3   OH2  428   5.166   2.198   4.223
  141TIP3    H1  429   5.082   2.239   4.204
  141TIP3    H2  430   5.214   2.263   4.274
  142TIP3   OH2  431   2.292   0.921   4.701
  142TIP3    H1  432   2.358   0.873   4.751
  142TIP3    H2  433   2.221   0.859   4.687
  143TIP3   OH2  434   1.476   0.320   4.075
  143TIP3    H1  435   1.493   0.266   3.998
  143TIP3    H2  436   1.560   0.361   4.095
  144TIP3   OH2  437   0.273   5.454   1.000
  144TIP3    H1  438   0.284   5.366   0.965
  144TIP3    H2  439   0.360   5.493   0.995
  145TIP3   OH2  440   3.856   0.673   2.515
  145TIP3    H1  441   3.792   0.655   2.446
  145TIP3    H2  442   3.890   0.760   2.494
  146TIP3   OH2  443   2.956   2.501   5.171
  146TIP3    H1  444   2.935   2.479   5.081
  146TIP3    H2  445   2.938   2.421   5.220
  147TIP3   OH2  446   6.284   1.821   0.387
  147TIP3    H1  447   6.305   1.877   0.462
  147TIP3    H2  448   6.306   1.874   0.311
  148TIP3   OH2  449   0.230   5.800   3.376
  148TIP3    H1  450   0.262   5.870   3.318
  148TIP3    H2  451   0.143   5.830   3.404
  149TIP3   OH2  452   1.362   2.068   3.501
  149TIP3    H1  453   1.342   1.987   3.454
  149TIP3    H2  454   1.298   2.071   3.572
  150TIP3   OH2  455   4.471   3.062   0.767
  150TIP3    H1  456   4.450   3.156   0.769
  150TIP3    H2  457   4.522   3.047   0.846
  151TIP3   OH2  458   3.929   2.225   3.726
  151TIP3    H1  459   3.886   2.140   3.717
  151TIP3    H2  460   4.022   2.205   3.724
  152TIP3   OH2  461   1.213   0.642   3.343
  152TIP3    H1  462   1.219   0.714   3.280
  152TIP3    H2  463   1.229   0.563   3.291
  153TIP3   OH2  464   6.027   2.964   0.958
  153TIP3    H1  465   6.005   2.987   1.048
  153TIP3    H2  466   5.980   2.882   0.942
  154TIP3   OH2  467   0.299   3.942   3.551
  154TIP3    H1  468   0.251   3.899   3.622
  154TIP3    H2  469   0.268   4.032   3.552
  155TIP3   OH2  470   4.384   4.471   0.207
  155TIP3    H1  471   4.343   4.392   0.172
  155TIP3    H2  472   4.424   4.443   0.290
  156TIP3   OH2  473   3.609   5.514   3.075
  156TIP3    H1  474   3.556   5.580   3.120
  156TIP3    H2  475   3.570   5.506   2.988
  157TIP3   OH2  476   2.097   3.357   4.149
  157TIP3    H1  477   2.104   3.266   4.178
  157TIP3    H2  478   2.111   3.352   4.054
  158TIP3   OH2  479   5.913   3.582   4.264
  158TIP3    H1  480   5.828   3.547   4.238
  158TIP3    H2  481   5.909   3.588   4.359
  159TIP3   OH2  482   6.370   1.130   2.088
  159TIP3    H1  483   6.304   1.123   2.157
  159TIP3    H2  484   6.339   1.202   2.033
  160TIP3   OH2  485   1.129   1.229   0.445
  160TIP3    H1  486   1.091   1.247   0.531
  160TIP3    H2  487   1.221   1.254   0.453
  161TIP3   OH2  488   0.751   3.055   3.887
  161TIP3    H1  489   0.783   3.141   3.862
  161TIP3    H2  490   0.748   3.056   3.982
  162TIP3   OH2  491   4.967   5.745   4.161
  162TIP3    H1  492   5.023   5.765   4.086
  162TIP3    H2  493   4.928   5.829   4.185
  163TIP3   OH2  494   3.272   1.341   3.609
  163TIP3    H1  495   3.249   1.434   3.611
  163TIP3    H2  496   3.367   1.341   3.592
  164TIP3   OH2  497   6.038   0.380   4.445
  164TIP3    H1  498   6.017   0.472   4.428
  164TIP3    H2  499   6.050   0.342   4.358
  165TIP3   OH2  500   1.784   2.007   4.418
  165TIP3    H1  501   1.736   2.028   4.498
  165TIP3    H2  502   1.768   2.081   4.360
  166TIP3   OH2  503   1.496   5.916   3.868
  166TIP3    H1  504   1.524   5.825   3.866
  166TIP3    H2  505   1.549   5.957   3.935
  167TIP3   OH2  506   0.163   2.875   2.248
  167TIP3    H1  507   0.230   2.903   2.310
  167TIP3    H2  508   0.205   2.808   2.195
  168TIP3   OH2  509   3.582   4.152   0.200
  168TIP3    H1  510   3.581   4.058   0.187
  168TIP3    H2  511   3.669   4.171   0.236
  169TIP3   OH2  512   2.912   0.312   2.361
  169TIP3    H1  513   2.823   0.294   2.331
  169TIP3    H2  514   2.958   0.229   2.350
  170TIP3   OH2  515   0.299   0.427   4.760
  170TIP3    H1  516   0.256   0.412   4.676
  170TIP3    H2  517   0.252   0.502   4.797
  171TIP3   OH2  518   4.938   1.309   2.871
  171TIP3    H1  519   4.928   1.216   2.853
  171TIP3    H2  520   4.916   1.319   2.964
  172TIP3   OH2  521   3.251   1.087   4.374
  172TIP3    H1  522   3.219   1.062   4.461
  172TIP3    H2  523   3.297   1.170   4.389
  173TIP3   OH2  524   4.182   2.383   0.176
  173TIP3    H1  525   4.224   2.393   0.261
  173TIP3    H2  526   4.254   2.378   0.113
  174TIP3   OH2  527   0.056   0.203   0.129
  174TIP3    H1  528   0.014   0.278   0.170
  174TIP3    H2  529   0.013   0.196   0.043
  175TIP3   OH2  530   1.506   0.169   0.425
  175TIP3    H1  531   1.555   0.207   0.498
  175TIP3    H2  532   1.480   0.082   0.455
  176TIP3   OH2  533   0.924   5.222   2.630
  176TIP3    H1  534   0.996   5.208   2.568
  176TIP3    H2  535   0.955   5.293   2.686
  177TIP3   OH2  536   0.400   4.524   2.877
  177TIP3    H1  537   0.483   4.490   2.910
  177TIP3    H2  538   0.419   4.613   2.849
  178TIP3   OH2  539   4.671   0.186   2.103
  178TIP3    H1  540   4.713   0.119   2.049
  178TIP3    H2  541   4.692   0.268   2.059
  179TIP3   OH2  542   4.171   2.406   1.411
  179TIP3    H1  543   4.154   2.322   1.369
  179TIP3    H2  544   4.148   2.471   1.345
  180TIP3   OH2  545   4.957   3.507   3.795
  180TIP3    H1  546   4.883   3.513   3.857
  180TIP3    H2  547   4.920   3.464   3.718
  181TIP3   OH2  548   5.652   4.396   1.247
  181TIP3    H1  549   5.560   4.386   1.271
  181TIP3    H2  550   5.651   4.462   1.177
  182TIP3   OH2  551   4.256   2.899   0.928
  182TIP3    H1  552   4.349   2.904   0.907
  182TIP3    H2  553   4.216   2.861   0.850
  183TIP3   OH2  554   0.285   0.947   3.224
  183TIP3    H1  555   0.239   0.989   3.297
  183TIP3    H2  556   0.215   0.913   3.168
  184TIP3   OH2  557   4.497   4.749   3.144
  184TIP3    H1  558   4.562   4.787   3.204
  184TIP3    H2  559   4.549   4.698   3.082
  185TIP3   OH2  560   4.341   1.533   1.630
  185TIP3    H1  561   4.301   1.596   1.691
  185TIP3    H2  562   4.314   1.448   1.664
  186TIP3   OH2  563   4.108   3.203   1.407
  186TIP3    H1  564   4.013   3.189   1.413
  186TIP3    H2  565   4.119   3.296   1.427
  187TIP3   OH2  566   3.948   3.244   0.450
  187TIP3    H1  567   3.862   3.261   0.412
  187TIP3    H2  568   3.995   3.193   0.384
  188TIP3   OH2  569   3.771   5.435   2.627
  188TIP3    H1  570   3.769   5.531   2.625
  188TIP3    H2  571   3.694   5.409   2.577
  189TIP3   OH2  572   1.417   5.349   2.003
  189TIP3    H1  573   1.434   5.443   2.011
  189TIP3    H2  574   1.405   5.335   1.909
  190TIP3   OH2  575   0.839   1.338   2.292
  190TIP3    H1  576   0.892   1.279   2.238
  190TIP3    H2  577   0.800   1.399   2.229
  191TIP3   OH2  578   5.823   0.375   4.753
  191TIP3    H1  579   5.846   0.304   4.692
  191TIP3    H2  580   5.727   0.379   4.750
  192TIP3   OH2  581   5.302   5.399   5.185
  192TIP3    H1  582   5.219   5.388   5.232
  192TIP3    H2  583   5.352   5.320   5.206
  193TIP3   OH2  584   6.251   2.361   3.224
  193TIP3    H1  585   6.271   2.273   3.194
  193TIP3    H2  586   6.174   2.387   3.173
  194TIP3   OH2  587   4.869   5.655   3.337
  194TIP3    H1  588   4.851   5.745   3.310
  194TIP3    H2  589   4.941   5.627   3.281
  195TIP3   OH2  590   2.725   5.515   0.850
  195TIP3    H1  591   2.647   5.538   0.800
  195TIP3    H2  592   2.691   5.481   0.933
  196TIP3   OH2  593   4.780   0.995   1.397
  196TIP3    H1  594   4.697   0.976   1.353
  196TIP3    H2  595   4.807   0.912   1.434
  197TIP3   OH2  596   3.424   0.991   1.216
  197TIP3    H1  597   3.477   0.938   1.277
  197TIP3    H2  598   3.345   0.939   1.201
  198TIP3   OH2  599   5.286   0.163   0.280
  198TIP3    H1  600   5.286   0.067   0.289
  198TIP3    H2  601   5.268   0.195   0.368
  199TIP3   OH2  602   2.750   4.329   4.081
  199TIP3    H1  603   2.665   4.300   4.048
  199TIP3    H2  604   2.734   4.417   4.114
  200TIP3   OH2  605   4.056   5.231   5.120
  200TIP3    H1  606   4.077   5.139   5.139
  200TIP3    H2  607   4.065   5.275   5.205
  201TIP3   OH2  608   0.864   3.126   3.234
  201TIP3    H1  609   0.815   3.083   3.304
  201TIP3    H2  610   0.797   3.170   3.181
  202TIP3   OH2  611   5.197   2.309   1.467
  202TIP3    H1  612   5.196   2.214   1.456
  202TIP3    H2  613   5.290   2.331   1.477
  203TIP3   OH2  614   4.514   3.935   1.458
  203TIP3    H1  615   4.535   3.951   1.366
  203TIP3    H2  616   4.481   4.019   1.491
  204TIP3   OH2  617   4.542   3.091   4.455
  204TIP3    H1  618   4.539   3.095   4.359
  204TIP3    H2  619   4.454   3.065   4.481
  205TIP3   OH2  620   4.139   2.359   2.150
  205TIP3    H1  621   4.204   2.290   2.163
  205TIP3    H2  622   4.102   2.373   2.238
  206TIP3   OH2  623   1.602   2.697   0.499
  206TIP3    H1  624   1.570   2.640   0.569
  206TIP3    H2  625   1.692   2.668   0.484
  207TIP3   OH2  626   3.050   2.516   0.220
  207TIP3    H1  627   3.120   2.577   0.198
  207TIP3    H2  628   2.975   2.545   0.169
  208TIP3   OH2  629   5.927   1.884   0.890
  208TIP3    H1  630   5.833   1.865   0.879
  208TIP3    H2  631   5.960   1.811   0.942
  209TIP3   OH2  632   4.968   0.163   3.260
  209TIP3    H1  633   4.909   0.198   3.326
  209TIP3    H2  634   5.000   0.240   3.213
  210TIP3   OH2  635   4.270   4.565   0.775
  210TIP3    H1  636   4.260   4.616   0.855
  210TIP3    H2  637   4.333   4.496   0.798
  211TIP3   OH2  638   0.532   4.883   4.614
  211TIP3    H1  639   0.526   4.874   4.709
  211TIP3    H2  640   0.442   4.899   4.585
  212TIP3   OH2  641   4.934   3.466   4.200
  212TIP3    H1  642   4.908   3.557   4.211
  212TIP3    H2  643   4.852   3.416   4.201
  213TIP3   OH2  644   0.093   3.333   2.002
  213TIP3    H1  645   0.188   3.345   1.997
  213TIP3    H2  646   0.081   3.246   2.039
  214TIP3   OH2  647   1.427   1.791   4.323
  214TIP3    H1  648   1.348   1.825   4.365
  214TIP3    H2  649   1.438   1.845   4.245
  215TIP3   OH2  650   2.809   1.899   0.739
  215TIP3    H1  651   2.795   1.856   0.655
  215TIP3    H2  652   2.866   1.839   0.787
  216TIP3   OH2  653   5.421   0.565   4.537
  216TIP3    H1  654   5.339   0.519   4.552
  216TIP3    H2  655   5.440   0.607   4.621
  217TIP3   OH2  656   0.041   5.625   3.807
  217TIP3    H1  657   0.080   5.546   3.770
  217TIP3    H2  658  -0.034   5.645   3.751
  218TIP3   OH2  659   4.740   2.011   3.742
  218TIP3    H1  660   4.806   2.049   3.684
  218TIP3    H2  661   4.790   1.982   3.819
  219TIP3   OH2  662   0.215   2.320   4.859
  219TIP3    H1  663   0.175   2.264   4.926
  219TIP3    H2  664   0.222   2.406   4.901
  220TIP3   OH2  665   3.527   4.281   3.200
  220TIP3    H1  666   3.597   4.310   3.258
  220TIP3    H2  667   3.572   4.233   3.130
  221TIP3   OH2  668   2.784   2.623   1.316
  221TIP3    H1  669   2.875   2.650   1.303
  221TIP3    H2  670   2.733   2.704   1.308
  222TIP3   OH2  671   1.497   5.545   4.646
  222TIP3    H1  672   1.579   5.505   4.617
  222TIP3    H2  673   1.442   5.546   4.567
  223TIP3   OH2  674   2.532   4.130   1.547
  223TIP3    H1  675   2.615   4.154   1.589
  223TIP3    H2  676   2.496   4.213   1.516
  224TIP3   OH2  677   4.307   2.231   2.612
  224TIP3    H1  678   4.246   2.295   2.647
  224TIP3    H2  679   4.361   2.280   2.550
  225TIP3   OH2  680   5.699   3.235   4.020
  225TIP3    H1  681   5.704   3.282   4.103
  225TIP3    H2  682   5.790   3.224   3.993
  226TIP3   OH2  683   3.366   4.753   1.907
  226TIP3    H1  684   3.298   4.690   1.933
  226TIP3    H2  685   3.405   4.782   1.989
  227TIP3   OH2  686   1.648   1.429   2.019
  227TIP3    H1  687   1.696   1.451   2.099
  227TIP3    H2  688   1.674   1.496   1.956
  228TIP3   OH2  689   1.699   4.648   5.136
  228TIP3    H1  690   1.784   4.604   5.144
  228TIP3    H2  691   1.635   4.580   5.159
  229TIP3   OH2  692   5.384   0.499   4.863
  229TIP3    H1  693   5.306   0.467   4.818
  229TIP3    H2  694   5.441   0.422   4.870
  230TIP3   OH2  695   0.977   4.739   2.873
  230TIP3    H1  696   0.977   4.797   2.796
  230TIP3    H2  697   1.070   4.729   2.895
  231TIP3   OH2  698   4.390   2.141   3.147
  231TIP3    H1  699   4.472   2.159   3.101
  231TIP3    H2  700   4.388   2.046   3.157
  232TIP3   OH2  701   0.441   5.319   2.835
  232TIP3    H1  702   0.513   5.292   2.778
  232TIP3    H2  703   0.405   5.397   2.794
  233TIP3   OH2  704   1.920   1.280   0.150
  233TIP3    H1  705   1.897   1.218   0.081
  233TIP3    H2  706   1.985   1.338   0.109
  234TIP3   OH2  707   4.812   4.496   2.132
  234TIP3    H1  708   4.757   4.557   2.084
  234TIP3    H2  709   4.799   4.412   2.088
  235TIP3   OH2  710   2.588   3.766   1.230
  235TIP3    H1  711   2.505   3.785   1.185
  235TIP3    H2  712   2.583   3.817   1.311
  236TIP3   OH2  713   0.345   4.391   4.021
  236TIP3    H1  714   0.393   4.473   4.007
  236TIP3    H2  715   0.334   4.385   4.116
  237TIP3   OH2  716   3.146   2.825   3.047
  237TIP3    H1  717   3.081   2.805   2.980
  237TIP3    H2  718   3.123   2.912   3.078
  238TIP3   OH2  719   1.304   2.704   2.771
  238TIP3    H1  720   1.260   2.741   2.848
  238TIP3    H2  721   1.253   2.626   2.750
  239TIP3   OH2  722   0.532   0.338   3.435
  239TIP3    H1  723   0.444   0.311   3.464
  239TIP3    H2  724   0.584   0.258   3.442
  240TIP3   OH2  725   3.839   3.769   4.153
  240TIP3    H1  726   3.888   3.774   4.235
  240TIP3    H2  727   3.755   3.811   4.173
  241TIP3   OH2  728   6.247   5.256   0.695
  241TIP3    H1  729   6.172   5.200   0.675
  241TIP3    H2  730   6.246   5.265   0.790
  242TIP3   OH2  731   6.057   5.713   4.672
  242TIP3    H1  732   6.037   5.694   4.764
  242TIP3    H2  733   6.032   5.805   4.661
  243TIP3   OH2  734   5.197   5.614   3.605
  243TIP3    H1  735   5.239   5.529   3.590
  243TIP3    H2  736   5.104   5.598   3.591
  244TIP3   OH2  737   0.069   2.498   0.095
  244TIP3    H1  738   0.143   2.542   0.053
  244TIP3    H2  739  -0.001   2.501   0.029
  245TIP3   OH2  740   4.021   0.353   3.683
  245TIP3    H1  741   4.018   0.270   3.730
  245TIP3    H2  742   4.005   0.330   3.592
  246TIP3   OH2  743   2.210   0.828   1.752
  246TIP3    H1  744   2.176   0.809   1.664
  246TIP3    H2  745   2.181   0.917   1.771
  247TIP3   OH2  746   6.003   3.684   2.071
  247TIP3    H1  747   5.925   3.669   2.125
  247TIP3    H2  748   5.979   3.757   2.014
  248TIP3   OH2  749   6.223   3.435   0.810
  248TIP3    H1  750   6.206   3.524   0.777
  248TIP3    H2  751   6.142   3.409   0.852
  249TIP3   OH2  752   2.056   4.497   4.952
  249TIP3    H1  753   2.000   4.516   5.028
  249TIP3    H2  754   2.035   4.407   4.930
  250TIP3   OH2  755   3.368   3.160   1.874
  250TIP3    H1  756   3.409   3.146   1.959
  250TIP3    H2  757   3.339   3.074   1.846
  251TIP3   OH2  758   1.430   3.174   3.911
  251TIP3    H1  759   1.521   3.202   3.910
  251TIP3    H2  760   1.434   3.079   3.921
  252TIP3   OH2  761   1.157   5.925   2.594
  252TIP3    H1  762   1.080   5.982   2.605
  252TIP3    H2  763   1.194   5.950   2.509
  253TIP3   OH2  764   4.139   5.443   3.726
  253TIP3    H1  765   4.156   5.384   3.799
  253TIP3    H2  766   4.060   5.408   3.685
  254TIP3   OH2  767   0.679   3.358   3.348
  254TIP3    H1  768   0.695   3.448   3.378
  254TIP3    H2  769   0.703   3.303   3.422
  255TIP3   OH2  770   0.950   1.104   4.264
  255TIP3    H1  771   0.994   1.019   4.257
  255TIP3    H2  772   0.860   1.082   4.287
  256TIP3   OH2  773   2.586   5.121   3.552
  256TIP3    H1  774   2.561   5.112   3.644
  256TIP3    H2  775   2.648   5.050   3.537
  257TIP3   OH2  776   3.190   0.864   1.153
  257TIP3    H1  777   3.163   0.839   1.065
  257TIP3    H2  778   3.139   0.808   1.211
  258TIP3   OH2  779   4.320   1.577   2.708
  258TIP3    H1  780   4.375   1.621   2.772
  258TIP3    H2  781   4.380   1.547   2.640
  259TIP3   OH2  782   0.501   3.458   4.980
  259TIP3    H1  783   0.469   3.528   4.923
  259TIP3    H2  784   0.454   3.380   4.951
  260TIP3   OH2  785   2.538   4.960   2.023
  260TIP3    H1  786   2.610   4.899   2.004
  260TIP3    H2  787   2.576   5.047   2.009
  261TIP3   OH2  788   1.550   4.441   2.976
  261TIP3    H1  789   1.634   4.424   3.018
  261TIP3    H2  790   1.529   4.532   2.998
  262TIP3   OH2  791   4.512   3.324   2.071
  262TIP3    H1  792   4.561   3.265   2.015
  262TIP3    H2  793   4.549   3.309   2.159
  263TIP3   OH2  794   1.812   5.666   3.187
  263TIP3    H1  795   1.722   5.655   3.218
  263TIP3    H2  796   1.826   5.761   3.186
  264TIP3   OH2  797   1.978   5.486   3.349
  264TIP3    H1  798   1.906   5.477   3.412
  264TIP3    H2  799   1.937   5.522   3.270
  265TIP3   OH2  800   1.025   1.435   3.237
  265TIP3    H1  801   0.988   1.409   3.321
  265TIP3    H2  802   0.989   1.372   3.174
  266TIP3   OH2  803   5.361   4.639   4.784
  266TIP3    H1  804   5.372   4.597   4.869
  266TIP3    H2  805   5.420   4.714   4.785
  267TIP3   OH2  806   4.852   4.409   0.112
  267TIP3    H1  807   4.843   4.358   0.031
  267TIP3    H2  808   4.858   4.343   0.181
  268TIP3   OH2  809   6.199   3.495   0.129
  268TIP3    H1  810   6.250   3.565   0.170
  268TIP3    H2  811   6.144   3.461   0.199
  269TIP3   OH2  812   2.232   2.512   4.931
  269TIP3    H1  813   2.223   2.418   4.948
  269TIP3    H2  814   2.240   2.551   5.018
  270TIP3   OH2  815   3.936   1.155   0.629
  270TIP3    H1  816   3.866   1.118   0.683
  270TIP3    H2  817   3.932   1.105   0.547
  271TIP3   OH2  818   1.636   5.093   1.992
  271TIP3    H1  819   1.615   5.085   2.085
  271TIP3    H2  820   1.562   5.052   1.947
  272TIP3   OH2  821   1.439   3.057   4.512
  272TIP3    H1  822   1.347   3.032   4.506
  272TIP3    H2  823   1.438   3.153   4.512
  273TIP3   OH2  824   0.230   1.026   3.685
  273TIP3    H1  825   0.312   0.983   3.710
  273TIP3    H2  826   0.169   0.953   3.668
  274TIP3   OH2  827   4.252   0.956   3.373
  274TIP3    H1  828   4.245   0.975   3.280
  274TIP3    H2  829   4.278   0.864   3.378
  275TIP3   OH2  830   3.005   2.605   4.121
  275TIP3    H1  831   2.995   2.522   4.074
  275TIP3    H2  832   3.099   2.622   4.120
  276TIP3   OH2  833   1.444   0.719   3.046
  276TIP3    H1  834   1.521   0.774   3.055
  276TIP3    H2  835   1.370   0.777   3.066
  277TIP3   OH2  836   2.311   2.320   4.177
  277TIP3    H1  837   2.393   2.307   4.129
  277TIP3    H2  838   2.319   2.263   4.253
  278TIP3   OH2  839   0.748   2.255   2.400
  278TIP3    H1  840   0.813   2.324   2.416
  278TIP3    H2  841   0.799   2.180   2.370
  279TIP3   OH2  842   3.773   5.767   0.225
  279TIP3    H1  843   3.845   5.706   0.209
  279TIP3    H2  844   3.716   5.757   0.149
  280TIP3   OH2  845   1.976   2.408   2.347
  280TIP3    H1  846   1.891   2.371   2.323
  280TIP3    H2  847   2.040   2.341   2.323
  281TIP3   OH2  848   6.009   2.630   3.976
  281TIP3    H1  849   6.100   2.606   3.991
  281TIP3    H2  850   5.970   2.633   4.063
  282TIP3   OH2  851   2.080   2.497   4.240
  282TIP3    H1  852   2.101   2.549   4.317
  282TIP3    H2  853   2.165   2.462   4.210
  283TIP3   OH2  854   5.277   4.312   3.783
  283TIP3    H1  855   5.363   4.270   3.781
  283TIP3    H2  856   5.282   4.379   3.715
  284TIP3   OH2  857   2.692   0.359   4.428
  284TIP3    H1  858   2.672   0.435   4.374
  284TIP3    H2  859   2.688   0.392   4.518
  285TIP3   OH2  860   3.215   4.160   1.537
  285TIP3    H1  861   3.125   4.151   1.507
  285TIP3    H2  862   3.263   4.092   1.489
  286TIP3   OH2  863   6.065   4.756   1.720
  286TIP3    H1  864   6.003   4.791   1.784
  286TIP3    H2  865   6.042   4.800   1.638
  287TIP3   OH2  866   6.092   5.003   2.590
  287TIP3    H1  867   6.104   4.910   2.610
  287TIP3    H2  868   6.172   5.027   2.542
  288TIP3   OH2  869   2.892   0.446   3.860
  288TIP3    H1  870   2.975   0.398   3.870
  288TIP3    H2  871   2.918   0.532   3.827
  289TIP3   OH2  872   2.575   1.112   3.585
  289TIP3    H1  873   2.664   1.077   3.580
  289TIP3    H2  874   2.551   1.102   3.678
  290TIP3   OH2  875   2.467   5.257   2.299
  290TIP3    H1  876   2.467   5.278   2.392
  290TIP3    H2  877   2.509   5.333   2.258
  291TIP3   OH2  878   3.137   0.401   1.989
  291TIP3    H1  879   3.082   0.446   1.925
  291TIP3    H2  880   3.092   0.412   2.073
  292TIP3   OH2  881   3.474   2.922   2.681
  292TIP3    H1  882   3.543   2.893   2.741
  292TIP3    H2  883   3.414   2.973   2.736
  293TIP3   OH2  884   0.447   1.321   4.440
  293TIP3    H1  885   0.459   1.416   4.446
  293TIP3    H2  886   0.503   1.295   4.367
  294TIP3   OH2  887   5.889   1.957   1.336
  294TIP3    H1  888   5.923   2.044   1.358
  294TIP3    H2  889   5.967   1.903   1.324
  295TIP3   OH2  890   5.180   3.218   1.722
  295TIP3    H1  891   5.177   3.197   1.629
  295TIP3    H2  892   5.104   3.172   1.759
  296TIP3   OH2  893   4.885   0.764   0.880
  296TIP3    H1  894   4.883   0.719   0.965
  296TIP3    H2  895   4.813   0.827   0.884
  297TIP3   OH2  896   3.632   3.895   0.025
  297TIP3    H1  897   3.702   3.869   0.085
  297TIP3    H2  898   3.677   3.921  -0.055
  298TIP3   OH2  899   6.037   3.921   4.655
  298TIP3    H1  900   6.067   3.996   4.604
  298TIP3    H2  901   6.002   3.959   4.736
  299TIP3   OH2  902   1.587   0.326   4.814
  299TIP3    H1  903   1.512   0.269   4.833
  299TIP3    H2  904   1.575   0.401   4.872
  300TIP3   OH2  905   0.757   1.301   4.029
  300TIP3    H1  906   0.852   1.311   4.039
  300TIP3    H2  907   0.735   1.356   3.954
  301TIP3   OH2  908   1.876   0.500   1.227
  301TIP3    H1  909   1.884   0.587   1.189
  301TIP3    H2  910   1.794   0.466   1.191
  302TIP3   OH2  911   0.186   2.635   1.123
  302TIP3    H1  912   0.154   2.661   1.210
  302TIP3    H2  913   0.174   2.540   1.120
  303TIP3   OH2  914   3.816   3.472   3.255
  303TIP3    H1  915   3.848   3.415   3.325
  303TIP3    H2  916   3.780   3.412   3.189
  304TIP3   OH2  917   4.411   4.836   0.696
  304TIP3    H1  918   4.380   4.760   0.745
  304TIP3    H2  919   4.385   4.818   0.606
  305TIP3   OH2  920   5.941   1.620   3.901
  305TIP3    H1  921   5.886   1.698   3.893
  305TIP3    H2  922   6.021   1.651   3.943
  306TIP3   OH2  923   2.378   0.772   3.317
  306TIP3    H1  924   2.283   0.764   3.316
  306TIP3    H2  925   2.397   0.841   3.252
  307TIP3   OH2  926   1.765   1.774   0.991
  307TIP3    H1  927   1.744   1.867   0.985
  307TIP3    H2  928   1.825   1.768   1.065
  308TIP3   OH2  929   5.158  -0.043   1.385
  308TIP3    H1  930   5.101  -0.010   1.315
  308TIP3    H2  931   5.102  -0.047   1.462
  309TIP3   OH2  932   5.184   3.210   0.513
  309TIP3    H1  933   5.197   3.146   0.443
  309TIP3    H2  934   5.097   3.191   0.547
  310TIP3   OH2  935   0.577   5.636   1.528
  310TIP3    H1  936   0.594   5.691   1.451
  310TIP3    H2  937   0.512   5.685   1.578
  311TIP3   OH2  938   2.289   2.272   4.691
  311TIP3    H1  939   2.346   2.281   4.767
  311TIP3    H2  940   2.310   2.349   4.637
  312TIP3   OH2  941   5.984   4.572   1.079
  312TIP3    H1  942   6.000   4.553   1.172
  312TIP3    H2  943   6.065   4.545   1.036
  313TIP3   OH2  944   4.576   2.871   4.699
  313TIP3    H1  945   4.639   2.804   4.723
  313TIP3    H2  946   4.629   2.945   4.669
  314TIP3   OH2  947   0.894   2.847   3.747
  314TIP3    H1  948   0.900   2.878   3.656
  314TIP3    H2  949   0.809   2.880   3.777
  315TIP3   OH2  950   2.068   2.133   1.405
  315TIP3    H1  951   2.023   2.203   1.451
  315TIP3    H2  952   2.037   2.053   1.447
  316TIP3   OH2  953   3.602   2.940   2.268
  316TIP3    H1  954   3.664   3.013   2.278
  316TIP3    H2  955   3.633   2.874   2.330
  317TIP3   OH2  956   1.370   3.879   2.284
  317TIP3    H1  957   1.424   3.801   2.266
  317TIP3    H2  958   1.302   3.848   2.344
  318TIP3   OH2  959   3.644   0.624   4.576
  318TIP3    H1  960   3.642   0.539   4.532
  318TIP3    H2  961   3.718   0.670   4.536
  319TIP3   OH2  962   5.890   4.783   0.948
  319TIP3    H1  963   5.923   4.713   1.004
  319TIP3    H2  964   5.798   4.761   0.933
  320TIP3   OH2  965   1.916   1.943   1.576
  320TIP3    H1  966   1.827   1.916   1.553
  320TIP3    H2  967   1.904   2.017   1.636
  321TIP3   OH2  968   1.014   0.150   4.431
  321TIP3    H1  969   0.969   0.066   4.426
  321TIP3    H2  970   1.098   0.130   4.471
  322TIP3   OH2  971   3.322   5.374   4.325
  322TIP3    H1  972   3.358   5.312   4.389
  322TIP3    H2  973   3.378   5.363   4.247
  323TIP3   OH2  974   1.239   2.181   3.217
  323TIP3    H1  975   1.149   2.190   3.185
  323TIP3    H2  976   1.240   2.096   3.261
  324TIP3   OH2  977   3.359   0.874   2.527
  324TIP3    H1  978   3.329   0.962   2.550
  324TIP3    H2  979   3.428   0.888   2.463
  325TIP3   OH2  980   1.780   2.098   2.685
  325TIP3    H1  981   1.759   2.060   2.770
  325TIP3    H2  982   1.723   2.174   2.678
  326TIP3   OH2  983   0.967   2.652  -0.020
  326TIP3    H1  984   0.995   2.691   0.063
  326TIP3    H2  985   1.046   2.653  -0.074
  327TIP3   OH2  986   1.541   0.127   2.106
  327TIP3    H1  987   1.460   0.105   2.153
  327TIP3    H2  988   1.606   0.066   2.140
  328TIP3   OH2  989   3.347   2.021   2.627
  328TIP3    H1  990   3.335   1.951   2.692
  328TIP3    H2  991   3.363   1.974   2.545
  329TIP3   OH2  992   6.240   2.596   4.703
  329TIP3    H1  993   6.146   2.605   4.686
  329TIP3    H2  994   6.281   2.658   4.642
  330TIP3   OH2  995   0.143   5.897   3.840
  330TIP3    H1  996   0.110   5.904   3.929
  330TIP3    H2  997   0.092   5.828   3.799
  331TIP3   OH2  998   2.158   3.919   1.799
  331TIP3    H1  999   2.227   3.882   1.744
  331TIP3    H2 1000   2.086   3.855   1.794
  332TIP3   OH2 1001   0.833   5.824   2.453
  332TIP3    H1 1002   0.877   5.756   2.504
  332TIP3    H2 1003   0.743   5.792   2.443
  333TIP3   OH2 1004   1.517   5.052   3.601
  333TIP3    H1 1005   1.612   5.048   3.590
  333TIP3    H2 1006   1.488   5.109   3.530
  334TIP3   OH2 1007   3.985   3.805   4.393
  334TIP3    H1 1008   4.008   3.878   4.450
  334TIP3    H2 1009   4.065   3.753   4.387
  335TIP3   OH2 1010   1.958   1.566   2.674
  335TIP3    H1 1011   1.927   1.511   2.746
  335TIP3    H2 1012   1.881   1.615   2.646
  336TIP3   OH2 1013   2.901   4.761   0.361
  336TIP3    H1 1014   2.945   4.819   0.424
  336TIP3    H2 1015   2.811   4.756   0.393
  337TIP3   OH2 1016   0.702   3.940   4.293
  337TIP3    H1 1017   0.630   3.895   4.247
  337TIP3    H2 1018   0.724   4.013   4.237
  338TIP3   OH2 1019   3.734   5.660   5.041
  338TIP3    H1 1020   3.782   5.577   5.037
  338TIP3    H2 1021   3.642   5.633   5.043
  339TIP3   OH2 1022   5.013   3.494   4.736
  339TIP3    H1 1023   5.065   3.430   4.785
  339TIP3    H2 1024   5.036   3.578   4.775
  340TIP3   OH2 1025   0.452   2.553   4.232
  340TIP3    H1 1026   0.507   2.622   4.267
  340TIP3    H2 1027   0.363   2.583   4.248
  341TIP3   OH2 1028   5.595   5.732   4.705
  341TIP3    H1 1029   5.635   5.782   4.634
  341TIP3    H2 1030   5.590   5.642   4.671
  342TIP3   OH2 1031   2.042   3.168   5.084
  342TIP3    H1 1032   1.952   3.162   5.055
  342TIP3    H2 1033   2.089   3.209   5.011
  343TIP3   OH2 1034   0.282   2.960   0.015
  343TIP3    H1 1035   0.309   2.874  -0.017
  343TIP3    H2 1036   0.302   3.020  -0.057
  344TIP3   OH2 1037   1.169   4.984   4.881
  344TIP3    H1 1038   1.148   4.926   4.808
  344TIP3    H2 1039   1.214   5.058   4.841
  345TIP3   OH2 1040   5.663   0.591   0.681
  345TIP3    H1 1041   5.752   0.575   0.651
  345TIP3    H2 1042   5.672   0.616   0.773
  346TIP3   OH2 1043   2.655   0.572   3.536
  346TIP3    H1 1044   2.683   0.659   3.508
  346TIP3    H2 1045   2.560   0.572   3.524
  347TIP3   OH2 1046   1.638   3.031   4.729
  347TIP3    H1 1047   1.581   3.031   4.652
  347TIP3    H2 1048   1.606   2.956   4.781
  348TIP3   OH2 1049   6.074   4.285   1.302
  348TIP3    H1 1050   6.055   4.364   1.353
  348TIP3    H2 1051   6.071   4.315   1.211
  349TIP3   OH2 1052   1.946   0.876   3.111
  349TIP3    H1 1053   1.857   0.873   3.076
  349TIP3    H2 1054   1.971   0.968   3.107
  350TIP3   OH2 1055   2.539   5.441   4.459
  350TIP3    H1 1056   2.547   5.374   4.391
  350TIP3    H2 1057   2.457   5.422   4.503
  351TIP3   OH2 1058   2.226   2.776   4.826
  351TIP3    H1 1059   2.295   2.821   4.777
  351TIP3    H2 1060   2.266   2.694   4.854
  352TIP3   OH2 1061   4.933   0.142   3.634
  352TIP3    H1 1062   5.005   0.199   3.608
  352TIP3    H2 1063   4.969   0.054   3.631
  353TIP3   OH2 1064   0.481   0.294   4.058
  353TIP3    H1 1065   0.473   0.219   3.999
  353TIP3    H2 1066   0.446   0.262   4.141
  354TIP3   OH2 1067   4.591   3.858   2.442
  354TIP3    H1 1068   4.525   3.792   2.459
  354TIP3    H2 1069   4.542   3.939   2.431
  355TIP3   OH2 1070   2.017   5.373   4.059
  355TIP3    H1 1071   2.013   5.337   4.148
  355TIP3    H2 1072   2.058   5.458   4.070
  356TIP3   OH2 1073   3.195   4.161   4.956
  356TIP3    H1 1074   3.185   4.123   5.043
  356TIP3    H2 1075   3.141   4.240   4.957
  357TIP3   OH2 1076   1.513   3.654   2.175
  357TIP3    H1 1077   1.548   3.613   2.095
  357TIP3    H2 1078   1.455   3.588   2.212
  358TIP3   OH2 1079   0.069   0.978   4.563
  358TIP3    H1 1080   0.096   1.037   4.493
  358TIP3    H2 1081  -0.020   0.953   4.541
  359TIP3   OH2 1082   5.943   5.451   0.463
  359TIP3    H1 1083   5.921   5.397   0.540
  359TIP3    H2 1084   6.038   5.445   0.456
  360TIP3   OH2 1085   1.313   5.444   4.436
  360TIP3    H1 1086   1.277   5.410   4.354
  360TIP3    H2 1087   1.399   5.402   4.444
  361TIP3   OH2 1088   2.859   0.570   1.243
  361TIP3    H1 1089   2.925   0.565   1.312
  361TIP3    H2 1090   2.896   0.518   1.171
  362TIP3   OH2 1091   1.767   0.587   2.991
  362TIP3    H1 1092   1.818   0.578   2.910
  362TIP3    H2 1093   1.738   0.678   2.991
  363TIP3   OH2 1094   5.157   4.279   4.955
  363TIP3    H1 1095   5.172   4.318   4.869
  363TIP3    H2 1096   5.234   4.303   5.007
  364TIP3   OH2 1097   5.262   2.637   5.193
  364TIP3    H1 1098   5.173   2.609   5.172
  364TIP3    H2 1099   5.276   2.715   5.140
  365TIP3   OH2 1100   5.192   2.182   4.951
  365TIP3    H1 1101   5.127   2.131   4.904
  365TIP3    H2 1102   5.260   2.200   4.886
  366TIP3   OH2 1103   5.617   0.019   3.729
  366TIP3    H1 1104   5.618   0.081   3.656
  366TIP3    H2 1105   5.703   0.027   3.770
  367TIP3   OH2 1106   5.028   0.618   3.394
  367TIP3    H1 1107   5.090   0.651   3.328
  367TIP3    H2 1108   4.959   0.576   3.342
  368TIP3   OH2 1109   4.305   3.115   1.240
  368TIP3    H1 1110   4.354   3.070   1.308
  368TIP3    H2 1111   4.240   3.167   1.288
  369TIP3   OH2 1112   6.024   3.595   4.727
  369TIP3    H1 1113   6.032   3.523   4.789
  369TIP3    H2 1114   6.109   3.639   4.730
  370TIP3   OH2 1115   3.390   0.918   1.835
  370TIP3    H1 1116   3.384   0.902   1.741
  370TIP3    H2 1117   3.412   0.833   1.873
  371TIP3   OH2 1118   5.333   0.572   2.353
  371TIP3    H1 1119   5.375   0.657   2.342
  371TIP3    H2 1120   5.264   0.569   2.287
  372TIP3   OH2 1121   3.427   0.372   0.790
  372TIP3    H1 1122   3.413   0.430   0.715
  372TIP3    H2 1123   3.463   0.291   0.752
  373TIP3   OH2 1124   3.415   2.262   3.075
  373TIP3    H1 1125   3.380   2.231   2.991
  373TIP3    H2 1126   3.408   2.186   3.133
  374TIP3   OH2 1127   3.250   1.680   0.724
  374TIP3    H1 1128   3.235   1.738   0.798
  374TIP3    H2 1129   3.165   1.674   0.680
  375TIP3   OH2 1130   5.688   1.773   2.477
  375TIP3    H1 1131   5.650   1.816   2.400
  375TIP3    H2 1132   5.781   1.793   2.472
  376TIP3   OH2 1133   1.467   3.721   0.171
  376TIP3    H1 1134   1.485   3.653   0.105
  376TIP3    H2 1135   1.545   3.723   0.226
  377TIP3   OH2 1136   5.642   1.586   0.623
  377TIP3    H1 1137   5.563   1.637   0.610
  377TIP3    H2 1138   5.713   1.650   0.621
  378TIP3   OH2 1139   3.943   0.114   0.264
  378TIP3    H1 1140   3.866   0.109   0.208
  378TIP3    H2 1141   3.988   0.031   0.251
  379TIP3   OH2 1142   3.890   0.949   0.949
  379TIP3    H1 1143   3.952   0.932   1.020
  379TIP3    H2 1144   3.805   0.923   0.985
  380TIP3   OH2 1145   0.410   0.063   0.864
  380TIP3    H1 1146   0.462   0.041   0.941
  380TIP3    H2 1147   0.358  -0.016   0.847
  381TIP3   OH2 1148   2.243   4.285   3.139
  381TIP3    H1 1149   2.296   4.363   3.124
  381TIP3    H2 1150   2.302   4.226   3.188
  382TIP3   OH2 1151   2.327   2.069   2.531
  382TIP3    H1 1152   2.239   2.102   2.512
  382TIP3    H2 1153   2.342   2.002   2.464
  383TIP3   OH2 1154   3.670   3.910   3.945
  383TIP3    H1 1155   3.578   3.887   3.959
  383TIP3    H2 1156   3.684   3.988   3.999
  384TIP3   OH2 1157   5.587   2.634   1.524
  384TIP3    H1 1158   5.642   2.625   1.447
  384TIP3    H2 1159   5.511   2.684   1.494
  385TIP3   OH2 1160   5.677   2.264   1.363
  385TIP3    H1 1161   5.769   2.252   1.386
  385TIP3    H2 1162   5.679   2.308   1.278
  386TIP3   OH2 1163  -0.030   1.449   1.613
  386TIP3    H1 1164   0.064   1.436   1.628
  386TIP3    H2 1165  -0.034   1.501   1.532
  387TIP3   OH2 1166   1.748   1.725   1.996
  387TIP3    H1 1167   1.663   1.765   1.984
  387TIP3    H2 1168   1.779   1.706   1.908
  388TIP3   OH2 1169   2.689   2.751   2.205
  388TIP3    H1 1170   2.595   2.761   2.191
  388TIP3    H2 1171   2.719   2.838   2.230
  389TIP3   OH2 1172   3.338   0.629   3.617
  389TIP3    H1 1173   3.429   0.655   3.605
  389TIP3    H2 1174   3.311   0.595   3.531
  390TIP3   OH2 1175   4.670   1.762   5.082
  390TIP3    H1 1176   4.756   1.721   5.070
  390TIP3    H2 1177   4.684   1.854   5.057
  391TIP3   OH2 1178   0.706   4.559   4.956
  391TIP3    H1 1179   0.617   4.594   4.955
  391TIP3    H2 1180   0.762   4.636   4.957
  392TIP3   OH2 1181   4.210   4.547   0.405
  392TIP3    H1 1182   4.273   4.604   0.449
  392TIP3    H2 1183   4.256   4.516   0.327
  393TIP3   OH2 1184   1.057   2.630   4.300
  393TIP3    H1 1185   1.096   2.655   4.216
  393TIP3    H2 1186   0.974   2.588   4.277
  394TIP3   OH2 1187   3.752   4.828   1.207
  394TIP3    H1 1188   3.727   4.914   1.172
  394TIP3    H2 1189   3.728   4.832   1.299
  395TIP3   OH2 1190   0.740   5.000   3.376
  395TIP3    H1 1191   0.765   5.054   3.301
  395TIP3    H2 1192   0.770   4.912   3.352
  396TIP3   OH2 1193   2.863   2.913   1.704
  396TIP3    H1 1194   2.948   2.872   1.714
  396TIP3    H2 1195   2.855   2.972   1.779
  397TIP3   OH2 1196   0.502   4.190   4.894
  397TIP3    H1 1197   0.507   4.276   4.852
  397TIP3    H2 1198   0.575   4.190   4.956
  398TIP3   OH2 1199   2.705   3.819   3.857
  398TIP3    H1 1200   2.624   3.810   3.908
  398TIP3    H2 1201   2.760   3.747   3.886
  399TIP3   OH2 1202   1.646   3.713   2.908
  399TIP3    H1 1203   1.589   3.721   2.984
  399TIP3    H2 1204   1.734   3.728   2.942
  400TIP3   OH2 1205   1.835   5.700   1.294
  400TIP3    H1 1206   1.818   5.785   1.253
  400TIP3    H2 1207   1.849   5.721   1.386
  401TIP3   OH2 1208   5.355   5.123   2.269
  401TIP3    H1 1209   5.423   5.183   2.240
  401TIP3    H2 1210   5.399   5.039   2.278
  402TIP3   OH2 1211   0.431   4.459   4.803
  402TIP3    H1 1212   0.419   4.535   4.745
  402TIP3    H2 1213   0.374   4.392   4.766
  403TIP3   OH2 1214   6.199   4.094   2.413
  403TIP3    H1 1215   6.175   4.072   2.323
  403TIP3    H2 1216   6.158   4.026   2.466
  404TIP3   OH2 1217   0.409   2.948   2.374
  404TIP3    H1 1218   0.430   2.950   2.467
  404TIP3    H2 1219   0.415   3.039   2.345
  405TIP3   OH2 1220   4.940   1.631   0.418
  405TIP3    H1 1221   4.947   1.608   0.325
  405TIP3    H2 1222   4.931   1.547   0.463
  406TIP3   OH2 1223   0.533   3.708   2.855
  406TIP3    H1 1224   0.547   3.709   2.761
  406TIP3    H2 1225   0.497   3.795   2.875
  407TIP3   OH2 1226   0.927   3.838   1.658
  407TIP3    H1 1227   0.934   3.743   1.666
  407TIP3    H2 1228   0.834   3.854   1.644
  408TIP3   OH2 1229   5.821   1.794   0.606
  408TIP3    H1 1230   5.758   1.860   0.575
  408TIP3    H2 1231   5.906   1.828   0.579
  409TIP3   OH2 1232   3.443   5.161   4.800
  409TIP3    H1 1233   3.501   5.203   4.864
  409TIP3    H2 1234   3.486   5.078   4.780
  410TIP3   OH2 1235   3.610   1.436   3.907
  410TIP3    H1 1236   3.609   1.419   3.813
  410TIP3    H2 1237   3.653   1.358   3.944
  411TIP3   OH2 1238   1.911   1.401   3.710
  411TIP3    H1 1239   1.913   1.388   3.615
  411TIP3    H2 1240   1.949   1.321   3.745
  412TIP3   OH2 1241   2.432   4.924   1.358
  412TIP3    H1 1242   2.520   4.956   1.341
  412TIP3    H2 1243   2.404   4.970   1.437
  413TIP3   OH2 1244   1.341   4.461   0.194
  413TIP3    H1 1245   1.335   4.504   0.109
  413TIP3    H2 1246   1.324   4.369   0.176
  414TIP3   OH2 1247   2.113   4.691   1.957
  414TIP3    H1 1248   2.105   4.684   2.052
  414TIP3    H2 1249   2.048   4.630   1.922
  415TIP3   OH2 1250   4.845   3.326   1.771
  415TIP3    H1 1251   4.836   3.240   1.811
  415TIP3    H2 1252   4.761   3.368   1.785
  416TIP3   OH2 1253   6.377   4.313   2.890
  416TIP3    H1 1254   6.452   4.266   2.926
  416TIP3    H2 1255   6.415   4.378   2.831
  417TIP3   OH2 1256   5.698   4.522   4.709
  417TIP3    H1 1257   5.634   4.577   4.665
  417TIP3    H2 1258   5.680   4.434   4.678
  418TIP3   OH2 1259   5.446   1.103   3.181
  418TIP3    H1 1260   5.522   1.115   3.124
  418TIP3    H2 1261   5.382   1.167   3.150
  419TIP3   OH2 1262   2.888   3.294   2.704
  419TIP3    H1 1263   2.903   3.216   2.756
  419TIP3    H2 1264   2.793   3.299   2.695
  420TIP3   OH2 1265   2.213   1.792   4.010
  420TIP3    H1 1266   2.235   1.719   4.067
  420TIP3    H2 1267   2.192   1.752   3.926
  421TIP3   OH2 1268   1.588   0.866   2.080
  421TIP3    H1 1269   1.677   0.841   2.058
  421TIP3    H2 1270   1.598   0.943   2.137
  422TIP3   OH2 1271   3.839   2.456   0.412
  422TIP3    H1 1272   3.846   2.530   0.473
  422TIP3    H2 1273   3.744   2.444   0.400
  423TIP3   OH2 1274   5.735   5.758   1.222
  423TIP3    H1 1275   5.743   5.804   1.306
  423TIP3    H2 1276   5.768   5.821   1.157
  424TIP3   OH2 1277   1.533   2.149   3.011
  424TIP3    H1 1278   1.527   2.204   3.089
  424TIP3    H2 1279   1.471   2.078   3.027
  425TIP3   OH2 1280   1.531   5.693   0.927
  425TIP3    H1 1281   1.500   5.615   0.881
  425TIP3    H2 1282   1.616   5.712   0.888
  426TIP3   OH2 1283   0.767   4.958   0.216
  426TIP3    H1 1284   0.862   4.966   0.207
  426TIP3    H2 1285   0.754   4.907   0.296
  427TIP3   OH2 1286   5.579   4.220   4.072
  427TIP3    H1 1287   5.612   4.256   3.990
  427TIP3    H2 1288   5.535   4.139   4.047
  428TIP3   OH2 1289   6.185   5.980   3.970
  428TIP3    H1 1290   6.198   5.895   4.012
  428TIP3    H2 1291   6.266   6.028   3.989
  429TIP3   OH2 1292   1.135   1.474   4.386
  429TIP3    H1 1293   1.191   1.453   4.311
  429TIP3    H2 1294   1.104   1.389   4.417
  430TIP3   OH2 1295   5.604   0.732   1.667
  430TIP3    H1 1296   5.642   0.655   1.625
  430TIP3    H2 1297   5.536   0.696   1.724
  431TIP3   OH2 1298   1.420   4.298   5.099
  431TIP3    H1 1299   1.354   4.344   5.048
  431TIP3    H2 1300   1.373   4.268   5.177
  432TIP3   OH2 1301   5.736   5.323   1.494
  432TIP3    H1 1302   5.746   5.418   1.497
  432TIP3    H2 1303   5.782   5.297   1.414
  433TIP3   OH2 1304   6.177   0.717   3.760
  433TIP3    H1 1305   6.132   0.696   3.678
  433TIP3    H2 1306   6.171   0.638   3.812
  434TIP3   OH2 1307   2.734   1.089   4.195
  434TIP3    H1 1308   2.740   1.032   4.118
  434TIP3    H2 1309   2.650   1.066   4.235
  435TIP3   OH2 1310   0.834   5.648   4.072
  435TIP3    H1 1311   0.911   5.607   4.032
  435TIP3    H2 1312   0.869   5.720   4.124
  436TIP3   OH2 1313   4.366   4.040   2.776
  436TIP3    H1 1314   4.317   4.106   2.825
  436TIP3    H2 1315   4.317   4.028   2.695
  437TIP3   OH2 1316   1.069   4.649   0.002
  437TIP3    H1 1317   1.076   4.744   0.005
  437TIP3    H2 1318   1.018   4.631  -0.077
  438TIP3   OH2 1319   0.607   3.058   0.298
  438TIP3    H1 1320   0.511   3.054   0.298
  438TIP3    H2 1321   0.629   3.107   0.377
  439TIP3   OH2 1322   4.724   3.019   1.189
  439TIP3    H1 1323   4.789   2.970   1.138
  439TIP3    H2 1324   4.765   3.032   1.274
  440TIP3   OH2 1325   3.127   5.242   0.697
  440TIP3    H1 1326   3.167   5.202   0.774
  440TIP3    H2 1327   3.139   5.336   0.710
  441TIP3   OH2 1328   6.102   2.461   3.022
  441TIP3    H1 1329   6.146   2.513   2.954
  441TIP3    H2 1330   6.054   2.526   3.073
  442TIP3   OH2 1331   4.658   5.101   4.551
  442TIP3    H1 1332   4.714   5.036   4.593
  442TIP3    H2 1333   4.704   5.184   4.563
  443TIP3   OH2 1334   1.019   4.254   1.889
  443TIP3    H1 1335   1.010   4.258   1.794
  443TIP3    H2 1336   0.953   4.190   1.916
  444TIP3   OH2 1337   3.441   1.345   2.454
  444TIP3    H1 1338   3.448   1.309   2.366
  444TIP3    H2 1339   3.406   1.433   2.442
  445TIP3   OH2 1340   3.669   5.545   4.593
  445TIP3    H1 1341   3.577   5.572   4.593
  445TIP3    H2 1342   3.683   5.510   4.505
  446TIP3   OH2 1343   1.585   3.898   4.224
  446TIP3    H1 1344   1.508   3.862   4.180
  446TIP3    H2 1345   1.557   3.986   4.252
  447TIP3   OH2 1346   1.830   0.172   2.437
  447TIP3    H1 1347   1.866   0.099   2.487
  447TIP3    H2 1348   1.883   0.247   2.462
  448TIP3   OH2 1349   5.320   2.436   2.271
  448TIP3    H1 1350   5.371   2.384   2.332
  448TIP3    H2 1351   5.382   2.499   2.235
  449TIP3   OH2 1352   2.639   2.860   1.303
  449TIP3    H1 1353   2.585   2.910   1.242
  449TIP3    H2 1354   2.685   2.926   1.354
  450TIP3   OH2 1355   2.665   0.968   1.006
  450TIP3    H1 1356   2.643   1.033   1.073
  450TIP3    H2 1357   2.598   0.979   0.939
  451TIP3   OH2 1358   1.268   1.161   2.795
  451TIP3    H1 1359   1.232   1.192   2.878
  451TIP3    H2 1360   1.264   1.236   2.737
  452TIP3   OH2 1361   3.571   1.814   1.716
  452TIP3    H1 1362   3.568   1.719   1.704
  452TIP3    H2 1363   3.480   1.841   1.716
  453TIP3   OH2 1364   5.800   4.912   0.335
  453TIP3    H1 1365   5.871   4.968   0.304
  453TIP3    H2 1366   5.834   4.873   0.416
  454TIP3   OH2 1367   1.861   2.297   2.930
  454TIP3    H1 1368   1.925   2.227   2.940
  454TIP3    H2 1369   1.839   2.323   3.019
  455TIP3   OH2 1370   4.312   1.405   4.538
  455TIP3    H1 1371   4.285   1.471   4.475
  455TIP3    H2 1372   4.233   1.387   4.589
  456TIP3   OH2 1373   3.571   1.552   4.893
  456TIP3    H1 1374   3.620   1.560   4.811
  456TIP3    H2 1375   3.534   1.464   4.890
  457TIP3   OH2 1376   1.570   0.162   0.156
  457TIP3    H1 1377   1.618   0.083   0.133
  457TIP3    H2 1378   1.525   0.139   0.238
  458TIP3   OH2 1379   2.822   4.695   1.603
  458TIP3    H1 1380   2.852   4.783   1.622
  458TIP3    H2 1381   2.808   4.694   1.508
  459TIP3   OH2 1382   5.472   0.589   0.494
  459TIP3    H1 1383   5.510   0.623   0.575
  459TIP3    H2 1384   5.534   0.615   0.426
  460TIP3   OH2 1385   6.128   5.650   2.272
  460TIP3    H1 1386   6.178   5.578   2.234
  460TIP3    H2 1387   6.036   5.625   2.260
  461TIP3   OH2 1388   5.791   4.658   0.116
  461TIP3    H1 1389   5.878   4.675   0.078
  461TIP3    H2 1390   5.793   4.702   0.201
  462TIP3   OH2 1391   3.218   3.254   3.022
  462TIP3    H1 1392   3.146   3.236   3.081
  462TIP3    H2 1393   3.182   3.315   2.958
  463TIP3   OH2 1394   3.425   5.096   3.836
  463TIP3    H1 1395   3.488   5.152   3.791
  463TIP3    H2 1396   3.368   5.064   3.767
  464TIP3   OH2 1397   5.290   4.380   4.059
  464TIP3    H1 1398   5.289   4.292   4.098
  464TIP3    H2 1399   5.294   4.364   3.965
  465TIP3   OH2 1400   0.323   3.825   3.095
  465TIP3    H1 1401   0.327   3.893   3.162
  465TIP3    H2 1402   0.332   3.872   3.012
  466TIP3   OH2 1403   4.703   3.049   3.691
  466TIP3    H1 1404   4.767   2.989   3.728
  466TIP3    H2 1405   4.697   3.024   3.599
  467TIP3   OH2 1406   3.618   2.084   3.761
  467TIP3    H1 1407   3.591   2.125   3.843
  467TIP3    H2 1408   3.699   2.037   3.783
  468TIP3   OH2 1409   0.224   3.595   2.816
  468TIP3    H1 1410   0.277   3.628   2.744
  468TIP3    H2 1411   0.135   3.621   2.795
  469TIP3   OH2 1412   3.138   5.775   2.639
  469TIP3    H1 1413   3.175   5.823   2.565
  469TIP3    H2 1414   3.057   5.737   2.605
  470TIP3   OH2 1415   2.683   2.736   0.765
  470TIP3    H1 1416   2.726   2.798   0.706
  470TIP3    H2 1417   2.625   2.790   0.818
  471TIP3   OH2 1418   0.818   4.307   0.228
  471TIP3    H1 1419   0.752   4.272   0.288
  471TIP3    H2 1420   0.888   4.241   0.230
  472TIP3   OH2 1421   4.426   1.641   5.081
  472TIP3    H1 1422   4.481   1.714   5.111
  472TIP3    H2 1423   4.489   1.573   5.055
  473TIP3   OH2 1424   6.121   1.310   1.331
  473TIP3    H1 1425   6.108   1.400   1.361
  473TIP3    H2 1426   6.173   1.319   1.251
  474TIP3   OH2 1427   6.072   3.286   0.515
  474TIP3    H1 1428   6.017   3.222   0.559
  474TIP3    H2 1429   6.044   3.370   0.551
  475TIP3   OH2 1430   1.672   5.002   1.377
  475TIP3    H1 1431   1.595   5.015   1.321
  475TIP3    H2 1432   1.732   4.951   1.322
  476TIP3   OH2 1433   3.978   1.989   3.173
  476TIP3    H1 1434   3.904   1.958   3.225
  476TIP3    H2 1435   3.938   2.045   3.106
  477TIP3   OH2 1436   1.943   0.452   2.468
  477TIP3    H1 1437   1.927   0.502   2.388
  477TIP3    H2 1438   1.857   0.442   2.508
  478TIP3   OH2 1439   2.810   2.463   0.060
  478TIP3    H1 1440   2.767   2.414  -0.010
  478TIP3    H2 1441   2.822   2.551   0.024
  479TIP3   OH2 1442   3.740   3.401   3.798
  479TIP3    H1 1443   3.722   3.475   3.740
  479TIP3    H2 1444   3.690   3.421   3.877
  480TIP3   OH2 1445   4.825   4.515   3.211
  480TIP3    H1 1446   4.914   4.483   3.199
  480TIP3    H2 1447   4.771   4.436   3.211
  481TIP3   OH2 1448   3.008   3.237   0.925
  481TIP3    H1 1449   3.048   3.284   0.998
  481TIP3    H2 1450   3.016   3.297   0.851
  482TIP3   OH2 1451   2.217   0.205   0.376
  482TIP3    H1 1452   2.263   0.283   0.406
  482TIP3    H2 1453   2.287   0.149   0.341
  483TIP3   OH2 1454   3.413   5.210   2.942
  483TIP3    H1 1455   3.390   5.145   2.876
  483TIP3    H2 1456   3.462   5.277   2.895
  484TIP3   OH2 1457   3.382   2.758   3.282
  484TIP3    H1 1458   3.341   2.679   3.247
  484TIP3    H2 1459   3.357   2.760   3.374
  485TIP3   OH2 1460   1.713   1.590   3.610
  485TIP3    H1 1461   1.802   1.560   3.623
  485TIP3    H2 1462   1.694   1.572   3.518
  486TIP3   OH2 1463  -0.011   4.908   0.717
  486TIP3    H1 1464  -0.089   4.871   0.758
  486TIP3    H2 1465   0.051   4.835   0.713
  487TIP3   OH2 1466   0.376   1.406   3.203
  487TIP3    H1 1467   0.422   1.324   3.180
  487TIP3    H2 1468   0.407   1.469   3.139
  488TIP3   OH2 1469   3.831   4.998   4.413
  488TIP3    H1 1470   3.788   5.027   4.333
  488TIP3    H2 1471   3.924   4.997   4.390
  489TIP3   OH2 1472   2.327   2.363   1.066
  489TIP3    H1 1473   2.262   2.297   1.088
  489TIP3    H2 1474   2.365   2.389   1.150
  490TIP3   OH2 1475   4.451   4.604   1.771
  490TIP3    H1 1476   4.508   4.529   1.756
  490TIP3    H2 1477   4.372   4.585   1.720
  491TIP3   OH2 1478   3.309   1.214   0.291
  491TIP3    H1 1479   3.382   1.258   0.334
  491TIP3    H2 1480   3.348   1.172   0.214
  492TIP3   OH2 1481   5.132   4.303   0.269
  492TIP3    H1 1482   5.053   4.292   0.321
  492TIP3    H2 1483   5.197   4.248   0.313
  493TIP3   OH2 1484   5.693   5.007   2.995
  493TIP3    H1 1485   5.598   5.019   2.988
  493TIP3    H2 1486   5.730   5.093   2.973
  494TIP3   OH2 1487   1.710   5.133   5.050
  494TIP3    H1 1488   1.780   5.077   5.083
  494TIP3    H2 1489   1.634   5.109   5.103
  495TIP3   OH2 1490   2.157   0.237   0.731
  495TIP3    H1 1491   2.119   0.165   0.680
  495TIP3    H2 1492   2.190   0.196   0.811
  496TIP3   OH2 1493   4.074   4.364   5.039
  496TIP3    H1 1494   4.029   4.324   4.964
  496TIP3    H2 1495   4.012   4.429   5.071
  497TIP3   OH2 1496   5.081   4.542   2.789
  497TIP3    H1 1497   5.049   4.452   2.788
  497TIP3    H2 1498   5.173   4.535   2.814
  498TIP3   OH2 1499   0.016   2.820   3.787
  498TIP3    H1 1500   0.016   2.886   3.856
  498TIP3    H2 1501   0.024   2.736   3.833
  499TIP3   OH2 1502   3.096   2.532   2.916
  499TIP3    H1 1503   3.040   2.457   2.933
  499TIP3    H2 1504   3.063   2.569   2.834
  500TIP3   OH2 1505   0.199   4.954   3.810
  500TIP3    H1 1506   0.202   5.040   3.768
  500TIP3    H2 1507   0.283   4.946   3.854
  501TIP3   OH2 1508   3.108   4.571   3.657
  501TIP3    H1 1509   3.026   4.551   3.701
  501TIP3    H2 1510   3.149   4.485   3.643
  502TIP3   OH2 1511   4.080   5.904   4.417
  502TIP3    H1 1512   4.101   5.851   4.495
  502TIP3    H2 1513   3.985   5.914   4.420
  503TIP3   OH2 1514   0.540   5.845   1.863
  503TIP3    H1 1515   0.526   5.914   1.927
  503TIP3    H2 1516   0.517   5.885   1.779
  504TIP3   OH2 1517   3.543   1.671   3.527
  504TIP3    H1 1518   3.473   1.616   3.491
  504TIP3    H2 1519   3.623   1.621   3.513
  505TIP3   OH2 1520  -0.036   5.007   3.412
  505TIP3    H1 1521  -0.004   5.027   3.324
  505TIP3    H2 1522   0.044   4.989   3.462
  506TIP3   OH2 1523   2.143   5.127   0.837
  506TIP3    H1 1524   2.230   5.140   0.874
  506TIP3    H2 1525   2.157   5.121   0.743
  507TIP3   OH2 1526   3.900   0.601   4.861
  507TIP3    H1 1527   3.919   0.523   4.809
  507TIP3    H2 1528   3.970   0.662   4.838
  508TIP3   OH2 1529   2.661   5.928   0.083
  508TIP3    H1 1530   2.643   5.835   0.098
  508TIP3    H2 1531   2.734   5.947   0.141
  509TIP3   OH2 1532   3.901   5.475   0.511
  509TIP3    H1 1533   3.993   5.457   0.494
  509TIP3    H2 1534   3.856   5.443   0.433
  510TIP3   OH2 1535   3.402   4.111   2.763
  510TIP3    H1 1536   3.452   4.166   2.702
  510TIP3    H2 1537   3.458   4.105   2.841
  511TIP3   OH2 1538   5.706   4.796   4.505
  511TIP3    H1 1539   5.661   4.879   4.523
  511TIP3    H2 1540   5.634   4.733   4.491
  512TIP3   OH2 1541   3.815   0.799   4.430
  512TIP3    H1 1542   3.875   0.866   4.397
  512TIP3    H2 1543   3.769   0.767   4.353
  513TIP3   OH2 1544   0.955   4.778   1.838
  513TIP3    H1 1545   0.921   4.691   1.860
  513TIP3    H2 1546   0.889   4.839   1.871
  514TIP3   OH2 1547   4.542   4.318   4.110
  514TIP3    H1 1548   4.593   4.290   4.035
  514TIP3    H2 1549   4.553   4.413   4.112
  515TIP3   OH2 1550   0.185   4.599   2.033
  515TIP3    H1 1551   0.263   4.584   1.979
  515TIP3    H2 1552   0.156   4.511   2.058
  516TIP3   OH2 1553   0.514   5.379   1.217
  516TIP3    H1 1554   0.485   5.289   1.222
  516TIP3    H2 1555   0.553   5.388   1.130
  517TIP3   OH2 1556   2.081   3.988   4.209
  517TIP3    H1 1557   2.098   4.012   4.118
  517TIP3    H2 1558   2.111   4.063   4.260
  518TIP3   OH2 1559   5.429   3.276   4.934
  518TIP3    H1 1560   5.486   3.344   4.970
  518TIP3    H2 1561   5.472   3.194   4.956
  519TIP3   OH2 1562   0.952   5.185   2.230
  519TIP3    H1 1563   0.878   5.132   2.261
  519TIP3    H2 1564   0.913   5.271   2.211
  520TIP3   OH2 1565   4.912   5.097   4.900
  520TIP3    H1 1566   4.970   5.129   4.831
  520TIP3    H2 1567   4.854   5.035   4.855
  521TIP3   OH2 1568   3.006   4.153   3.062
  521TIP3    H1 1569   3.056   4.179   2.984
  521TIP3    H2 1570   3.071   4.115   3.121
  522TIP3   OH2 1571   3.469   2.617   4.924
  522TIP3    H1 1572   3.432   2.660   5.001
  522TIP3    H2 1573   3.558   2.652   4.917
  523TIP3   OH2 1574   5.745   2.637   1.307
  523TIP3    H1 1575   5.810   2.694   1.347
  523TIP3    H2 1576   5.797   2.578   1.252
  524TIP3   OH2 1577   4.431   0.770   4.743
  524TIP3    H1 1578   4.439   0.724   4.660
  524TIP3    H2 1579   4.457   0.860   4.724
  525TIP3   OH2 1580   5.646   5.111   2.240
  525TIP3    H1 1581   5.645   5.117   2.144
  525TIP3    H2 1582   5.666   5.018   2.257
  526TIP3   OH2 1583   5.747   3.548   0.133
  526TIP3    H1 1584   5.839   3.526   0.116
  526TIP3    H2 1585   5.697   3.484   0.082
  527TIP3   OH2 1586   2.923   0.083   2.038
  527TIP3    H1 1587   2.949   0.102   2.128
  527TIP3    H2 1588   2.835   0.121   2.030
  528TIP3   OH2 1589   1.272   1.239   1.106
  528TIP3    H1 1590   1.182   1.271   1.096
  528TIP3    H2 1591   1.273   1.154   1.061
  529TIP3   OH2 1592   2.805   0.742   0.789
  529TIP3    H1 1593   2.800   0.766   0.696
  529TIP3    H2 1594   2.720   0.701   0.807
  530TIP3   OH2 1595   0.831   2.508   1.388
  530TIP3    H1 1596   0.771   2.509   1.313
  530TIP3    H2 1597   0.909   2.555   1.356
  531TIP3   OH2 1598   3.726   5.693   0.504
  531TIP3    H1 1599   3.723   5.733   0.417
  531TIP3    H2 1600   3.774   5.611   0.491
  532TIP3   OH2 1601   4.777   1.512   4.604
  532TIP3    H1 1602   4.719   1.531   4.678
  532TIP3    H2 1603   4.742   1.566   4.533
  533TIP3   OH2 1604   4.621   1.042   4.193
  533TIP3    H1 1605   4.538   1.073   4.231
  533TIP3    H2 1606   4.595   0.999   4.111
  534TIP3   OH2 1607   3.211   5.813   1.616
  534TIP3    H1 1608   3.116   5.814   1.601
  534TIP3    H2 1609   3.247   5.871   1.549
  535TIP3   OH2 1610   3.482   2.956   4.533
  535TIP3    H1 1611   3.576   2.941   4.546
  535TIP3    H2 1612   3.455   3.007   4.609
  536TIP3   OH2 1613   3.330   5.225   3.196
  536TIP3    H1 1614   3.371   5.235   3.111
  536TIP3    H2 1615   3.378   5.286   3.253
  537TIP3   OH2 1616   3.456   5.231   1.162
  537TIP3    H1 1617   3.432   5.315   1.122
  537TIP3    H2 1618   3.375   5.198   1.200
  538TIP3   OH2 1619   0.627   1.202   2.409
  538TIP3    H1 1620   0.611   1.249   2.492
  538TIP3    H2 1621   0.699   1.250   2.368
  539TIP3   OH2 1622   0.637   1.313   3.384
  539TIP3    H1 1623   0.547   1.333   3.412
  539TIP3    H2 1624   0.673   1.398   3.357
  540TIP3   OH2 1625   1.182   2.029   1.867
  540TIP3    H1 1626   1.184   1.935   1.848
  540TIP3    H2 1627   1.273   2.053   1.879
  541TIP3   OH2 1628   2.287   3.054   0.420
  541TIP3    H1 1629   2.323   2.966   0.414
  541TIP3    H2 1630   2.295   3.089   0.332
  542TIP3   OH2 1631   4.301   0.187   3.582
  542TIP3    H1 1632   4.391   0.160   3.599
  542TIP3    H2 1633   4.249   0.107   3.586
  543TIP3   OH2 1634   1.136   3.149   4.900
  543TIP3    H1 1635   1.098   3.168   4.986
  543TIP3    H2 1636   1.196   3.222   4.884
  544TIP3   OH2 1637   0.970   2.278   2.748
  544TIP3    H1 1638   0.977   2.223   2.670
  544TIP3    H2 1639   0.881   2.312   2.746
  545TIP3   OH2 1640   5.168   3.923   3.246
  545TIP3    H1 1641   5.184   3.830   3.229
  545TIP3    H2 1642   5.127   3.956   3.166
  546TIP3   OH2 1643   0.926   5.572   3.067
  546TIP3    H1 1644   0.942   5.663   3.043
  546TIP3    H2 1645   0.861   5.541   3.005
  547TIP3   OH2 1646   0.479   4.943   1.441
  547TIP3    H1 1647   0.452   4.852   1.429
  547TIP3    H2 1648   0.547   4.957   1.375
  548TIP3   OH2 1649   3.179   1.055   0.750
  548TIP3    H1 1650   3.083   1.058   0.747
  548TIP3    H2 1651   3.198   0.982   0.808
  549TIP3   OH2 1652   3.703   2.750   4.891
  549TIP3    H1 1653   3.765   2.822   4.875
  549TIP3    H2 1654   3.747   2.672   4.856
  550TIP3   OH2 1655   0.636   2.404   2.186
  550TIP3    H1 1656   0.692   2.327   2.187
  550TIP3    H2 1657   0.569   2.384   2.121
  551TIP3   OH2 1658   3.092   0.749   3.409
  551TIP3    H1 1659   3.129   0.827   3.450
  551TIP3    H2 1660   3.122   0.676   3.462
  552TIP3   OH2 1661   0.920   0.065   1.262
  552TIP3    H1 1662   1.012   0.093   1.266
  552TIP3    H2 1663   0.924  -0.024   1.226
  553TIP3   OH2 1664   2.799   3.173   4.985
  553TIP3    H1 1665   2.738   3.205   5.052
  553TIP3    H2 1666   2.757   3.195   4.902
  554TIP3   OH2 1667   6.345   1.732   2.858
  554TIP3    H1 1668   6.416   1.778   2.903
  554TIP3    H2 1669   6.390   1.669   2.801
  555TIP3   OH2 1670   0.516   4.711   1.968
  555TIP3    H1 1671   0.572   4.717   2.046
  555TIP3    H2 1672   0.480   4.799   1.957
  556TIP3   OH2 1673   6.062   2.884   4.628
  556TIP3    H1 1674   6.153   2.914   4.623
  556TIP3    H2 1675   6.028   2.901   4.540
  557TIP3   OH2 1676   0.735   4.282   3.588
  557TIP3    H1 1677   0.768   4.226   3.658
  557TIP3    H2 1678   0.643   4.296   3.609
  558TIP3   OH2 1679   0.550   0.820   0.232
  558TIP3    H1 1680   0.510   0.740   0.198
  558TIP3    H2 1681   0.572   0.871   0.153
  559TIP3   OH2 1682   2.326   4.342   3.740
  559TIP3    H1 1683   2.290   4.267   3.787
  559TIP3    H2 1684   2.328   4.413   3.805
  560TIP3   OH2 1685   0.525   2.324   4.818
  560TIP3    H1 1686   0.558   2.266   4.887
  560TIP3    H2 1687   0.601   2.344   4.764
  561TIP3   OH2 1688   3.542   5.025   3.561
  561TIP3    H1 1689   3.562   5.015   3.468
  561TIP3    H2 1690   3.512   4.938   3.589
  562TIP3   OH2 1691   4.640   1.100   2.939
  562TIP3    H1 1692   4.575   1.153   2.985
  562TIP3    H2 1693   4.651   1.022   2.993
  563TIP3   OH2 1694   1.596   3.578   3.971
  563TIP3    H1 1695   1.602   3.487   3.942
  563TIP3    H2 1696   1.641   3.628   3.903
  564TIP3   OH2 1697   3.821   3.749   2.014
  564TIP3    H1 1698   3.796   3.769   1.923
  564TIP3    H2 1699   3.741   3.715   2.053
  565TIP3   OH2 1700   6.235   2.782   2.273
  565TIP3    H1 1701   6.232   2.703   2.219
  565TIP3    H2 1702   6.328   2.803   2.280
  566TIP3   OH2 1703   6.122   2.758   0.670
  566TIP3    H1 1704   6.088   2.761   0.759
  566TIP3    H2 1705   6.050   2.723   0.618
  567TIP3   OH2 1706   0.619   1.203   1.530
  567TIP3    H1 1707   0.678   1.171   1.462
  567TIP3    H2 1708   0.563   1.128   1.550
  568TIP3   OH2 1709   0.405   1.048   1.598
  568TIP3    H1 1710   0.395   0.970   1.544
  568TIP3    H2 1711   0.315   1.070   1.625
  569TIP3   OH2 1712   3.330   0.141   2.865
  569TIP3    H1 1713   3.331   0.157   2.959
  569TIP3    H2 1714   3.389   0.067   2.852
  570TIP3   OH2 1715   2.330   5.653   1.906
  570TIP3    H1 1716   2.318   5.563   1.934
  570TIP3    H2 1717   2.247   5.696   1.926
  571TIP3   OH2 1718   3.541   4.943   4.668
  571TIP3    H1 1719   3.540   4.928   4.573
  571TIP3    H2 1720   3.550   4.856   4.706
  572TIP3   OH2 1721   2.530   0.215   4.765
  572TIP3    H1 1722   2.573   0.293   4.730
  572TIP3    H2 1723   2.486   0.176   4.690
  573TIP3   OH2 1724   0.086   5.455   4.380
  573TIP3    H1 1725   0.005   5.495   4.412
  573TIP3    H2 1726   0.058   5.394   4.312
  574TIP3   OH2 1727   1.694   2.947   4.406
  574TIP3    H1 1728   1.716   3.040   4.398
  574TIP3    H2 1729   1.663   2.922   4.319
  575TIP3   OH2 1730   1.705   0.747   2.491
  575TIP3    H1 1731   1.662   0.722   2.573
  575TIP3    H2 1732   1.773   0.808   2.518
  576TIP3   OH2 1733   5.857   4.750   0.575
  576TIP3    H1 1734   5.850   4.771   0.669
  576TIP3    H2 1735   5.947   4.719   0.565
  577TIP3   OH2 1736   5.032   2.347   0.974
  577TIP3    H1 1737   4.988   2.262   0.966
  577TIP3    H2 1738   5.124   2.326   0.989
  578TIP3   OH2 1739   1.843   4.181   2.336
  578TIP3    H1 1740   1.856   4.162   2.429
  578TIP3    H2 1741   1.926   4.161   2.295
  579TIP3   OH2 1742   2.964   2.248   0.106
  579TIP3    H1 1743   2.916   2.190   0.165
  579TIP3    H2 1744   2.910   2.327   0.101
  580TIP3   OH2 1745   5.596   4.310   4.560
  580TIP3    H1 1746   5.597   4.218   4.537
  580TIP3    H2 1747   5.545   4.352   4.490
  581TIP3   OH2 1748   4.798   1.485   4.068
  581TIP3    H1 1749   4.724   1.518   4.119
  581TIP3    H2 1750   4.799   1.538   3.989
  582TIP3   OH2 1751   6.200   2.323   5.005
  582TIP3    H1 1752   6.128   2.259   5.002
  582TIP3    H2 1753   6.271   2.282   4.955
  583TIP3   OH2 1754   5.255   3.297   4.269
  583TIP3    H1 1755   5.309   3.219   4.258
  583TIP3    H2 1756   5.292   3.361   4.210
  584TIP3   OH2 1757   2.943   2.144   0.585
  584TIP3    H1 1758   2.865   2.157   0.639
  584TIP3    H2 1759   2.934   2.207   0.514
  585TIP3   OH2 1760   6.309   5.014   4.121
  585TIP3    H1 1761   6.294   5.087   4.180
  585TIP3    H2 1762   6.240   4.951   4.142
  586TIP3   OH2 1763   0.150   3.500   4.757
  586TIP3    H1 1764   0.192   3.419   4.727
  586TIP3    H2 1765   0.222   3.562   4.767
  587TIP3   OH2 1766   0.151   0.742   1.085
  587TIP3    H1 1767   0.219   0.806   1.066
  587TIP3    H2 1768   0.070   0.784   1.057
  588TIP3   OH2 1769   5.882   1.567   2.031
  588TIP3    H1 1770   5.898   1.643   1.976
  588TIP3    H2 1771   5.898   1.492   1.973
  589TIP3   OH2 1772   5.187   0.492   2.561
  589TIP3    H1 1773   5.253   0.517   2.497
  589TIP3    H2 1774   5.174   0.570   2.614
  590TIP3   OH2 1775   4.127   5.564   5.134
  590TIP3    H1 1776   4.153   5.577   5.043
  590TIP3    H2 1777   4.184   5.621   5.185
  591TIP3   OH2 1778   2.285   0.818   0.335
  591TIP3    H1 1779   2.237   0.748   0.291
  591TIP3    H2 1780   2.227   0.894   0.326
  592TIP3   OH2 1781   2.906   5.982   5.096
  592TIP3    H1 1782   2.849   5.911   5.125
  592TIP3    H2 1783   2.944   6.017   5.176
  593TIP3   OH2 1784   0.113   4.499   4.928
  593TIP3    H1 1785   0.153   4.514   5.014
  593TIP3    H2 1786   0.115   4.585   4.886
  594TIP3   OH2 1787   2.690   5.326   1.404
  594TIP3    H1 1788   2.650   5.367   1.481
  594TIP3    H2 1789   2.754   5.390   1.374
  595TIP3   OH2 1790   4.818   3.311   3.613
  595TIP3    H1 1791   4.732   3.344   3.586
  595TIP3    H2 1792   4.803   3.274   3.700
  596TIP3   OH2 1793   1.019   2.369   0.729
  596TIP3    H1 1794   1.003   2.324   0.812
  596TIP3    H2 1795   1.062   2.451   0.755
  597TIP3   OH2 1796   0.661   0.264   0.194
  597TIP3    H1 1797   0.605   0.210   0.249
  597TIP3    H2 1798   0.730   0.295   0.252
  598TIP3   OH2 1799   4.059   4.194   2.518
  598TIP3    H1 1800   4.135   4.251   2.515
  598TIP3    H2 1801   3.987   4.251   2.546
  599TIP3   OH2 1802   3.019   0.702   3.796
  599TIP3    H1 1803   3.090   0.715   3.733
  599TIP3    H2 1804   3.021   0.780   3.851
  600TIP3   OH2 1805   4.790   2.957   2.109
  600TIP3    H1 1806   4.836   2.971   2.192
  600TIP3    H2 1807   4.743   2.875   2.121
  601TIP3   OH2 1808   5.395   0.112   4.656
  601TIP3    H1 1809   5.325   0.170   4.686
  601TIP3    H2 1810   5.416   0.144   4.568
  602TIP3   OH2 1811   0.289   0.793   0.598
  602TIP3    H1 1812   0.352   0.747   0.653
  602TIP3    H2 1813   0.338   0.815   0.519
  603TIP3   OH2 1814   3.316   1.336   4.146
  603TIP3    H1 1815   3.239   1.337   4.204
  603TIP3    H2 1816   3.312   1.251   4.103
  604TIP3   OH2 1817   5.091   2.663   3.233
  604TIP3    H1 1818   5.112   2.602   3.162
  604TIP3    H2 1819   5.169   2.665   3.287
  605TIP3   OH2 1820   0.875   3.196   4.556
  605TIP3    H1 1821   0.960   3.207   4.513
  605TIP3    H2 1822   0.886   3.118   4.611
  606TIP3   OH2 1823   0.860   4.339   3.986
  606TIP3    H1 1824   0.814   4.406   3.935
  606TIP3    H2 1825   0.911   4.389   4.050
  607TIP3   OH2 1826   1.791   4.986   4.425
  607TIP3    H1 1827   1.715   4.956   4.476
  607TIP3    H2 1828   1.799   5.079   4.449
  608TIP3   OH2 1829   3.562   2.119   1.179
  608TIP3    H1 1830   3.546   2.145   1.270
  608TIP3    H2 1831   3.650   2.151   1.160
  609TIP3   OH2 1832   4.161   1.468   2.897
  609TIP3    H1 1833   4.202   1.516   2.825
  609TIP3    H2 1834   4.074   1.507   2.906
  610TIP3   OH2 1835   5.645   4.019   2.031
  610TIP3    H1 1836   5.626   3.986   2.119
  610TIP3    H2 1837   5.564   4.003   1.982
  611TIP3   OH2 1838   0.014   1.711   0.976
  611TIP3    H1 1839   0.052   1.785   1.022
  611TIP3    H2 1840   0.062   1.706   0.894
  612TIP3   OH2 1841   3.152   2.284   0.309
  612TIP3    H1 1842   3.122   2.364   0.265
  612TIP3    H2 1843   3.092   2.216   0.278
  613TIP3   OH2 1844   5.099   0.928   1.767
  613TIP3    H1 1845   5.019   0.893   1.805
  613TIP3    H2 1846   5.072   0.965   1.683
  614TIP3   OH2 1847   2.709   4.176   2.532
  614TIP3    H1 1848   2.718   4.157   2.626
  614TIP3    H2 1849   2.621   4.214   2.524
  615TIP3   OH2 1850   2.750   5.217   3.141
  615TIP3    H1 1851   2.795   5.135   3.159
  615TIP3    H2 1852   2.718   5.246   3.226
  616TIP3   OH2 1853   5.289  -0.013   2.441
  616TIP3    H1 1854   5.295   0.077   2.409
  616TIP3    H2 1855   5.197  -0.036   2.431
  617TIP3   OH2 1856   2.394   0.726   2.973
  617TIP3    H1 1857   2.467   0.783   3.000
  617TIP3    H2 1858   2.316   0.780   2.984
  618TIP3   OH2 1859   0.460   4.998   2.177
  618TIP3    H1 1860   0.383   4.942   2.169
  618TIP3    H2 1861   0.500   4.973   2.260
  619TIP3   OH2 1862   5.482   5.257   3.615
  619TIP3    H1 1863   5.398   5.278   3.657
  619TIP3    H2 1864   5.497   5.165   3.636
  620TIP3   OH2 1865   3.182   5.860   3.476
  620TIP3    H1 1866   3.251   5.862   3.543
  620TIP3    H2 1867   3.180   5.948   3.441
  621TIP3   OH2 1868   5.399   2.523   0.637
  621TIP3    H1 1869   5.310   2.493   0.656
  621TIP3    H2 1870   5.434   2.550   0.722
  622TIP3   OH2 1871   5.035   0.094   1.181
  622TIP3    H1 1872   4.970   0.111   1.113
  622TIP3    H2 1873   5.068   0.181   1.205
  623TIP3   OH2 1874   3.188   1.413   4.833
  623TIP3    H1 1875   3.105   1.417   4.881
  623TIP3    H2 1876   3.206   1.504   4.810
  624TIP3   OH2 1877   0.498   2.354   0.171
  624TIP3    H1 1878   0.468   2.334   0.259
  624TIP3    H2 1879   0.588   2.384   0.182
  625TIP3   OH2 1880   2.237   1.973   2.233
  625TIP3    H1 1881   2.294   1.897   2.228
  625TIP3    H2 1882   2.158   1.948   2.185
  626TIP3   OH2 1883   0.996   0.865   3.447
  626TIP3    H1 1884   0.923   0.924   3.464
  626TIP3    H2 1885   0.963   0.779   3.474
  627TIP3   OH2 1886   4.005   1.153   2.805
  627TIP3    H1 1887   3.999   1.227   2.744
  627TIP3    H2 1888   4.081   1.104   2.776
  628TIP3   OH2 1889   5.092   2.551   4.499
  628TIP3    H1 1890   5.168   2.531   4.554
  628TIP3    H2 1891   5.130   2.574   4.414
  629TIP3   OH2 1892   3.436   1.296   4.878
  629TIP3    H1 1893   3.428   1.259   4.966
  629TIP3    H2 1894   3.349   1.331   4.858
  630TIP3   OH2 1895   6.004   2.815   4.219
  630TIP3    H1 1896   6.082   2.872   4.225
  630TIP3    H2 1897   6.035   2.729   4.248
  631TIP3   OH2 1898   5.612   1.312   4.264
  631TIP3    H1 1899   5.694   1.321   4.214
  631TIP3    H2 1900   5.553   1.265   4.205
  632TIP3   OH2 1901   4.441   3.732   3.945
  632TIP3    H1 1902   4.490   3.710   4.025
  632TIP3    H2 1903   4.351   3.704   3.964
  633TIP3   OH2 1904   4.697   1.750   0.513
  633TIP3    H1 1905   4.657   1.666   0.536
  633TIP3    H2 1906   4.778   1.727   0.468
  634TIP3   OH2 1907   2.428   3.544   1.314
  634TIP3    H1 1908   2.442   3.493   1.394
  634TIP3    H2 1909   2.479   3.624   1.326
  635TIP3   OH2 1910   3.891   2.959   3.298
  635TIP3    H1 1911   3.843   3.042   3.295
  635TIP3    H2 1912   3.824   2.892   3.311
  636TIP3   OH2 1913   5.535   4.865   4.783
  636TIP3    H1 1914   5.622   4.831   4.803
  636TIP3    H2 1915   5.521   4.935   4.846
  637TIP3   OH2 1916   0.313   4.318   4.575
  637TIP3    H1 1917   0.248   4.255   4.605
  637TIP3    H2 1918   0.263   4.397   4.555
  638TIP3   OH2 1919   2.786   1.191   0.162
  638TIP3    H1 1920   2.876   1.187   0.192
  638TIP3    H2 1921   2.738   1.231   0.234
  639TIP3   OH2 1922   4.483   1.401   0.304
  639TIP3    H1 1923   4.499   1.484   0.348
  639TIP3    H2 1924   4.460   1.426   0.214
  640TIP3   OH2 1925   0.652   2.838   0.097
  640TIP3    H1 1926   0.616   2.908   0.152
  640TIP3    H2 1927   0.707   2.788   0.157
  641TIP3   OH2 1928   4.034   0.240   5.081
  641TIP3    H1 1929   4.127   0.260   5.079
  641TIP3    H2 1930   4.008   0.235   4.989
  642TIP3   OH2 1931   5.941   1.218   4.967
  642TIP3    H1 1932   5.891   1.286   5.011
  642TIP3    H2 1933   5.922   1.230   4.874
  643TIP3   OH2 1934   6.270   1.511   0.266
  643TIP3    H1 1935   6.261   1.435   0.324
  643TIP3    H2 1936   6.196   1.567   0.288
  644TIP3   OH2 1937   5.501   0.726   4.757
  644TIP3    H1 1938   5.590   0.756   4.776
  644TIP3    H2 1939   5.483   0.660   4.824
  645TIP3   OH2 1940   3.126   3.412   1.129
  645TIP3    H1 1941   3.097   3.496   1.164
  645TIP3    H2 1942   3.201   3.388   1.184
  646TIP3   OH2 1943   5.796   3.783   2.251
  646TIP3    H1 1944   5.807   3.695   2.286
  646TIP3    H2 1945   5.727   3.822   2.305
  647TIP3   OH2 1946   3.024   0.214   2.950
  647TIP3    H1 1947   2.934   0.244   2.965
  647TIP3    H2 1948   3.058   0.193   3.037
  648TIP3   OH2 1949   4.473   1.834   4.588
  648TIP3    H1 1950   4.453   1.803   4.676
  648TIP3    H2 1951   4.524   1.763   4.549
  649TIP3   OH2 1952   1.461   2.932   2.701
  649TIP3    H1 1953   1.479   2.985   2.778
  649TIP3    H2 1954   1.412   2.857   2.734
  650TIP3   OH2 1955   0.151   1.380   1.276
  650TIP3    H1 1956   0.174   1.378   1.183
  650TIP3    H2 1957   0.235   1.383   1.321
  651TIP3   OH2 1958   5.672   4.531   3.438
  651TIP3    H1 1959   5.744   4.469   3.422
  651TIP3    H2 1960   5.655   4.569   3.352
  652TIP3   OH2 1961   4.251   2.282   3.557
  652TIP3    H1 1962   4.268   2.356   3.499
  652TIP3    H2 1963   4.231   2.209   3.498
  653TIP3   OH2 1964   0.459   1.761   3.892
  653TIP3    H1 1965   0.553   1.759   3.874
  653TIP3    H2 1966   0.424   1.686   3.844
  654TIP3   OH2 1967   3.526   5.792   1.415
  654TIP3    H1 1968   3.536   5.745   1.498
  654TIP3    H2 1969   3.434   5.780   1.392
  655TIP3   OH2 1970   4.833   3.070   0.850
  655TIP3    H1 1971   4.774   3.144   0.860
  655TIP3    H2 1972   4.891   3.075   0.927
  656TIP3   OH2 1973   5.171   5.083   0.248
  656TIP3    H1 1974   5.155   5.177   0.233
  656TIP3    H2 1975   5.116   5.062   0.324
  657TIP3   OH2 1976   4.538   1.574   3.185
  657TIP3    H1 1977   4.614   1.553   3.238
  657TIP3    H2 1978   4.502   1.489   3.160
  658TIP3   OH2 1979   3.688   5.152   1.663
  658TIP3    H1 1980   3.620   5.160   1.597
  658TIP3    H2 1981   3.685   5.060   1.690
  659TIP3   OH2 1982   4.708   2.270   1.025
  659TIP3    H1 1983   4.718   2.360   1.055
  659TIP3    H2 1984   4.702   2.277   0.930
  660TIP3   OH2 1985   4.805   3.996   1.512
  660TIP3    H1 1986   4.865   3.957   1.576
  660TIP3    H2 1987   4.730   3.936   1.509
  661TIP3   OH2 1988   3.604   5.147   2.018
  661TIP3    H1 1989   3.637   5.166   1.930
  661TIP3    H2 1990   3.587   5.053   2.018
  662TIP3   OH2 1991   3.667   1.054   3.204
  662TIP3    H1 1992   3.619   1.016   3.131
  662TIP3    H2 1993   3.756   1.020   3.195
  663TIP3   OH2 1994   3.080   4.275   1.895
  663TIP3    H1 1995   3.105   4.338   1.827
  663TIP3    H2 1996   3.071   4.328   1.975
  664TIP3   OH2 1997   3.367   2.226   0.485
  664TIP3    H1 1998   3.326   2.236   0.571
  664TIP3    H2 1999   3.295   2.232   0.423
  665TIP3   OH2 2000   5.315   1.809   1.211
  665TIP3    H1 2001   5.383   1.742   1.220
  665TIP3    H2 2002   5.341   1.860   1.135
  666TIP3   OH2 2003   5.121   4.461   4.710
  666TIP3    H1 2004   5.078   4.482   4.793
  666TIP3    H2 2005   5.176   4.537   4.691
  667TIP3   OH2 2006   1.633   0.765   0.898
  667TIP3    H1 2007   1.623   0.825   0.825
  667TIP3    H2 2008   1.725   0.740   0.897
  668TIP3   OH2 2009   0.998   3.479   4.299
  668TIP3    H1 2010   1.047   3.507   4.377
  668TIP3    H2 2011   0.930   3.545   4.288
  669TIP3   OH2 2012   2.460   4.825   4.893
  669TIP3    H1 2013   2.546   4.844   4.856
  669TIP3    H2 2014   2.472   4.837   4.987
  670TIP3   OH2 2015   3.716   3.572   1.274
  670TIP3    H1 2016   3.687   3.520   1.199
  670TIP3    H2 2017   3.709   3.512   1.349
  671TIP3   OH2 2018   3.023   4.433   0.757
  671TIP3    H1 2019   3.112   4.457   0.784
  671TIP3    H2 2020   2.989   4.511   0.714
  672TIP3   OH2 2021   1.148   0.978   5.199
  672TIP3    H1 2022   1.242   0.968   5.185
  672TIP3    H2 2023   1.109   0.959   5.114
  673TIP3   OH2 2024   1.985   1.548   4.210
  673TIP3    H1 2025   1.948   1.517   4.127
  673TIP3    H2 2026   2.035   1.473   4.243
  674TIP3   OH2 2027   1.213   5.085   0.237
  674TIP3    H1 2028   1.203   5.023   0.310
  674TIP3    H2 2029   1.258   5.160   0.276
  675TIP3   OH2 2030   0.868   4.943   4.804
  675TIP3    H1 2031   0.949   4.982   4.836
  675TIP3    H2 2032   0.799   4.989   4.852
  676TIP3   OH2 2033   4.215   3.970   0.807
  676TIP3    H1 2034   4.183   4.060   0.795
  676TIP3    H2 2035   4.140   3.915   0.788
  677TIP3   OH2 2036   0.458   5.412   4.364
  677TIP3    H1 2037   0.546   5.438   4.390
  677TIP3    H2 2038   0.465   5.390   4.271
  678TIP3   OH2 2039   3.625   5.236   3.332
  678TIP3    H1 2040   3.687   5.285   3.278
  678TIP3    H2 2041   3.589   5.302   3.392
  679TIP3   OH2 2042   1.462   3.464   0.661
  679TIP3    H1 2043   1.439   3.526   0.592
  679TIP3    H2 2044   1.557   3.463   0.662
  680TIP3   OH2 2045   6.003   3.452   4.029
  680TIP3    H1 2046   5.941   3.496   3.970
  680TIP3    H2 2047   5.981   3.487   4.115
  681TIP3   OH2 2048   5.807   5.980   2.745
  681TIP3    H1 2049   5.884   6.003   2.796
  681TIP3    H2 2050   5.734   5.987   2.806
  682TIP3   OH2 2051   6.278   0.923   4.008
  682TIP3    H1 2052   6.271   0.876   3.926
  682TIP3    H2 2053   6.371   0.943   4.017
  683TIP3   OH2 2054   3.035   3.785   3.566
  683TIP3    H1 2055   2.983   3.706   3.553
  683TIP3    H2 2056   3.125   3.758   3.545
  684TIP3   OH2 2057   1.547   3.691   3.151
  684TIP3    H1 2058   1.473   3.750   3.169
  684TIP3    H2 2059   1.559   3.642   3.232
  685TIP3   OH2 2060   4.320   4.759   4.544
  685TIP3    H1 2061   4.229   4.782   4.524
  685TIP3    H2 2062   4.370   4.836   4.519
  686TIP3   OH2 2063   0.370   4.631   4.593
  686TIP3    H1 2064   0.316   4.673   4.660
  686TIP3    H2 2065   0.387   4.701   4.529
  687TIP3   OH2 2066   4.797   2.365   2.909
  687TIP3    H1 2067   4.892   2.364   2.922
  687TIP3    H2 2068   4.761   2.388   2.994
  688TIP3   OH2 2069   2.072   4.784   2.520
  688TIP3    H1 2070   2.043   4.875   2.519
  688TIP3    H2 2071   2.158   4.786   2.562
  689TIP3   OH2 2072   4.035   4.999   4.775
  689TIP3    H1 2073   4.097   5.021   4.845
  689TIP3    H2 2074   3.951   4.988   4.821
  690TIP3   OH2 2075   1.547   0.045   4.893
  690TIP3    H1 2076   1.636   0.068   4.867
  690TIP3    H2 2077   1.535  -0.044   4.860
  691TIP3   OH2 2078   1.001   4.882   1.591
  691TIP3    H1 2079   0.959   4.968   1.591
  691TIP3    H2 2080   1.002   4.856   1.683
  692TIP3   OH2 2081   5.664   3.456   2.133
  692TIP3    H1 2082   5.699   3.423   2.216
  692TIP3    H2 2083   5.631   3.377   2.089
  693TIP3   OH2 2084   3.305   4.668   2.617
  693TIP3    H1 2085   3.365   4.742   2.617
  693TIP3    H2 2086   3.329   4.617   2.539
  694TIP3   OH2 2087   4.953   5.222   2.040
  694TIP3    H1 2088   5.009   5.256   1.971
  694TIP3    H2 2089   5.012   5.199   2.111
  695TIP3   OH2 2090   2.187   0.535   1.414
  695TIP3    H1 2091   2.202   0.485   1.334
  695TIP3    H2 2092   2.113   0.491   1.457
  696TIP3   OH2 2093   0.513   1.132   3.161
  696TIP3    H1 2094   0.429   1.089   3.180
  696TIP3    H2 2095   0.558   1.137   3.245
  697TIP3   OH2 2096   0.741   2.311   3.058
  697TIP3    H1 2097   0.741   2.401   3.026
  697TIP3    H2 2098   0.769   2.258   2.983
  698TIP3   OH2 2099   6.146   3.839   2.982
  698TIP3    H1 2100   6.201   3.914   2.960
  698TIP3    H2 2101   6.208   3.769   3.003
  699TIP3   OH2 2102   4.641   2.337   0.054
  699TIP3    H1 2103   4.635   2.242   0.043
  699TIP3    H2 2104   4.698   2.350   0.129
  700TIP3   OH2 2105   0.690   2.036   1.792
  700TIP3    H1 2106   0.698   1.984   1.871
  700TIP3    H2 2107   0.774   2.028   1.748
  701TIP3   OH2 2108   3.922   1.299   0.019
  701TIP3    H1 2109   3.834   1.266   0.035
  701TIP3    H2 2110   3.936   1.286  -0.075
  702TIP3   OH2 2111   1.605   2.311   3.235
  702TIP3    H1 2112   1.619   2.251   3.308
  702TIP3    H2 2113   1.637   2.395   3.266
  703TIP3   OH2 2114   5.179   3.384   1.217
  703TIP3    H1 2115   5.255   3.341   1.258
  703TIP3    H2 2116   5.130   3.312   1.178
  704TIP3   OH2 2117   1.125   1.189   1.951
  704TIP3    H1 2118   1.167   1.181   1.866
  704TIP3    H2 2119   1.194   1.165   2.014
  705TIP3   OH2 2120   4.266   4.299   3.448
  705TIP3    H1 2121   4.290   4.355   3.521
  705TIP3    H2 2122   4.345   4.249   3.428
  706TIP3   OH2 2123   3.349   4.992   4.095
  706TIP3    H1 2124   3.386   4.904   4.086
  706TIP3    H2 2125   3.363   5.032   4.009
  707TIP3   OH2 2126   3.695   3.271   2.322
  707TIP3    H1 2127   3.616   3.326   2.321
  707TIP3    H2 2128   3.719   3.266   2.414
  708TIP3   OH2 2129   3.259   0.181   1.871
  708TIP3    H1 2130   3.335   0.236   1.853
  708TIP3    H2 2131   3.200   0.238   1.921
  709TIP3   OH2 2132   3.024   2.765   1.342
  709TIP3    H1 2133   3.040   2.844   1.394
  709TIP3    H2 2134   3.029   2.795   1.252
  710TIP3   OH2 2135   1.747   3.441   0.598
  710TIP3    H1 2136   1.720   3.369   0.541
  710TIP3    H2 2137   1.816   3.486   0.550
  711TIP3   OH2 2138   5.207   1.593   1.442
  711TIP3    H1 2139   5.152   1.640   1.380
  711TIP3    H2 2140   5.255   1.530   1.388
  712TIP3   OH2 2141   2.583   4.329   4.886
  712TIP3    H1 2142   2.629   4.376   4.816
  712TIP3    H2 2143   2.625   4.359   4.967
  713TIP3   OH2 2144   4.280   4.290   0.602
  713TIP3    H1 2145   4.200   4.251   0.567
  713TIP3    H2 2146   4.261   4.384   0.606
  714TIP3   OH2 2147   0.464   4.080   0.213
  714TIP3    H1 2148   0.501   4.013   0.156
  714TIP3    H2 2149   0.532   4.096   0.279
  715TIP3   OH2 2150   3.695   4.348   1.244
  715TIP3    H1 2151   3.636   4.290   1.292
  715TIP3    H2 2152   3.724   4.295   1.169
  716TIP3   OH2 2153   5.483   1.346   1.451
  716TIP3    H1 2154   5.432   1.265   1.450
  716TIP3    H2 2155   5.480   1.375   1.542
  717TIP3   OH2 2156   6.053   0.833   0.441
  717TIP3    H1 2157   6.087   0.852   0.529
  717TIP3    H2 2158   6.049   0.919   0.398
  718TIP3   OH2 2159   5.013   5.429   3.809
  718TIP3    H1 2160   4.950   5.428   3.881
  718TIP3    H2 2161   4.964   5.462   3.734
  719TIP3   OH2 2162   3.402   3.530   3.077
  719TIP3    H1 2163   3.427   3.551   3.167
  719TIP3    H2 2164   3.484   3.529   3.028
  720TIP3   OH2 2165   0.500   2.850   3.552
  720TIP3    H1 2166   0.477   2.904   3.476
  720TIP3    H2 2167   0.415   2.819   3.585
  721TIP3   OH2 2168   2.695   4.661  -0.004
  721TIP3    H1 2169   2.777   4.630  -0.042
  721TIP3    H2 2170   2.630   4.596  -0.030
  722TIP3   OH2 2171   5.149   3.967   1.942
  722TIP3    H1 2172   5.071   3.965   1.998
  722TIP3    H2 2173   5.183   3.878   1.945
  723TIP3   OH2 2174   0.657   5.949   3.564
  723TIP3    H1 2175   0.704   5.901   3.495
  723TIP3    H2 2176   0.722   5.963   3.633
  724TIP3   OH2 2177   4.166   3.699   4.068
  724TIP3    H1 2178   4.149   3.656   4.152
  724TIP3    H2 2179   4.108   3.776   4.070
  725TIP3   OH2 2180   2.892   3.122   0.534
  725TIP3    H1 2181   2.813   3.172   0.511
  725TIP3    H2 2182   2.880   3.037   0.490
  726TIP3   OH2 2183   2.987   4.273   0.438
  726TIP3    H1 2184   3.045   4.205   0.403
  726TIP3    H2 2185   2.913   4.224   0.474
  727TIP3   OH2 2186   4.625   1.244   2.364
  727TIP3    H1 2187   4.531   1.252   2.352
  727TIP3    H2 2188   4.660   1.232   2.276
  728TIP3   OH2 2189   6.282   0.723   4.360
  728TIP3    H1 2190   6.243   0.769   4.285
  728TIP3    H2 2191   6.374   0.714   4.336
  729TIP3   OH2 2192   2.065   3.116   2.810
  729TIP3    H1 2193   2.118   3.062   2.868
  729TIP3    H2 2194   1.975   3.090   2.828
  730TIP3   OH2 2195   3.080   0.409   4.940
  730TIP3    H1 2196   3.057   0.494   4.976
  730TIP3    H2 2197   3.064   0.417   4.846
  731TIP3   OH2 2198   6.145   0.529   1.747
  731TIP3    H1 2199   6.223   0.482   1.775
  731TIP3    H2 2200   6.079   0.460   1.734
  732TIP3   OH2 2201   3.701   0.169   3.472
  732TIP3    H1 2202   3.685   0.252   3.517
  732TIP3    H2 2203   3.795   0.171   3.452
  733TIP3   OH2 2204   2.887   2.399   4.899
  733TIP3    H1 2205   2.880   2.324   4.840
  733TIP3    H2 2206   2.844   2.470   4.851
  734TIP3   OH2 2207   4.516   5.588   0.910
  734TIP3    H1 2208   4.557   5.611   0.993
  734TIP3    H2 2209   4.422   5.595   0.926
  735TIP3   OH2 2210   5.542   4.662   0.786
  735TIP3    H1 2211   5.619   4.611   0.811
  735TIP3    H2 2212   5.577   4.740   0.742
  736TIP3   OH2 2213   4.064   0.585   3.315
  736TIP3    H1 2214   4.141   0.529   3.327
  736TIP3    H2 2215   4.044   0.619   3.402
  737TIP3   OH2 2216   1.005   0.947   4.957
  737TIP3    H1 2217   0.953   1.026   4.971
  737TIP3    H2 2218   0.941   0.878   4.941
  738TIP3   OH2 2219   2.412   2.110   3.820
  738TIP3    H1 2220   2.369   2.089   3.902
  738TIP3    H2 2221   2.361   2.064   3.753
  739TIP3   OH2 2222   3.405   4.037   3.824
  739TIP3    H1 2223   3.403   3.978   3.899
  739TIP3    H2 2224   3.327   4.092   3.833
  740TIP3   OH2 2225   2.944   5.367   4.344
  740TIP3    H1 2226   2.952   5.317   4.425
  740TIP3    H2 2227   2.853   5.397   4.344
  741TIP3   OH2 2228   2.509   3.382   3.905
  741TIP3    H1 2229   2.590   3.433   3.909
  741TIP3    H2 2230   2.525   3.317   3.837
  742TIP3   OH2 2231   5.787   3.219   1.893
  742TIP3    H1 2232   5.872   3.174   1.896
  742TIP3    H2 2233   5.783   3.259   1.806
  743TIP3   OH2 2234   1.396   3.690   4.789
  743TIP3    H1 2235   1.456   3.619   4.809
  743TIP3    H2 2236   1.418   3.716   4.699
  744TIP3   OH2 2237   5.426   0.290   4.170
  744TIP3    H1 2238   5.366   0.279   4.097
  744TIP3    H2 2239   5.411   0.379   4.202
  745TIP3   OH2 2240   6.171   3.234   1.122
  745TIP3    H1 2241   6.130   3.269   1.043
  745TIP3    H2 2242   6.221   3.307   1.158
  746TIP3   OH2 2243   0.984   0.603   0.622
  746TIP3    H1 2244   1.033   0.535   0.668
  746TIP3    H2 2245   1.040   0.680   0.624
  747TIP3   OH2 2246   3.052   5.554   2.340
  747TIP3    H1 2247   3.043   5.620   2.271
  747TIP3    H2 2248   3.021   5.597   2.419
  748TIP3   OH2 2249   3.561   1.963   0.154
  748TIP3    H1 2250   3.516   1.994   0.232
  748TIP3    H2 2251   3.563   1.868   0.162
  749TIP3   OH2 2252   1.856   2.130   3.328
  749TIP3    H1 2253   1.780   2.122   3.385
  749TIP3    H2 2254   1.831   2.195   3.263
  750TIP3   OH2 2255   3.330   5.807   2.851
  750TIP3    H1 2256   3.294   5.746   2.916
  750TIP3    H2 2257   3.258   5.821   2.790
  751TIP3   OH2 2258   3.730   4.499   3.288
  751TIP3    H1 2259   3.667   4.571   3.295
  751TIP3    H2 2260   3.767   4.490   3.376
  752TIP3   OH2 2261   5.314   4.857   0.217
  752TIP3    H1 2262   5.260   4.935   0.207
  752TIP3    H2 2263   5.403   4.890   0.227
  753TIP3   OH2 2264   4.400   5.953   3.080
  753TIP3    H1 2265   4.306   5.936   3.076
  753TIP3    H2 2266   4.439   5.869   3.105
  754TIP3   OH2 2267   2.924   5.854   2.827
  754TIP3    H1 2268   2.943   5.906   2.904
  754TIP3    H2 2269   3.010   5.836   2.788
  755TIP3   OH2 2270   3.772   0.003   2.873
  755TIP3    H1 2271   3.800   0.094   2.864
  755TIP3    H2 2272   3.824  -0.031   2.946
  756TIP3   OH2 2273   1.193   4.971   2.195
  756TIP3    H1 2274   1.140   4.904   2.237
  756TIP3    H2 2275   1.276   4.927   2.175
  757TIP3   OH2 2276   2.481   3.384   1.950
  757TIP3    H1 2277   2.539   3.337   2.009
  757TIP3    H2 2278   2.444   3.316   1.894
  758TIP3   OH2 2279   2.792   5.818   2.075
  758TIP3    H1 2280   2.737   5.882   2.029
  758TIP3    H2 2281   2.856   5.790   2.009
  759TIP3   OH2 2282   2.954   2.582   4.423
  759TIP3    H1 2283   3.050   2.581   4.429
  759TIP3    H2 2284   2.936   2.558   4.333
  760TIP3   OH2 2285   4.206   5.216   1.425
  760TIP3    H1 2286   4.256   5.262   1.492
  760TIP3    H2 2287   4.117   5.213   1.460
  761TIP3   OH2 2288   4.293   1.213   5.093
  761TIP3    H1 2289   4.321   1.172   5.011
  761TIP3    H2 2290   4.229   1.279   5.066
  762TIP3   OH2 2291   0.821   2.210   1.224
  762TIP3    H1 2292   0.801   2.289   1.273
  762TIP3    H2 2293   0.865   2.153   1.288
  763TIP3   OH2 2294   1.377   1.349   0.727
  763TIP3    H1 2295   1.430   1.427   0.743
  763TIP3    H2 2296   1.416   1.309   0.649
  764TIP3   OH2 2297   0.746   3.103   1.746
  764TIP3    H1 2298   0.683   3.128   1.814
  764TIP3    H2 2299   0.697   3.112   1.664
  765TIP3   OH2 2300   6.108   1.056   2.237
  765TIP3    H1 2301   6.026   1.086   2.198
  765TIP3    H2 2302   6.083   1.023   2.323
  766TIP3   OH2 2303   1.685   2.058   4.059
  766TIP3    H1 2304   1.746   2.054   3.986
  766TIP3    H2 2305   1.726   2.005   4.127
  767TIP3   OH2 2306   2.933   0.965   1.825
  767TIP3    H1 2307   2.974   0.916   1.754
  767TIP3    H2 2308   2.859   0.911   1.852
  768TIP3   OH2 2309   0.792   0.236   2.989
  768TIP3    H1 2310   0.882   0.211   3.008
  768TIP3    H2 2311   0.756   0.161   2.941
  769TIP3   OH2 2312   5.483   0.548   2.809
  769TIP3    H1 2313   5.459   0.579   2.897
  769TIP3    H2 2314   5.551   0.609   2.780
  770TIP3   OH2 2315   0.233   1.824   2.670
  770TIP3    H1 2316   0.315   1.869   2.692
  770TIP3    H2 2317   0.170   1.856   2.736
  771TIP3   OH2 2318   1.118   0.770   1.261
  771TIP3    H1 2319   1.107   0.756   1.355
  771TIP3    H2 2320   1.034   0.742   1.223
  772TIP3   OH2 2321   2.257   3.466   2.740
  772TIP3    H1 2322   2.189   3.534   2.739
  772TIP3    H2 2323   2.261   3.438   2.831
  773TIP3   OH2 2324   5.144   5.826   4.386
  773TIP3    H1 2325   5.096   5.743   4.391
  773TIP3    H2 2326   5.229   5.805   4.425
  774TIP3   OH2 2327   5.655   3.474   2.814
  774TIP3    H1 2328   5.566   3.477   2.848
  774TIP3    H2 2329   5.674   3.565   2.790
  775TIP3   OH2 2330   3.999   3.495   2.441
  775TIP3    H1 2331   3.980   3.504   2.348
  775TIP3    H2 2332   3.969   3.577   2.480
  776TIP3   OH2 2333   1.568   0.144   2.497
  776TIP3    H1 2334   1.567   0.099   2.581
  776TIP3    H2 2335   1.661   0.153   2.475
  777TIP3   OH2 2336   3.971   5.359   2.341
  777TIP3    H1 2337   3.897   5.345   2.282
  777TIP3    H2 2338   3.940   5.427   2.402
  778TIP3   OH2 2339   3.898   5.872   1.641
  778TIP3    H1 2340   3.959   5.814   1.687
  778TIP3    H2 2341   3.925   5.960   1.667
  779TIP3   OH2 2342   0.590   3.511   4.713
  779TIP3    H1 2343   0.622   3.421   4.715
  779TIP3    H2 2344   0.632   3.553   4.788
  780TIP3   OH2 2345   4.577   0.402   3.114
  780TIP3    H1 2346   4.602   0.316   3.149
  780TIP3    H2 2347   4.656   0.432   3.068
  781TIP3   OH2 2348   1.858   3.494   2.856
  781TIP3    H1 2349   1.895   3.458   2.937
  781TIP3    H2 2350   1.779   3.539   2.884
  782TIP3   OH2 2351   3.774   2.939   1.306
  782TIP3    H1 2352   3.682   2.963   1.290
  782TIP3    H2 2353   3.806   3.006   1.366
  783TIP3   OH2 2354   3.842   4.493   3.536
  783TIP3    H1 2355   3.778   4.453   3.595
  783TIP3    H2 2356   3.898   4.421   3.509
  784TIP3   OH2 2357   2.663   4.848   3.697
  784TIP3    H1 2358   2.585   4.821   3.746
  784TIP3    H2 2359   2.736   4.829   3.755
  785TIP3   OH2 2360   1.895   0.258   4.006
  785TIP3    H1 2361   1.864   0.170   3.988
  785TIP3    H2 2362   1.835   0.292   4.072
  786TIP3   OH2 2363   3.123   0.342   1.257
  786TIP3    H1 2364   3.155   0.343   1.167
  786TIP3    H2 2365   3.152   0.257   1.292
  787TIP3   OH2 2366   3.658   5.852   1.186
  787TIP3    H1 2367   3.750   5.854   1.211
  787TIP3    H2 2368   3.613   5.814   1.262
  788TIP3   OH2 2369   5.738   1.101   0.554
  788TIP3    H1 2370   5.741   1.185   0.508
  788TIP3    H2 2371   5.692   1.121   0.636
  789TIP3   OH2 2372   1.299   0.619   2.795
  789TIP3    H1 2373   1.206   0.635   2.810
  789TIP3    H2 2374   1.326   0.565   2.870
  790TIP3   OH2 2375   3.122   5.149   1.644
  790TIP3    H1 2376   3.181   5.224   1.639
  790TIP3    H2 2377   3.168   5.085   1.697
  791TIP3   OH2 2378   1.392   3.599   5.157
  791TIP3    H1 2379   1.486   3.604   5.138
  791TIP3    H2 2380   1.370   3.686   5.190
  792TIP3   OH2 2381   5.245   2.158   4.589
  792TIP3    H1 2382   5.252   2.245   4.630
  792TIP3    H2 2383   5.157   2.158   4.550
  793TIP3   OH2 2384   0.903   2.037   2.310
  793TIP3    H1 2385   0.908   2.027   2.215
  793TIP3    H2 2386   0.947   1.960   2.345
  794TIP3   OH2 2387   5.326   4.231   2.774
  794TIP3    H1 2388   5.231   4.243   2.779
  794TIP3    H2 2389   5.359   4.316   2.745
  795TIP3   OH2 2390   2.583   2.436   0.281
  795TIP3    H1 2391   2.606   2.435   0.189
  795TIP3    H2 2392   2.522   2.363   0.292
  796TIP3   OH2 2393   1.548   5.618   3.208
  796TIP3    H1 2394   1.527   5.565   3.285
  796TIP3    H2 2395   1.466   5.623   3.160
  797TIP3   OH2 2396   4.747   0.043   1.304
  797TIP3    H1 2397   4.806   0.087   1.243
  797TIP3    H2 2398   4.660   0.079   1.285
  798TIP3   OH2 2399   5.617   4.745   3.607
  798TIP3    H1 2400   5.635   4.678   3.540
  798TIP3    H2 2401   5.537   4.788   3.577
  799TIP3   OH2 2402   3.008   5.887   0.579
  799TIP3    H1 2403   2.939   5.893   0.645
  799TIP3    H2 2404   3.087   5.865   0.629
  800TIP3   OH2 2405   3.598   1.233   0.299
  800TIP3    H1 2406   3.647   1.163   0.342
  800TIP3    H2 2407   3.625   1.313   0.345
  801TIP3   OH2 2408   5.580   5.679   4.963
  801TIP3    H1 2409   5.586   5.721   4.877
  801TIP3    H2 2410   5.636   5.601   4.955
  802TIP3   OH2 2411   4.692   0.703   2.027
  802TIP3    H1 2412   4.668   0.660   2.110
  802TIP3    H2 2413   4.633   0.664   1.963
  803TIP3   OH2 2414   4.959   4.386   1.864
  803TIP3    H1 2415   4.992   4.403   1.776
  803TIP3    H2 2416   5.018   4.320   1.900
  804TIP3   OH2 2417   1.910   4.564   1.803
  804TIP3    H1 2418   1.860   4.611   1.870
  804TIP3    H2 2419   1.863   4.481   1.792
  805TIP3   OH2 2420   6.274   5.293   0.965
  805TIP3    H1 2421   6.324   5.350   1.024
  805TIP3    H2 2422   6.280   5.206   1.005
  806TIP3   OH2 2423   6.024   2.043   3.062
  806TIP3    H1 2424   6.065   1.998   2.988
  806TIP3    H2 2425   5.985   2.122   3.024
  807TIP3   OH2 2426   4.699   2.645   0.476
  807TIP3    H1 2427   4.766   2.660   0.410
  807TIP3    H2 2428   4.714   2.713   0.542
  808TIP3   OH2 2429   0.947   2.064   1.704
  808TIP3    H1 2430   0.936   2.138   1.644
  808TIP3    H2 2431   1.034   2.078   1.743
  809TIP3   OH2 2432   1.230   1.371   3.509
  809TIP3    H1 2433   1.155   1.319   3.536
  809TIP3    H2 2434   1.198   1.461   3.508
  810TIP3   OH2 2435   3.003   1.325   3.850
  810TIP3    H1 2436   2.960   1.292   3.929
  810TIP3    H2 2437   2.978   1.417   3.846
  811TIP3   OH2 2438   5.672   3.944   1.688
  811TIP3    H1 2439   5.616   3.917   1.616
  811TIP3    H2 2440   5.632   3.905   1.766
  812TIP3   OH2 2441   4.281   3.963   1.677
  812TIP3    H1 2442   4.250   3.910   1.604
  812TIP3    H2 2443   4.321   4.040   1.636
  813TIP3   OH2 2444   4.195   3.386   3.570
  813TIP3    H1 2445   4.151   3.437   3.638
  813TIP3    H2 2446   4.230   3.452   3.510
  814TIP3   OH2 2447   1.535   2.700   3.736
  814TIP3    H1 2448   1.480   2.666   3.666
  814TIP3    H2 2449   1.602   2.633   3.748
  815TIP3   OH2 2450   0.193   0.902   2.180
  815TIP3    H1 2451   0.149   0.976   2.138
  815TIP3    H2 2452   0.213   0.842   2.109
  816TIP3   OH2 2453   0.908   2.567   4.853
  816TIP3    H1 2454   0.990   2.548   4.897
  816TIP3    H2 2455   0.851   2.601   4.922
  817TIP3   OH2 2456   1.786   3.091   5.007
  817TIP3    H1 2457   1.792   2.997   5.021
  817TIP3    H2 2458   1.699   3.115   5.038
  818TIP3   OH2 2459   5.083   0.090   0.788
  818TIP3    H1 2460   5.066   0.019   0.849
  818TIP3    H2 2461   5.030   0.163   0.819
  819TIP3   OH2 2462   5.721   3.197   3.458
  819TIP3    H1 2463   5.716   3.101   3.455
  819TIP3    H2 2464   5.779   3.216   3.531
  820TIP3   OH2 2465   5.609   0.165   0.279
  820TIP3    H1 2466   5.648   0.085   0.317
  820TIP3    H2 2467   5.518   0.162   0.307
  821TIP3   OH2 2468   5.862   1.298   4.696
  821TIP3    H1 2469   5.774   1.315   4.663
  821TIP3    H2 2470   5.907   1.382   4.686
  822TIP3   OH2 2471   5.245   0.199   2.699
  822TIP3    H1 2472   5.337   0.193   2.722
  822TIP3    H2 2473   5.242   0.257   2.623
  823TIP3   OH2 2474   1.320   4.743   1.063
  823TIP3    H1 2475   1.342   4.650   1.059
  823TIP3    H2 2476   1.224   4.744   1.073
  824TIP3   OH2 2477   3.946   3.795   5.112
  824TIP3    H1 2478   3.980   3.861   5.052
  824TIP3    H2 2479   3.886   3.843   5.169
  825TIP3   OH2 2480   3.178   0.054   0.843
  825TIP3    H1 2481   3.264   0.012   0.847
  825TIP3    H2 2482   3.155   0.053   0.750
  826TIP3   OH2 2483   2.860   2.112   2.821
  826TIP3    H1 2484   2.925   2.179   2.804
  826TIP3    H2 2485   2.779   2.160   2.836
  827TIP3   OH2 2486   1.799   1.015   1.139
  827TIP3    H1 2487   1.850   1.094   1.155
  827TIP3    H2 2488   1.792   1.009   1.044
  828TIP3   OH2 2489   2.763   0.191   3.055
  828TIP3    H1 2490   2.777   0.262   3.117
  828TIP3    H2 2491   2.669   0.188   3.042
  829TIP3   OH2 2492   2.896   5.288   1.733
  829TIP3    H1 2493   2.971   5.240   1.699
  829TIP3    H2 2494   2.820   5.245   1.695
  830TIP3   OH2 2495   6.032   4.037   2.708
  830TIP3    H1 2496   5.991   4.107   2.657
  830TIP3    H2 2497   5.979   3.959   2.690
  831TIP3   OH2 2498   0.185   5.549   2.358
  831TIP3    H1 2499   0.095   5.579   2.343
  831TIP3    H2 2500   0.239   5.623   2.331
  832TIP3   OH2 2501   1.076   2.048   4.990
  832TIP3    H1 2502   1.145   2.094   5.037
  832TIP3    H2 2503   1.106   2.044   4.899
  833TIP3   OH2 2504   5.968   5.853   2.454
  833TIP3    H1 2505   5.878   5.884   2.464
  833TIP3    H2 2506   5.979   5.788   2.522
  834TIP3   OH2 2507   6.141   5.545   2.980
  834TIP3    H1 2508   6.229   5.509   2.968
  834TIP3    H2 2509   6.094   5.479   3.029
  835TIP3   OH2 2510   0.767   3.347   5.073
  835TIP3    H1 2511   0.802   3.426   5.114
  835TIP3    H2 2512   0.680   3.372   5.043
  836TIP3   OH2 2513   1.197   0.032   1.474
  836TIP3    H1 2514   1.268   0.061   1.532
  836TIP3    H2 2515   1.188   0.102   1.410
  837TIP3   OH2 2516   2.745   5.739   0.298
  837TIP3    H1 2517   2.704   5.679   0.236
  837TIP3    H2 2518   2.839   5.721   0.291
  838TIP3   OH2 2519   4.377   0.575   0.488
  838TIP3    H1 2520   4.398   0.626   0.410
  838TIP3    H2 2521   4.455   0.521   0.503
  839TIP3   OH2 2522   3.502   1.144   1.554
  839TIP3    H1 2523   3.521   1.162   1.646
  839TIP3    H2 2524   3.556   1.206   1.506
  840TIP3   OH2 2525   2.554   5.477   1.087
  840TIP3    H1 2526   2.542   5.557   1.138
  840TIP3    H2 2527   2.509   5.409   1.137
  841TIP3   OH2 2528   3.400   4.473   1.752
  841TIP3    H1 2529   3.370   4.548   1.804
  841TIP3    H2 2530   3.322   4.419   1.741
  842TIP3   OH2 2531   2.455   2.944   1.128
  842TIP3    H1 2532   2.398   2.871   1.152
  842TIP3    H2 2533   2.409   3.022   1.159
  843TIP3   OH2 2534   1.185   4.215   1.632
  843TIP3    H1 2535   1.193   4.177   1.545
  843TIP3    H2 2536   1.124   4.157   1.678
  844TIP3   OH2 2537   3.653   1.137   3.456
  844TIP3    H1 2538   3.748   1.148   3.462
  844TIP3    H2 2539   3.640   1.087   3.375
  845TIP3   OH2 2540   0.149   2.111   0.484
  845TIP3    H1 2541   0.238   2.082   0.503
  845TIP3    H2 2542   0.154   2.146   0.395
  846TIP3   OH2 2543   5.478   0.564   1.355
  846TIP3    H1 2544   5.482   0.659   1.355
  846TIP3    H2 2545   5.449   0.541   1.267
  847TIP3   OH2 2546   1.948   4.440   0.619
  847TIP3    H1 2547   1.932   4.356   0.578
  847TIP3    H2 2548   1.948   4.503   0.547
  848TIP3   OH2 2549   2.100   1.336   1.691
  848TIP3    H1 2550   2.190   1.351   1.662
  848TIP3    H2 2551   2.081   1.410   1.749
  849TIP3   OH2 2552   5.139   4.244   0.004
  849TIP3    H1 2553   5.146   4.281   0.092
  849TIP3    H2 2554   5.170   4.154   0.013
  850TIP3   OH2 2555   3.680   4.032   4.790
  850TIP3    H1 2556   3.606   3.971   4.794
  850TIP3    H2 2557   3.695   4.047   4.697
  851TIP3   OH2 2558   5.805   2.203   4.235
  851TIP3    H1 2559   5.750   2.234   4.163
  851TIP3    H2 2560   5.764   2.121   4.263
  852TIP3   OH2 2561   2.510   5.548   4.146
  852TIP3    H1 2562   2.497   5.631   4.099
  852TIP3    H2 2563   2.463   5.559   4.228
  853TIP3   OH2 2564   2.440   3.566   4.273
  853TIP3    H1 2565   2.457   3.623   4.348
  853TIP3    H2 2566   2.353   3.592   4.242
  854TIP3   OH2 2567   2.728   3.112   3.952
  854TIP3    H1 2568   2.803   3.053   3.957
  854TIP3    H2 2569   2.699   3.105   3.861
  855TIP3   OH2 2570   1.967   4.453   2.634
  855TIP3    H1 2571   2.016   4.441   2.715
  855TIP3    H2 2572   1.901   4.385   2.636
  856TIP3   OH2 2573   1.878   0.927   0.235
  856TIP3    H1 2574   1.800   0.969   0.199
  856TIP3    H2 2575   1.879   0.840   0.197
  857TIP3   OH2 2576   2.397   2.394   2.408
  857TIP3    H1 2577   2.453   2.440   2.345
  857TIP3    H2 2578   2.457   2.356   2.472
  858TIP3   OH2 2579   3.346   3.345   1.290
  858TIP3    H1 2580   3.336   3.265   1.342
  858TIP3    H2 2581   3.397   3.319   1.214
  859TIP3   OH2 2582   3.868   3.476   2.199
  859TIP3    H1 2583   3.859   3.568   2.173
  859TIP3    H2 2584   3.778   3.443   2.204
  860TIP3   OH2 2585   4.752   0.074   1.582
  860TIP3    H1 2586   4.836   0.040   1.614
  860TIP3    H2 2587   4.759   0.068   1.487
  861TIP3   OH2 2588   3.802   2.857   2.478
  861TIP3    H1 2589   3.883   2.836   2.432
  861TIP3    H2 2590   3.777   2.776   2.522
  862TIP3   OH2 2591   2.220   1.614   2.671
  862TIP3    H1 2592   2.129   1.587   2.683
  862TIP3    H2 2593   2.272   1.539   2.698
  863TIP3   OH2 2594   5.664   0.138   1.511
  863TIP3    H1 2595   5.578   0.125   1.472
  863TIP3    H2 2596   5.662   0.228   1.543
  864TIP3   OH2 2597   2.014   3.850   0.139
  864TIP3    H1 2598   2.034   3.756   0.137
  864TIP3    H2 2599   1.918   3.854   0.131
  865TIP3   OH2 2600   2.050   5.896   2.231
  865TIP3    H1 2601   2.103   5.927   2.305
  865TIP3    H2 2602   1.972   5.858   2.272
  866TIP3   OH2 2603   1.523   2.247   1.093
  866TIP3    H1 2604   1.443   2.245   1.145
  866TIP3    H2 2605   1.582   2.303   1.142
  867TIP3   OH2 2606   0.062   0.133   2.476
  867TIP3    H1 2607   0.026   0.157   2.562
  867TIP3    H2 2608   0.126   0.065   2.495
  868TIP3   OH2 2609   2.193   3.633   4.175
  868TIP3    H1 2610   2.122   3.690   4.145
  868TIP3    H2 2611   2.158   3.544   4.167
  869TIP3   OH2 2612   1.088   4.755   2.331
  869TIP3    H1 2613   1.028   4.699   2.380
  869TIP3    H2 2614   1.116   4.701   2.257
  870TIP3   OH2 2615   5.674   2.939   0.087
  870TIP3    H1 2616   5.607   2.985   0.136
  870TIP3    H2 2617   5.747   3.001   0.082
  871TIP3   OH2 2618   4.811   5.833   5.082
  871TIP3    H1 2619   4.725   5.817   5.122
  871TIP3    H2 2620   4.870   5.775   5.129
  872TIP3   OH2 2621   3.196   1.348   2.245
  872TIP3    H1 2622   3.193   1.266   2.294
  872TIP3    H2 2623   3.139   1.333   2.169
  873TIP3   OH2 2624   1.862   1.006   1.538
  873TIP3    H1 2625   1.851   0.912   1.525
  873TIP3    H2 2626   1.774   1.039   1.556
  874TIP3   OH2 2627   0.770   1.964   4.277
  874TIP3    H1 2628   0.800   1.891   4.331
  874TIP3    H2 2629   0.675   1.959   4.280
  875TIP3   OH2 2630   5.120   0.612   1.207
  875TIP3    H1 2631   5.066   0.630   1.130
  875TIP3    H2 2632   5.146   0.698   1.239
  876TIP3   OH2 2633   6.166   2.312   1.032
  876TIP3    H1 2634   6.153   2.218   1.039
  876TIP3    H2 2635   6.122   2.336   0.950
  877TIP3   OH2 2636   0.423   5.182   0.031
  877TIP3    H1 2637   0.392   5.174   0.121
  877TIP3    H2 2638   0.518   5.192   0.039
  878TIP3   OH2 2639   5.251   2.651   1.067
  878TIP3    H1 2640   5.254   2.566   1.113
  878TIP3    H2 2641   5.333   2.694   1.092
  879TIP3   OH2 2642   4.869   3.363   3.219
  879TIP3    H1 2643   4.795   3.360   3.158
  879TIP3    H2 2644   4.874   3.455   3.246
  880TIP3   OH2 2645   2.248   3.156   3.753
  880TIP3    H1 2646   2.214   3.073   3.720
  880TIP3    H2 2647   2.315   3.132   3.816
  881TIP3   OH2 2648   0.779   0.268   4.664
  881TIP3    H1 2649   0.685   0.258   4.676
  881TIP3    H2 2650   0.790   0.284   4.571
  882TIP3   OH2 2651   0.840   1.002   3.791
  882TIP3    H1 2652   0.920   1.051   3.811
  882TIP3    H2 2653   0.869   0.912   3.781
  883TIP3   OH2 2654   1.921   2.113   0.385
  883TIP3    H1 2655   1.886   2.079   0.303
  883TIP3    H2 2656   1.978   2.043   0.418
  884TIP3   OH2 2657   0.513   0.191   4.670
  884TIP3    H1 2658   0.547   0.103   4.687
  884TIP3    H2 2659   0.445   0.203   4.736
  885TIP3   OH2 2660   1.863   2.374   4.175
  885TIP3    H1 2661   1.916   2.450   4.196
  885TIP3    H2 2662   1.918   2.321   4.118
  886TIP3   OH2 2663   6.194   4.399   1.009
  886TIP3    H1 2664   6.286   4.379   1.028
  886TIP3    H2 2665   6.166   4.330   0.949
  887TIP3   OH2 2666   0.780   2.401   4.361
  887TIP3    H1 2667   0.699   2.410   4.411
  887TIP3    H2 2668   0.755   2.422   4.271
  888TIP3   OH2 2669   2.830   4.493   2.020
  888TIP3    H1 2670   2.798   4.501   1.930
  888TIP3    H2 2671   2.752   4.483   2.073
  889TIP3   OH2 2672   5.034   4.800   4.825
  889TIP3    H1 2673   5.037   4.705   4.837
  889TIP3    H2 2674   5.036   4.836   4.914
  890TIP3   OH2 2675   5.455   2.117   3.544
  890TIP3    H1 2676   5.447   2.022   3.550
  890TIP3    H2 2677   5.370   2.146   3.511
  891TIP3   OH2 2678   3.761   5.257   2.821
  891TIP3    H1 2679   3.787   5.189   2.758
  891TIP3    H2 2680   3.755   5.337   2.768
  892TIP3   OH2 2681   5.265   1.229   4.556
  892TIP3    H1 2682   5.246   1.271   4.640
  892TIP3    H2 2683   5.311   1.296   4.505
  893TIP3   OH2 2684   5.531   6.031   2.564
  893TIP3    H1 2685   5.618   5.999   2.543
  893TIP3    H2 2686   5.522   6.112   2.514
  894TIP3   OH2 2687   4.461   4.323   3.003
  894TIP3    H1 2688   4.542   4.309   2.955
  894TIP3    H2 2689   4.393   4.330   2.936
  895TIP3   OH2 2690   3.973   4.663   0.306
  895TIP3    H1 2691   4.064   4.638   0.319
  895TIP3    H2 2692   3.970   4.700   0.218
  896TIP3   OH2 2693   2.048   4.178   1.615
  896TIP3    H1 2694   2.139   4.149   1.616
  896TIP3    H2 2695   2.041   4.239   1.688
  897TIP3   OH2 2696   3.100   0.159   3.543
  897TIP3    H1 2697   3.077   0.138   3.634
  897TIP3    H2 2698   3.017   0.183   3.503
  898TIP3   OH2 2699   5.416   4.434   5.000
  898TIP3    H1 2700   5.508   4.461   4.989
  898TIP3    H2 2701   5.417   4.379   5.078
  899TIP3   OH2 2702   0.336   3.032   0.288
  899TIP3    H1 2703   0.298   3.117   0.309
  899TIP3    H2 2704   0.305   3.012   0.200
  900TIP3   OH2 2705   0.123   1.096   1.475
  900TIP3    H1 2706   0.141   1.145   1.555
  900TIP3    H2 2707   0.166   1.145   1.405
  901TIP3   OH2 2708   3.555   0.205   0.378
  901TIP3    H1 2709   3.476   0.164   0.344
  901TIP3    H2 2710   3.588   0.257   0.305
  902TIP3   OH2 2711   1.244   2.581   4.707
  902TIP3    H1 2712   1.237   2.576   4.612
  902TIP3    H2 2713   1.313   2.646   4.722
  903TIP3   OH2 2714   0.419   1.368   1.383
  903TIP3    H1 2715   0.476   1.436   1.346
  903TIP3    H2 2716   0.477   1.317   1.440
  904TIP3   OH2 2717   1.752   4.848   2.668
  904TIP3    H1 2718   1.688   4.779   2.653
  904TIP3    H2 2719   1.828   4.802   2.705
  905TIP3   OH2 2720   1.169   2.987   4.490
  905TIP3    H1 2721   1.134   3.070   4.457
  905TIP3    H2 2722   1.091   2.936   4.514
  906TIP3   OH2 2723   4.803   4.270   4.741
  906TIP3    H1 2724   4.760   4.225   4.668
  906TIP3    H2 2725   4.871   4.322   4.699
  907TIP3   OH2 2726   3.243   3.505   0.893
  907TIP3    H1 2727   3.298   3.435   0.858
  907TIP3    H2 2728   3.215   3.473   0.979
  908TIP3   OH2 2729   4.101   4.078   5.126
  908TIP3    H1 2730   4.128   4.163   5.091
  908TIP3    H2 2731   4.160   4.015   5.084
  909TIP3   OH2 2732   5.208   1.578   2.651
  909TIP3    H1 2733   5.270   1.645   2.681
  909TIP3    H2 2734   5.178   1.610   2.566
  910TIP3   OH2 2735   4.187   0.679   5.076
  910TIP3    H1 2736   4.278   0.708   5.081
  910TIP3    H2 2737   4.183   0.600   5.130
  911TIP3   OH2 2738   0.551   5.544   0.053
  911TIP3    H1 2739   0.573   5.486  -0.020
  911TIP3    H2 2740   0.635   5.575   0.085
  912TIP3   OH2 2741   4.418   4.887   5.017
  912TIP3    H1 2742   4.383   4.868   5.104
  912TIP3    H2 2743   4.506   4.848   5.017
  913TIP3   OH2 2744   0.131   3.628   0.642
  913TIP3    H1 2745   0.046   3.642   0.684
  913TIP3    H2 2746   0.124   3.541   0.603
  914TIP3   OH2 2747   3.871   4.522   1.354
  914TIP3    H1 2748   3.948   4.494   1.303
  914TIP3    H2 2749   3.805   4.455   1.336
  915TIP3   OH2 2750   1.466   3.586   2.731
  915TIP3    H1 2751   1.393   3.643   2.757
  915TIP3    H2 2752   1.527   3.590   2.804
  916TIP3   OH2 2753   1.962   2.414   0.605
  916TIP3    H1 2754   2.008   2.347   0.555
  916TIP3    H2 2755   2.010   2.419   0.688
  917TIP3   OH2 2756   3.623   2.786   1.066
  917TIP3    H1 2757   3.612   2.693   1.046
  917TIP3    H2 2758   3.708   2.792   1.109
  918TIP3   OH2 2759   3.945   3.772   2.290
  918TIP3    H1 2760   4.009   3.767   2.219
  918TIP3    H2 2761   3.943   3.865   2.313
  919TIP3   OH2 2762   4.539   1.477   3.718
  919TIP3    H1 2763   4.561   1.435   3.634
  919TIP3    H2 2764   4.587   1.426   3.783
  920TIP3   OH2 2765   2.347   5.739   1.455
  920TIP3    H1 2766   2.396   5.672   1.502
  920TIP3    H2 2767   2.330   5.807   1.520
  921TIP3   OH2 2768   3.878   2.259   3.423
  921TIP3    H1 2769   3.909   2.249   3.333
  921TIP3    H2 2770   3.931   2.331   3.459
  922TIP3   OH2 2771   1.183   4.061   3.095
  922TIP3    H1 2772   1.235   4.140   3.110
  922TIP3    H2 2773   1.246   3.995   3.070
  923TIP3   OH2 2774   5.641   4.621   4.218
  923TIP3    H1 2775   5.582   4.696   4.230
  923TIP3    H2 2776   5.672   4.631   4.128
  924TIP3   OH2 2777   5.257   3.025   2.425
  924TIP3    H1 2778   5.267   3.058   2.336
  924TIP3    H2 2779   5.188   3.079   2.464
  925TIP3   OH2 2780   1.563   4.803   2.322
  925TIP3    H1 2781   1.507   4.768   2.252
  925TIP3    H2 2782   1.640   4.836   2.277
  926TIP3   OH2 2783   3.213   2.526   4.468
  926TIP3    H1 2784   3.234   2.537   4.560
  926TIP3    H2 2785   3.269   2.454   4.439
  927TIP3   OH2 2786   4.368   5.844   1.204
  927TIP3    H1 2787   4.301   5.807   1.262
  927TIP3    H2 2788   4.349   5.938   1.203
  928TIP3   OH2 2789   2.767   5.694   3.209
  928TIP3    H1 2790   2.741   5.639   3.283
  928TIP3    H2 2791   2.823   5.638   3.156
  929TIP3   OH2 2792   5.288   2.294   0.920
  929TIP3    H1 2793   5.364   2.249   0.957
  929TIP3    H2 2794   5.265   2.243   0.842
  930TIP3   OH2 2795   4.072   1.111   3.695
  930TIP3    H1 2796   3.988   1.148   3.670
  930TIP3    H2 2797   4.075   1.026   3.651
  931TIP3   OH2 2798   0.256   4.460   3.592
  931TIP3    H1 2799   0.195   4.496   3.528
  931TIP3    H2 2800   0.297   4.386   3.547
  932TIP3   OH2 2801   3.606   3.146   1.741
  932TIP3    H1 2802   3.530   3.135   1.797
  932TIP3    H2 2803   3.675   3.097   1.785
  933TIP3   OH2 2804   3.633   0.884   2.414
  933TIP3    H1 2805   3.612   0.894   2.321
  933TIP3    H2 2806   3.717   0.928   2.424
  934TIP3   OH2 2807   0.528   5.327   0.274
  934TIP3    H1 2808   0.513   5.415   0.240
  934TIP3    H2 2809   0.594   5.290   0.214
  935TIP3   OH2 2810   4.844   0.667   1.148
  935TIP3    H1 2811   4.837   0.693   1.240
  935TIP3    H2 2812   4.774   0.603   1.136
  936TIP3   OH2 2813   3.800   0.774   3.421
  936TIP3    H1 2814   3.757   0.707   3.369
  936TIP3    H2 2815   3.863   0.814   3.361
  937TIP3   OH2 2816   3.826   0.904   0.184
  937TIP3    H1 2817   3.922   0.903   0.183
  937TIP3    H2 2818   3.802   0.920   0.093
  938TIP3   OH2 2819   5.753   1.489   0.078
  938TIP3    H1 2820   5.683   1.501   0.141
  938TIP3    H2 2821   5.722   1.419   0.020
  939TIP3   OH2 2822   4.497   1.783   0.754
  939TIP3    H1 2823   4.508   1.795   0.660
  939TIP3    H2 2824   4.441   1.856   0.781
  940TIP3   OH2 2825   5.100   4.534   1.104
  940TIP3    H1 2826   5.062   4.606   1.055
  940TIP3    H2 2827   5.191   4.531   1.076
  941TIP3   OH2 2828   1.941   1.836   2.786
  941TIP3    H1 2829   1.963   1.875   2.702
  941TIP3    H2 2830   1.845   1.835   2.788
  942TIP3   OH2 2831   3.742  -0.048   2.574
  942TIP3    H1 2832   3.758   0.015   2.645
  942TIP3    H2 2833   3.827  -0.057   2.531
  943TIP3   OH2 2834   4.213   3.828   3.254
  943TIP3    H1 2835   4.127   3.869   3.263
  943TIP3    H2 2836   4.227   3.822   3.160
  944TIP3   OH2 2837   3.100   5.895   3.852
  944TIP3    H1 2838   3.089   5.882   3.946
  944TIP3    H2 2839   3.160   5.970   3.844
  945TIP3   OH2 2840   5.951   2.970   3.513
  945TIP3    H1 2841   5.875   2.933   3.559
  945TIP3    H2 2842   6.017   2.982   3.581
  946TIP3   OH2 2843   3.359   2.853   1.367
  946TIP3    H1 2844   3.454   2.858   1.375
  946TIP3    H2 2845   3.341   2.887   1.279
  947TIP3   OH2 2846   4.234   1.938   2.941
  947TIP3    H1 2847   4.142   1.917   2.958
  947TIP3    H2 2848   4.278   1.922   3.025
  948TIP3   OH2 2849   4.004   0.256   3.407
  948TIP3    H1 2850   4.048   0.178   3.440
  948TIP3    H2 2851   4.013   0.251   3.312
  949TIP3   OH2 2852   1.614   4.208   1.441
  949TIP3    H1 2853   1.674   4.259   1.387
  949TIP3    H2 2854   1.527   4.236   1.413
  950TIP3   OH2 2855   4.414   4.737   0.423
  950TIP3    H1 2856   4.465   4.657   0.410
  950TIP3    H2 2857   4.457   4.802   0.367
  951TIP3   OH2 2858   1.434   4.714   4.083
  951TIP3    H1 2859   1.422   4.723   4.178
  951TIP3    H2 2860   1.349   4.681   4.052
  952TIP3   OH2 2861   4.558   0.279   1.337
  952TIP3    H1 2862   4.492   0.211   1.326
  952TIP3    H2 2863   4.545   0.312   1.426
  953TIP3   OH2 2864   1.046   4.348   2.511
  953TIP3    H1 2865   1.038   4.443   2.506
  953TIP3    H2 2866   0.996   4.324   2.590
  954TIP3   OH2 2867   5.644   1.337   1.859
  954TIP3    H1 2868   5.592   1.357   1.781
  954TIP3    H2 2869   5.734   1.361   1.835
  955TIP3   OH2 2870   1.965   3.033   0.921
  955TIP3    H1 2871   1.881   3.045   0.876
  955TIP3    H2 2872   2.019   3.106   0.890
  956TIP3   OH2 2873   1.114   3.046   0.821
  956TIP3    H1 2874   1.184   3.000   0.867
  956TIP3    H2 2875   1.035   2.995   0.839
  957TIP3   OH2 2876   3.480   3.708   1.331
  957TIP3    H1 2877   3.462   3.755   1.249
  957TIP3    H2 2878   3.558   3.656   1.313
  958TIP3   OH2 2879   5.540   1.676   0.005
  958TIP3    H1 2880   5.510   1.602   0.058
  958TIP3    H2 2881   5.463   1.703  -0.044
  959TIP3   OH2 2882   3.020   0.839   4.230
  959TIP3    H1 2883   2.960   0.833   4.155
  959TIP3    H2 2884   3.103   0.806   4.197
  960TIP3   OH2 2885   1.801   0.138   0.388
  960TIP3    H1 2886   1.812   0.042   0.389
  960TIP3    H2 2887   1.719   0.152   0.341
  961TIP3   OH2 2888   4.210   4.506   1.659
  961TIP3    H1 2889   4.166   4.420   1.656
  961TIP3    H2 2890   4.206   4.538   1.569
  962TIP3   OH2 2891   1.275   2.995   1.166
  962TIP3    H1 2892   1.251   3.045   1.244
  962TIP3    H2 2893   1.202   2.935   1.152
  963TIP3   OH2 2894   6.208   2.463   4.189
  963TIP3    H1 2895   6.212   2.368   4.178
  963TIP3    H2 2896   6.159   2.476   4.270
  964TIP3   OH2 2897   3.927   5.987   3.163
  964TIP3    H1 2898   3.976   6.032   3.095
  964TIP3    H2 2899   3.864   5.932   3.116
  965TIP3   OH2 2900   0.852   0.507   3.894
  965TIP3    H1 2901   0.813   0.593   3.876
  965TIP3    H2 2902   0.936   0.528   3.934
  966TIP3   OH2 2903   1.489   5.829   4.305
  966TIP3    H1 2904   1.568   5.839   4.252
  966TIP3    H2 2905   1.474   5.915   4.343
  967TIP3   OH2 2906   3.771   1.892   1.236
  967TIP3    H1 2907   3.749   1.903   1.328
  967TIP3    H2 2908   3.697   1.932   1.189
  968TIP3   OH2 2909   5.465   0.830   1.320
  968TIP3    H1 2910   5.384   0.863   1.281
  968TIP3    H2 2911   5.486   0.892   1.390
  969TIP3   OH2 2912   3.016   1.607   2.026
  969TIP3    H1 2913   3.111   1.603   2.041
  969TIP3    H2 2914   3.003   1.687   1.976
  970TIP3   OH2 2915   5.215   3.452   0.380
  970TIP3    H1 2916   5.200   3.365   0.417
  970TIP3    H2 2917   5.310   3.457   0.368
  971TIP3   OH2 2918   0.828   1.795   4.484
  971TIP3    H1 2919   0.746   1.780   4.532
  971TIP3    H2 2920   0.883   1.843   4.546
  972TIP3   OH2 2921   3.745   4.748   0.678
  972TIP3    H1 2922   3.823   4.733   0.732
  972TIP3    H2 2923   3.779   4.761   0.590
  973TIP3   OH2 2924   5.725   3.137   3.758
  973TIP3    H1 2925   5.716   3.095   3.843
  973TIP3    H2 2926   5.802   3.194   3.767
  974TIP3   OH2 2927   2.352   5.491   3.664
  974TIP3    H1 2928   2.446   5.486   3.684
  974TIP3    H2 2929   2.347   5.483   3.569
  975TIP3   OH2 2930   2.095   0.539  -0.035
  975TIP3    H1 2931   2.062   0.512   0.050
  975TIP3    H2 2932   2.031   0.604  -0.066
  976TIP3   OH2 2933   5.460   5.413   4.209
  976TIP3    H1 2934   5.555   5.405   4.206
  976TIP3    H2 2935   5.437   5.454   4.125
  977TIP3   OH2 2936   3.929   5.264   4.254
  977TIP3    H1 2937   3.916   5.171   4.235
  977TIP3    H2 2938   3.992   5.266   4.326
  978TIP3   OH2 2939   0.803   0.703   1.532
  978TIP3    H1 2940   0.812   0.783   1.583
  978TIP3    H2 2941   0.842   0.723   1.447
  979TIP3   OH2 2942   4.335   5.667   4.522
  979TIP3    H1 2943   4.385   5.619   4.588
  979TIP3    H2 2944   4.398   5.728   4.484
  980TIP3   OH2 2945   0.362   4.687   3.170
  980TIP3    H1 2946   0.388   4.742   3.244
  980TIP3    H2 2947   0.320   4.747   3.109
  981TIP3   OH2 2948   0.054   2.597   0.740
  981TIP3    H1 2949   0.121   2.664   0.727
  981TIP3    H2 2950  -0.027   2.637   0.708
  982TIP3   OH2 2951   2.268   0.452   0.525
  982TIP3    H1 2952   2.198   0.477   0.464
  982TIP3    H2 2953   2.241   0.488   0.609
  983TIP3   OH2 2954   2.422   2.972   4.715
  983TIP3    H1 2955   2.428   3.047   4.655
  983TIP3    H2 2956   2.443   3.009   4.801
  984TIP3   OH2 2957   6.253   3.706   4.810
  984TIP3    H1 2958   6.299   3.782   4.845
  984TIP3    H2 2959   6.322   3.647   4.779
  985TIP3   OH2 2960   6.163   4.632   0.359
  985TIP3    H1 2961   6.100   4.629   0.287
  985TIP3    H2 2962   6.248   4.613   0.318
  986TIP3   OH2 2963   6.224   4.101   3.696
  986TIP3    H1 2964   6.157   4.039   3.668
  986TIP3    H2 2965   6.228   4.166   3.626
  987TIP3   OH2 2966   2.521   0.732   4.823
  987TIP3    H1 2967   2.511   0.707   4.915
  987TIP3    H2 2968   2.595   0.680   4.792
  988TIP3   OH2 2969   2.809   3.848   2.158
  988TIP3    H1 2970   2.759   3.924   2.187
  988TIP3    H2 2971   2.838   3.806   2.239
  989TIP3   OH2 2972   4.631   0.819   3.359
  989TIP3    H1 2973   4.683   0.786   3.432
  989TIP3    H2 2974   4.551   0.766   3.361
  990TIP3   OH2 2975   3.929   1.382   3.840
  990TIP3    H1 2976   4.015   1.354   3.871
  990TIP3    H2 2977   3.948   1.443   3.769
  991TIP3   OH2 2978   4.869   3.521   3.443
  991TIP3    H1 2979   4.964   3.529   3.437
  991TIP3    H2 2980   4.855   3.434   3.481
  992TIP3   OH2 2981   1.504   1.379   3.588
  992TIP3    H1 2982   1.541   1.463   3.562
  992TIP3    H2 2983   1.419   1.375   3.544
  993TIP3   OH2 2984   6.148   0.151   2.970
  993TIP3    H1 2985   6.219   0.213   2.956
  993TIP3    H2 2986   6.085   0.170   2.900
  994TIP3   OH2 2987   3.534   1.330   3.230
  994TIP3    H1 2988   3.521   1.272   3.155
  994TIP3    H2 2989   3.600   1.286   3.284
  995TIP3   OH2 2990   6.170   1.187   5.096
  995TIP3    H1 2991   6.081   1.193   5.063
  995TIP3    H2 2992   6.198   1.098   5.074
  996TIP3   OH2 2993   0.191   0.525   0.890
  996TIP3    H1 2994   0.132   0.550   0.819
  996TIP3    H2 2995   0.167   0.581   0.964
  997TIP3   OH2 2996   4.461   1.302   3.146
  997TIP3    H1 2997   4.424   1.285   3.060
  997TIP3    H2 2998   4.387   1.292   3.206
  998TIP3   OH2 2999   1.245   4.731   2.986
  998TIP3    H1 3000   1.334   4.698   3.004
  998TIP3    H2 3001   1.232   4.801   3.050
  999TIP3   OH2 3002   4.863   4.017   0.637
  999TIP3    H1 3003   4.958   4.021   0.629
  999TIP3    H2 3004   4.839   3.931   0.602
 1000TIP3   OH2 3005   5.880   2.801   3.775
 1000TIP3    H1 3006   5.935   2.876   3.799
 1000TIP3    H2 3007   5.903   2.733   3.838
 1001TIP3   OH2 3008   3.630   4.523   2.857
 1001TIP3    H1 3009   3.617   4.495   2.766
 1001TIP3    H2 3010   3.570   4.467   2.907
 1002TIP3   OH2 3011   1.155   0.833   0.881
 1002TIP3    H1 3012   1.198   0.795   0.958
 1002TIP3    H2 3013   1.165   0.766   0.813
 1003TIP3   OH2 3014   4.527   0.952   0.641
 1003TIP3    H1 3015   4.463   0.911   0.583
 1003TIP3    H2 3016   4.533   1.043   0.611
 1004TIP3   OH2 3017   3.724   1.945   1.489
 1004TIP3    H1 3018   3.652   1.912   1.542
 1004TIP3    H2 3019   3.801   1.935   1.545
 1005TIP3   OH2 3020   4.563   2.192   0.436
 1005TIP3    H1 3021   4.540   2.249   0.510
 1005TIP3    H2 3022   4.478   2.167   0.399
 1006TIP3   OH2 3023   4.660   2.914   3.990
 1006TIP3    H1 3024   4.741   2.914   3.938
 1006TIP3    H2 3025   4.591   2.891   3.927
 1007TIP3   OH2 3026   4.062   0.750   2.186
 1007TIP3    H1 3027   4.115   0.711   2.255
 1007TIP3    H2 3028   3.982   0.696   2.183
 1008TIP3   OH2 3029   0.179   1.460   4.262
 1008TIP3    H1 3030   0.253   1.487   4.208
 1008TIP3    H2 3031   0.173   1.527   4.330
 1009TIP3   OH2 3032   4.229   4.255   2.848
 1009TIP3    H1 3033   4.223   4.312   2.771
 1009TIP3    H2 3034   4.144   4.264   2.891
 1010TIP3   OH2 3035   1.222   3.844   1.706
 1010TIP3    H1 3036   1.231   3.865   1.799
 1010TIP3    H2 3037   1.128   3.836   1.692
 1011TIP3   OH2 3038   5.149   2.126   3.050
 1011TIP3    H1 3039   5.227   2.144   3.103
 1011TIP3    H2 3040   5.182   2.075   2.976
 1012TIP3   OH2 3041   2.807   4.096   0.525
 1012TIP3    H1 3042   2.843   4.008   0.510
 1012TIP3    H2 3043   2.713   4.085   0.511
 1013TIP3   OH2 3044   3.726   4.796   0.142
 1013TIP3    H1 3045   3.707   4.736   0.069
 1013TIP3    H2 3046   3.665   4.868   0.130
 1014TIP3   OH2 3047   2.075   5.615   0.206
 1014TIP3    H1 3048   2.049   5.605   0.115
 1014TIP3    H2 3049   2.031   5.544   0.252
 1015TIP3   OH2 3050   5.292   5.737   4.141
 1015TIP3    H1 3051   5.257   5.655   4.104
 1015TIP3    H2 3052   5.249   5.745   4.226
 1016TIP3   OH2 3053   1.847   5.053   2.981
 1016TIP3    H1 3054   1.898   5.045   2.901
 1016TIP3    H2 3055   1.892   5.119   3.033
 1017TIP3   OH2 3056   4.555   5.181   5.039
 1017TIP3    H1 3057   4.498   5.210   4.968
 1017TIP3    H2 3058   4.551   5.085   5.035
 1018TIP3   OH2 3059   4.317   1.571   0.509
 1018TIP3    H1 3060   4.346   1.536   0.593
 1018TIP3    H2 3061   4.257   1.504   0.475
 1019TIP3   OH2 3062   0.569   5.618   4.127
 1019TIP3    H1 3063   0.540   5.699   4.085
 1019TIP3    H2 3064   0.662   5.612   4.105
 1020TIP3   OH2 3065   6.199   3.084   1.592
 1020TIP3    H1 3066   6.234   3.088   1.503
 1020TIP3    H2 3067   6.189   3.176   1.618
 1021TIP3   OH2 3068   4.588   1.803   1.078
 1021TIP3    H1 3069   4.617   1.782   0.989
 1021TIP3    H2 3070   4.637   1.883   1.100
 1022TIP3   OH2 3071   0.056   0.995   2.670
 1022TIP3    H1 3072   0.069   1.064   2.606
 1022TIP3    H2 3073  -0.039   0.983   2.674
 1023TIP3   OH2 3074   6.101   0.460   0.619
 1023TIP3    H1 3075   6.119   0.367   0.603
 1023TIP3    H2 3076   6.023   0.479   0.567
 1024TIP3   OH2 3077   0.888   4.128   1.163
 1024TIP3    H1 3078   0.822   4.189   1.128
 1024TIP3    H2 3079   0.942   4.106   1.087
 1025TIP3   OH2 3080   0.514   1.006   2.267
 1025TIP3    H1 3081   0.450   0.951   2.311
 1025TIP3    H2 3082   0.531   1.077   2.329
 1026TIP3   OH2 3083   1.356   0.874   2.660
 1026TIP3    H1 3084   1.284   0.923   2.700
 1026TIP3    H2 3085   1.345   0.785   2.694
 1027TIP3   OH2 3086   1.721   0.118   0.817
 1027TIP3    H1 3087   1.647   0.138   0.760
 1027TIP3    H2 3088   1.788   0.083   0.757
 1028TIP3   OH2 3089   4.629   1.059   4.913
 1028TIP3    H1 3090   4.615   0.970   4.945
 1028TIP3    H2 3091   4.545   1.082   4.872
 1029TIP3   OH2 3092   0.014   4.933   1.854
 1029TIP3    H1 3093  -0.014   5.021   1.881
 1029TIP3    H2 3094   0.096   4.947   1.807
 1030TIP3   OH2 3095   3.754   2.150   0.966
 1030TIP3    H1 3096   3.705   2.069   0.980
 1030TIP3    H2 3097   3.722   2.184   0.882
 1031TIP3   OH2 3098   5.820   1.254   3.148
 1031TIP3    H1 3099   5.747   1.244   3.087
 1031TIP3    H2 3100   5.783   1.229   3.233
 1032TIP3   OH2 3101   4.160   2.840   4.725
 1032TIP3    H1 3102   4.099   2.793   4.668
 1032TIP3    H2 3103   4.232   2.778   4.738
 1033TIP3   OH2 3104   2.166   1.120   4.823
 1033TIP3    H1 3105   2.200   1.054   4.763
 1033TIP3    H2 3106   2.152   1.074   4.905
 1034TIP3   OH2 3107   1.614   5.946   1.051
 1034TIP3    H1 3108   1.708   5.963   1.065
 1034TIP3    H2 3109   1.612   5.869   0.995
 1035TIP3   OH2 3110   2.324   4.559   5.083
 1035TIP3    H1 3111   2.407   4.555   5.036
 1035TIP3    H2 3112   2.260   4.524   5.020
 1036TIP3   OH2 3113   0.882   3.368   1.983
 1036TIP3    H1 3114   0.947   3.340   2.047
 1036TIP3    H2 3115   0.889   3.304   1.912
 1037TIP3   OH2 3116   2.533   2.547   3.931
 1037TIP3    H1 3117   2.465   2.504   3.879
 1037TIP3    H2 3118   2.496   2.631   3.955
 1038TIP3   OH2 3119   4.132   0.731   3.079
 1038TIP3    H1 3120   4.214   0.720   3.031
 1038TIP3    H2 3121   4.135   0.664   3.147
 1039TIP3   OH2 3122   0.435   4.789   1.017
 1039TIP3    H1 3123   0.442   4.695   0.998
 1039TIP3    H2 3124   0.341   4.806   1.019
 1040TIP3   OH2 3125   2.302   4.739   1.504
 1040TIP3    H1 3126   2.360   4.784   1.443
 1040TIP3    H2 3127   2.361   4.708   1.574
 1041TIP3   OH2 3128   5.218   2.038   0.758
 1041TIP3    H1 3129   5.183   1.949   0.754
 1041TIP3    H2 3130   5.166   2.087   0.694
 1042TIP3   OH2 3131   3.293   1.629   3.707
 1042TIP3    H1 3132   3.349   1.699   3.673
 1042TIP3    H2 3133   3.300   1.638   3.802
 1043TIP3   OH2 3134   0.606   5.644   3.418
 1043TIP3    H1 3135   0.678   5.703   3.395
 1043TIP3    H2 3136   0.611   5.573   3.354
 1044TIP3   OH2 3137   1.504   2.696   1.198
 1044TIP3    H1 3138   1.442   2.736   1.259
 1044TIP3    H2 3139   1.590   2.722   1.230
 1045TIP3   OH2 3140   5.593   2.283   0.539
 1045TIP3    H1 3141   5.560   2.372   0.528
 1045TIP3    H2 3142   5.533   2.229   0.487
 1046TIP3   OH2 3143   0.235   4.927   3.486
 1046TIP3    H1 3144   0.218   4.883   3.569
 1046TIP3    H2 3145   0.324   4.899   3.462
 1047TIP3   OH2 3146   4.823   5.589   1.059
 1047TIP3    H1 3147   4.750   5.638   1.096
 1047TIP3    H2 3148   4.899   5.613   1.112
 1048TIP3   OH2 3149   4.584   0.718   4.387
 1048TIP3    H1 3150   4.590   0.810   4.412
 1048TIP3    H2 3151   4.540   0.719   4.303
 1049TIP3   OH2 3152   6.150   1.527   0.010
 1049TIP3    H1 3153   6.173   1.461   0.075
 1049TIP3    H2 3154   6.219   1.592   0.015
 1050TIP3   OH2 3155   2.506   3.596   2.841
 1050TIP3    H1 3156   2.420   3.571   2.874
 1050TIP3    H2 3157   2.506   3.691   2.842
 1051TIP3   OH2 3158   6.300   5.017   1.031
 1051TIP3    H1 3159   6.353   4.939   1.021
 1051TIP3    H2 3160   6.238   4.996   1.101
 1052TIP3   OH2 3161   0.759   5.253   3.899
 1052TIP3    H1 3162   0.725   5.257   3.988
 1052TIP3    H2 3163   0.808   5.170   3.896
 1053TIP3   OH2 3164   6.321   5.682   0.609
 1053TIP3    H1 3165   6.234   5.653   0.635
 1053TIP3    H2 3166   6.323   5.775   0.634
 1054TIP3   OH2 3167   0.702   3.189   0.583
 1054TIP3    H1 3168   0.620   3.191   0.632
 1054TIP3    H2 3169   0.760   3.249   0.631
 1055TIP3   OH2 3170   0.665   2.524   1.159
 1055TIP3    H1 3171   0.595   2.572   1.112
 1055TIP3    H2 3172   0.657   2.434   1.127
 1056TIP3   OH2 3173   2.823   0.195   4.239
 1056TIP3    H1 3174   2.780   0.241   4.311
 1056TIP3    H2 3175   2.916   0.197   4.262
 1057TIP3   OH2 3176   5.349   1.116   1.453
 1057TIP3    H1 3177   5.291   1.060   1.504
 1057TIP3    H2 3178   5.437   1.090   1.480
 1058TIP3   OH2 3179   0.529   4.268   3.872
 1058TIP3    H1 3180   0.602   4.255   3.933
 1058TIP3    H2 3181   0.457   4.299   3.927
 1059TIP3   OH2 3182   5.504   0.795   3.368
 1059TIP3    H1 3183   5.468   0.807   3.281
 1059TIP3    H2 3184   5.597   0.813   3.358
 1060TIP3   OH2 3185   3.999   5.414   4.666
 1060TIP3    H1 3186   3.934   5.475   4.702
 1060TIP3    H2 3187   3.949   5.333   4.650
 1061TIP3   OH2 3188   2.289   2.071   3.555
 1061TIP3    H1 3189   2.212   2.126   3.536
 1061TIP3    H2 3190   2.342   2.075   3.475
 1062TIP3   OH2 3191   0.547   4.029   3.719
 1062TIP3    H1 3192   0.521   4.112   3.759
 1062TIP3    H2 3193   0.473   4.005   3.664
 1063TIP3   OH2 3194   3.707   1.696   0.515
 1063TIP3    H1 3195   3.638   1.684   0.580
 1063TIP3    H2 3196   3.728   1.607   0.486
 1064TIP3   OH2 3197   4.311   1.506   3.875
 1064TIP3    H1 3198   4.279   1.593   3.850
 1064TIP3    H2 3199   4.396   1.498   3.830
 1065TIP3   OH2 3200   5.313   4.056   4.547
 1065TIP3    H1 3201   5.291   4.147   4.532
 1065TIP3    H2 3202   5.408   4.051   4.532
 1066TIP3   OH2 3203   5.093   0.511   0.710
 1066TIP3    H1 3204   5.163   0.533   0.771
 1066TIP3    H2 3205   5.114   0.561   0.631
 1067TIP3   OH2 3206   5.326   1.166   1.187
 1067TIP3    H1 3207   5.248   1.219   1.203
 1067TIP3    H2 3208   5.354   1.137   1.273
 1068TIP3   OH2 3209   0.133   3.015   2.841
 1068TIP3    H1 3210   0.109   2.962   2.917
 1068TIP3    H2 3211   0.122   3.105   2.870
 1069TIP3   OH2 3212   3.517   0.305   1.842
 1069TIP3    H1 3213   3.557   0.369   1.784
 1069TIP3    H2 3214   3.519   0.346   1.928
 1070TIP3   OH2 3215   1.574   5.338   2.308
 1070TIP3    H1 3216   1.539   5.415   2.353
 1070TIP3    H2 3217   1.522   5.330   2.229
 1071TIP3   OH2 3218   4.480   2.391   2.480
 1071TIP3    H1 3219   4.537   2.437   2.541
 1071TIP3    H2 3220   4.539   2.361   2.411
 1072TIP3   OH2 3221   4.301   0.463   3.570
 1072TIP3    H1 3222   4.356   0.466   3.649
 1072TIP3    H2 3223   4.274   0.372   3.563
 1073TIP3   OH2 3224   5.140   3.637   3.992
 1073TIP3    H1 3225   5.052   3.632   4.027
 1073TIP3    H2 3226   5.197   3.611   4.064
 1074TIP3   OH2 3227   0.836   4.413   3.131
 1074TIP3    H1 3228   0.803   4.347   3.193
 1074TIP3    H2 3229   0.764   4.474   3.120
 1075TIP3   OH2 3230   1.179   4.083   2.495
 1075TIP3    H1 3231   1.168   4.075   2.401
 1075TIP3    H2 3232   1.171   4.177   2.513
 1076TIP3   OH2 3233   5.840   4.178   4.425
 1076TIP3    H1 3234   5.902   4.105   4.419
 1076TIP3    H2 3235   5.885   4.251   4.382
 1077TIP3   OH2 3236   2.898   5.110   2.067
 1077TIP3    H1 3237   2.852   5.034   2.033
 1077TIP3    H2 3238   2.863   5.184   2.017
 1078TIP3   OH2 3239   3.904   1.977   1.680
 1078TIP3    H1 3240   3.937   1.952   1.766
 1078TIP3    H2 3241   3.982   1.973   1.624
 1079TIP3   OH2 3242   1.564   2.835   0.071
 1079TIP3    H1 3243   1.572   2.785  -0.010
 1079TIP3    H2 3244   1.595   2.775   0.139
 1080TIP3   OH2 3245   1.679   0.945   4.981
 1080TIP3    H1 3246   1.766   0.909   5.001
 1080TIP3    H2 3247   1.663   0.918   4.891
 1081TIP3   OH2 3248   0.287   5.524   3.368
 1081TIP3    H1 3249   0.284   5.617   3.347
 1081TIP3    H2 3250   0.289   5.480   3.282
 1082TIP3   OH2 3251   1.485   0.154   3.230
 1082TIP3    H1 3252   1.503   0.178   3.321
 1082TIP3    H2 3253   1.459   0.062   3.235
 1083TIP3   OH2 3254   2.262   4.707   4.533
 1083TIP3    H1 3255   2.229   4.651   4.603
 1083TIP3    H2 3256   2.356   4.709   4.545
 1084TIP3   OH2 3257   3.699   5.694   2.571
 1084TIP3    H1 3258   3.704   5.764   2.636
 1084TIP3    H2 3259   3.606   5.690   2.548
 1085TIP3   OH2 3260   3.663   1.213   0.024
 1085TIP3    H1 3261   3.669   1.130  -0.023
 1085TIP3    H2 3262   3.630   1.189   0.111
 1086TIP3   OH2 3263   0.271   3.184   3.093
 1086TIP3    H1 3264   0.319   3.105   3.118
 1086TIP3    H2 3265   0.194   3.185   3.149
 1087TIP3   OH2 3266   4.698   2.734   2.808
 1087TIP3    H1 3267   4.761   2.661   2.811
 1087TIP3    H2 3268   4.673   2.746   2.899
 1088TIP3   OH2 3269   0.833   2.945   0.505
 1088TIP3    H1 3270   0.920   2.982   0.519
 1088TIP3    H2 3271   0.773   3.012   0.536
 1089TIP3   OH2 3272   4.700   0.974   2.398
 1089TIP3    H1 3273   4.617   0.943   2.362
 1089TIP3    H2 3274   4.683   1.065   2.422
 1090TIP3   OH2 3275   4.019   2.036   4.369
 1090TIP3    H1 3276   4.101   2.028   4.419
 1090TIP3    H2 3277   4.047   2.040   4.278
 1091TIP3   OH2 3278   5.031   2.038   4.801
 1091TIP3    H1 3279   4.955   1.984   4.824
 1091TIP3    H2 3280   5.098   1.975   4.776
 1092TIP3   OH2 3281   2.487   3.486   1.051
 1092TIP3    H1 3282   2.490   3.520   1.141
 1092TIP3    H2 3283   2.570   3.440   1.040
 1093TIP3   OH2 3284   0.899   3.095   1.210
 1093TIP3    H1 3285   0.874   3.144   1.289
 1093TIP3    H2 3286   0.953   3.156   1.160
 1094TIP3   OH2 3287   0.837   3.407   0.657
 1094TIP3    H1 3288   0.760   3.453   0.622
 1094TIP3    H2 3289   0.885   3.475   0.705
 1095TIP3   OH2 3290   0.261   4.647   0.465
 1095TIP3    H1 3291   0.243   4.652   0.559
 1095TIP3    H2 3292   0.252   4.738   0.434
 1096TIP3   OH2 3293   1.514   1.647   1.002
 1096TIP3    H1 3294   1.488   1.596   0.926
 1096TIP3    H2 3295   1.595   1.691   0.975
 1097TIP3   OH2 3296   4.947   1.053   3.568
 1097TIP3    H1 3297   4.969   0.975   3.518
 1097TIP3    H2 3298   4.911   1.019   3.650
 1098TIP3   OH2 3299   4.373   0.732   3.462
 1098TIP3    H1 3300   4.372   0.640   3.487
 1098TIP3    H2 3301   4.412   0.777   3.537
 1099TIP3   OH2 3302   3.987   5.099   1.156
 1099TIP3    H1 3303   3.892   5.095   1.152
 1099TIP3    H2 3304   4.007   5.191   1.141
 1100TIP3   OH2 3305   1.256   0.601   2.528
 1100TIP3    H1 3306   1.272   0.624   2.620
 1100TIP3    H2 3307   1.326   0.539   2.506
 1101TIP3   OH2 3308   6.013   3.506   1.069
 1101TIP3    H1 3309   5.968   3.493   0.986
 1101TIP3    H2 3310   5.989   3.431   1.122
 1102TIP3   OH2 3311   2.774   3.516   3.602
 1102TIP3    H1 3312   2.696   3.483   3.557
 1102TIP3    H2 3313   2.845   3.504   3.539
 1103TIP3   OH2 3314   4.342   5.653  -0.016
 1103TIP3    H1 3315   4.423   5.670   0.031
 1103TIP3    H2 3316   4.312   5.739  -0.045
 1104TIP3   OH2 3317   4.790   3.350   2.209
 1104TIP3    H1 3318   4.837   3.429   2.184
 1104TIP3    H2 3319   4.844   3.310   2.277
 1105TIP3   OH2 3320   1.382   2.803   1.421
 1105TIP3    H1 3321   1.401   2.788   1.514
 1105TIP3    H2 3322   1.425   2.887   1.401
 1106TIP3   OH2 3323   0.756   1.761   3.854
 1106TIP3    H1 3324   0.840   1.727   3.885
 1106TIP3    H2 3325   0.775   1.849   3.823
 1107TIP3   OH2 3326   5.149   5.295   1.854
 1107TIP3    H1 3327   5.242   5.275   1.846
 1107TIP3    H2 3328   5.108   5.249   1.781
 1108TIP3   OH2 3329   3.867   1.430   4.794
 1108TIP3    H1 3330   3.892   1.369   4.724
 1108TIP3    H2 3331   3.833   1.374   4.864
 1109TIP3   OH2 3332   4.905   2.240   3.254
 1109TIP3    H1 3333   4.935   2.150   3.247
 1109TIP3    H2 3334   4.985   2.291   3.266
 1110TIP3   OH2 3335   1.099   5.463   0.800
 1110TIP3    H1 3336   1.140   5.477   0.885
 1110TIP3    H2 3337   1.025   5.524   0.798
 1111TIP3   OH2 3338   4.698   5.221   1.259
 1111TIP3    H1 3339   4.664   5.229   1.349
 1111TIP3    H2 3340   4.620   5.225   1.204
 1112TIP3   OH2 3341   0.016   3.916   3.500
 1112TIP3    H1 3342   0.040   3.855   3.570
 1112TIP3    H2 3343  -0.079   3.904   3.490
 1113TIP3   OH2 3344   2.683   3.298   0.482
 1113TIP3    H1 3345   2.588   3.284   0.492
 1113TIP3    H2 3346   2.690   3.384   0.441
 1114TIP3   OH2 3347   2.903   2.796   5.153
 1114TIP3    H1 3348   2.917   2.705   5.178
 1114TIP3    H2 3349   2.811   2.800   5.125
 1115TIP3   OH2 3350   2.752   4.200   1.735
 1115TIP3    H1 3351   2.775   4.290   1.713
 1115TIP3    H2 3352   2.817   4.173   1.800
 1116TIP3   OH2 3353   0.279   3.661   1.217
 1116TIP3    H1 3354   0.334   3.697   1.286
 1116TIP3    H2 3355   0.250   3.576   1.250
 1117TIP3   OH2 3356   5.085   3.665   3.177
 1117TIP3    H1 3357   5.082   3.668   3.272
 1117TIP3    H2 3358   5.176   3.643   3.156
 1118TIP3   OH2 3359   3.714   3.108   2.888
 1118TIP3    H1 3360   3.735   3.202   2.887
 1118TIP3    H2 3361   3.794   3.066   2.856
 1119TIP3   OH2 3362   0.486   3.303   0.769
 1119TIP3    H1 3363   0.545   3.258   0.829
 1119TIP3    H2 3364   0.429   3.355   0.825
 1120TIP3   OH2 3365   3.621   3.936   1.564
 1120TIP3    H1 3366   3.551   3.874   1.547
 1120TIP3    H2 3367   3.624   3.945   1.659
 1121TIP3   OH2 3368   4.237   0.453   3.960
 1121TIP3    H1 3369   4.176   0.412   3.898
 1121TIP3    H2 3370   4.320   0.457   3.913
 1122TIP3   OH2 3371   0.756   0.333   4.370
 1122TIP3    H1 3372   0.840   0.377   4.385
 1122TIP3    H2 3373   0.760   0.304   4.279
 1123TIP3   OH2 3374   3.452   1.985   4.854
 1123TIP3    H1 3375   3.398   1.915   4.890
 1123TIP3    H2 3376   3.536   1.944   4.835
 1124TIP3   OH2 3377   5.766   5.267   2.943
 1124TIP3    H1 3378   5.849   5.302   2.976
 1124TIP3    H2 3379   5.712   5.344   2.929
 1125TIP3   OH2 3380   0.627   3.811   3.228
 1125TIP3    H1 3381   0.551   3.857   3.264
 1125TIP3    H2 3382   0.683   3.880   3.194
 1126TIP3   OH2 3383   0.851   0.677   1.226
 1126TIP3    H1 3384   0.834   0.667   1.132
 1126TIP3    H2 3385   0.764   0.669   1.266
 1127TIP3   OH2 3386   2.150   1.043   0.238
 1127TIP3    H1 3387   2.066   1.027   0.195
 1127TIP3    H2 3388   2.184   1.122   0.195
 1128TIP3   OH2 3389   2.447   3.422   3.201
 1128TIP3    H1 3390   2.508   3.350   3.187
 1128TIP3    H2 3391   2.481   3.469   3.278
 1129TIP3   OH2 3392   4.273   5.529   4.209
 1129TIP3    H1 3393   4.233   5.616   4.210
 1129TIP3    H2 3394   4.230   5.482   4.280
 1130TIP3   OH2 3395   2.457   5.107   4.428
 1130TIP3    H1 3396   2.506   5.139   4.352
 1130TIP3    H2 3397   2.415   5.026   4.397
 1131TIP3   OH2 3398   3.254   4.562   4.059
 1131TIP3    H1 3399   3.301   4.529   4.136
 1131TIP3    H2 3400   3.174   4.510   4.056
 1132TIP3   OH2 3401   0.264   1.819   3.499
 1132TIP3    H1 3402   0.255   1.755   3.429
 1132TIP3    H2 3403   0.358   1.839   3.501
 1133TIP3   OH2 3404   0.117   0.019   0.848
 1133TIP3    H1 3405   0.036  -0.011   0.805
 1133TIP3    H2 3406   0.186  -0.032   0.807
 1134TIP3   OH2 3407   3.760   2.572   2.157
 1134TIP3    H1 3408   3.683   2.560   2.213
 1134TIP3    H2 3409   3.797   2.484   2.149
 1135TIP3   OH2 3410   5.624   2.124   2.398
 1135TIP3    H1 3411   5.549   2.127   2.339
 1135TIP3    H2 3412   5.674   2.047   2.370
 1136TIP3   OH2 3413   3.831   0.902   2.055
 1136TIP3    H1 3414   3.845   0.818   2.100
 1136TIP3    H2 3415   3.744   0.930   2.083
 1137TIP3   OH2 3416   2.318   1.992   1.373
 1137TIP3    H1 3417   2.231   1.952   1.369
 1137TIP3    H2 3418   2.300   2.086   1.384
 1138TIP3   OH2 3419   5.857   0.017   3.912
 1138TIP3    H1 3420   5.876  -0.003   4.004
 1138TIP3    H2 3421   5.896  -0.055   3.863
 1139TIP3   OH2 3422   6.057   0.653   4.703
 1139TIP3    H1 3423   6.126   0.675   4.641
 1139TIP3    H2 3424   6.049   0.730   4.759
 1140TIP3   OH2 3425   1.901   4.244   4.370
 1140TIP3    H1 3426   1.825   4.215   4.320
 1140TIP3    H2 3427   1.919   4.332   4.338
 1141TIP3   OH2 3428   1.091   5.111   1.976
 1141TIP3    H1 3429   1.007   5.067   1.965
 1141TIP3    H2 3430   1.113   5.100   2.069
 1142TIP3   OH2 3431   3.495   2.265   1.936
 1142TIP3    H1 3432   3.574   2.211   1.939
 1142TIP3    H2 3433   3.423   2.202   1.945
 1143TIP3   OH2 3434   2.108   5.158   4.602
 1143TIP3    H1 3435   2.094   5.156   4.696
 1143TIP3    H2 3436   2.146   5.072   4.582
 1144TIP3   OH2 3437   1.302   4.905   1.618
 1144TIP3    H1 3438   1.355   4.964   1.565
 1144TIP3    H2 3439   1.222   4.891   1.567
 1145TIP3   OH2 3440   3.253   3.823   0.270
 1145TIP3    H1 3441   3.170   3.825   0.319
 1145TIP3    H2 3442   3.231   3.861   0.185
 1146TIP3   OH2 3443   0.664   3.945   0.388
 1146TIP3    H1 3444   0.681   3.866   0.337
 1146TIP3    H2 3445   0.715   3.933   0.468
 1147TIP3   OH2 3446   6.154   3.766   1.287
 1147TIP3    H1 3447   6.112   3.764   1.201
 1147TIP3    H2 3448   6.152   3.858   1.313
 1148TIP3   OH2 3449   0.907   0.452   0.883
 1148TIP3    H1 3450   0.999   0.454   0.911
 1148TIP3    H2 3451   0.903   0.379   0.821
 1149TIP3   OH2 3452  -0.029   1.468   2.494
 1149TIP3    H1 3453  -0.061   1.403   2.432
 1149TIP3    H2 3454  -0.040   1.552   2.448
 1150TIP3   OH2 3455   2.091   4.359   4.048
 1150TIP3    H1 3456   2.015   4.307   4.020
 1150TIP3    H2 3457   2.108   4.329   4.137
 1151TIP3   OH2 3458   1.125   5.681   4.707
 1151TIP3    H1 3459   1.120   5.727   4.623
 1151TIP3    H2 3460   1.129   5.588   4.683
 1152TIP3   OH2 3461   3.564   5.465   1.398
 1152TIP3    H1 3462   3.586   5.510   1.480
 1152TIP3    H2 3463   3.470   5.476   1.389
 1153TIP3   OH2 3464   0.375   5.569   3.900
 1153TIP3    H1 3465   0.371   5.532   3.812
 1153TIP3    H2 3466   0.464   5.604   3.908
 1154TIP3   OH2 3467   4.233   3.868   2.165
 1154TIP3    H1 3468   4.305   3.811   2.192
 1154TIP3    H2 3469   4.258   3.897   2.077
 1155TIP3   OH2 3470   4.231   5.887   1.818
 1155TIP3    H1 3471   4.179   5.952   1.866
 1155TIP3    H2 3472   4.291   5.938   1.764
 1156TIP3   OH2 3473   1.477   1.026   3.558
 1156TIP3    H1 3474   1.408   1.063   3.613
 1156TIP3    H2 3475   1.556   1.032   3.611
 1157TIP3   OH2 3476   4.888   2.793   1.401
 1157TIP3    H1 3477   4.866   2.870   1.452
 1157TIP3    H2 3478   4.906   2.826   1.313
 1158TIP3   OH2 3479   5.720   2.411   2.773
 1158TIP3    H1 3480   5.706   2.476   2.704
 1158TIP3    H2 3481   5.785   2.351   2.737
 1159TIP3   OH2 3482   5.254   3.846   1.363
 1159TIP3    H1 3483   5.172   3.817   1.403
 1159TIP3    H2 3484   5.262   3.793   1.284
 1160TIP3   OH2 3485   5.858   4.714   2.337
 1160TIP3    H1 3486   5.892   4.649   2.276
 1160TIP3    H2 3487   5.795   4.764   2.286
 1161TIP3   OH2 3488   1.593   1.333   4.517
 1161TIP3    H1 3489   1.566   1.404   4.575
 1161TIP3    H2 3490   1.604   1.374   4.431
 1162TIP3   OH2 3491   2.920   4.986   3.202
 1162TIP3    H1 3492   3.015   4.999   3.193
 1162TIP3    H2 3493   2.909   4.891   3.206
 1163TIP3   OH2 3494   0.417   4.790   4.371
 1163TIP3    H1 3495   0.342   4.800   4.312
 1163TIP3    H2 3496   0.469   4.720   4.331
 1164TIP3   OH2 3497   5.526   0.380   1.951
 1164TIP3    H1 3498   5.546   0.308   1.891
 1164TIP3    H2 3499   5.557   0.349   2.037
 1165TIP3   OH2 3500   5.538   5.010   3.716
 1165TIP3    H1 3501   5.600   4.943   3.688
 1165TIP3    H2 3502   5.541   5.006   3.812
 1166TIP3   OH2 3503   5.194   3.917   3.951
 1166TIP3    H1 3504   5.158   3.829   3.947
 1166TIP3    H2 3505   5.161   3.961   3.873
 1167TIP3   OH2 3506   1.994   5.874   2.558
 1167TIP3    H1 3507   1.960   5.825   2.484
 1167TIP3    H2 3508   1.933   5.854   2.630
 1168TIP3   OH2 3509   4.389   5.739   1.947
 1168TIP3    H1 3510   4.322   5.785   1.897
 1168TIP3    H2 3511   4.353   5.652   1.964
 1169TIP3   OH2 3512   3.473   3.988   3.479
 1169TIP3    H1 3513   3.411   4.061   3.485
 1169TIP3    H2 3514   3.488   3.978   3.385
 1170TIP3   OH2 3515   4.746   3.588   4.019
 1170TIP3    H1 3516   4.825   3.632   4.051
 1170TIP3    H2 3517   4.674   3.628   4.069
 1171TIP3   OH2 3518   3.214   0.469   3.435
 1171TIP3    H1 3519   3.236   0.461   3.342
 1171TIP3    H2 3520   3.266   0.401   3.478
 1172TIP3   OH2 3521   3.342   4.983   2.334
 1172TIP3    H1 3522   3.372   5.073   2.319
 1172TIP3    H2 3523   3.290   4.988   2.414
 1173TIP3   OH2 3524   0.171   0.134   4.066
 1173TIP3    H1 3525   0.260   0.115   4.036
 1173TIP3    H2 3526   0.160   0.080   4.145
 1174TIP3   OH2 3527   2.043   5.496   2.058
 1174TIP3    H1 3528   2.025   5.522   1.968
 1174TIP3    H2 3529   2.025   5.402   2.060
 1175TIP3   OH2 3530   2.204   1.651   0.801
 1175TIP3    H1 3531   2.293   1.679   0.779
 1175TIP3    H2 3532   2.164   1.630   0.717
 1176TIP3   OH2 3533   6.110   4.028   1.364
 1176TIP3    H1 3534   6.015   4.013   1.358
 1176TIP3    H2 3535   6.120   4.120   1.342
 1177TIP3   OH2 3536   4.633   5.689   2.432
 1177TIP3    H1 3537   4.556   5.633   2.427
 1177TIP3    H2 3538   4.689   5.648   2.497
 1178TIP3   OH2 3539   0.419   2.654   1.392
 1178TIP3    H1 3540   0.326   2.670   1.377
 1178TIP3    H2 3541   0.422   2.595   1.467
 1179TIP3   OH2 3542   5.663   5.170   4.469
 1179TIP3    H1 3543   5.618   5.140   4.390
 1179TIP3    H2 3544   5.700   5.255   4.445
 1180TIP3   OH2 3545   6.229   2.580   1.024
 1180TIP3    H1 3546   6.305   2.595   0.967
 1180TIP3    H2 3547   6.213   2.486   1.017
 1181TIP3   OH2 3548   5.151   3.549   3.433
 1181TIP3    H1 3549   5.193   3.548   3.519
 1181TIP3    H2 3550   5.200   3.486   3.382
 1182TIP3   OH2 3551   4.459   2.974   0.103
 1182TIP3    H1 3552   4.496   3.060   0.082
 1182TIP3    H2 3553   4.512   2.913   0.052
 1183TIP3   OH2 3554   0.498   5.791   1.193
 1183TIP3    H1 3555   0.443   5.730   1.244
 1183TIP3    H2 3556   0.580   5.744   1.181
 1184TIP3   OH2 3557   3.057   3.693   1.508
 1184TIP3    H1 3558   3.127   3.704   1.572
 1184TIP3    H2 3559   2.978   3.680   1.560
 1185TIP3   OH2 3560   6.141   3.745   4.225
 1185TIP3    H1 3561   6.057   3.722   4.185
 1185TIP3    H2 3562   6.192   3.664   4.222
 1186TIP3   OH2 3563   2.966   1.948   4.095
 1186TIP3    H1 3564   2.975   1.964   4.189
 1186TIP3    H2 3565   3.054   1.966   4.060
 1187TIP3   OH2 3566  -0.016   1.972   0.634
 1187TIP3    H1 3567   0.015   1.971   0.725
 1187TIP3    H2 3568   0.043   2.031   0.589
 1188TIP3   OH2 3569   0.280   3.979   4.548
 1188TIP3    H1 3570   0.360   3.930   4.533
 1188TIP3    H2 3571   0.210   3.914   4.542
 1189TIP3   OH2 3572   4.706   4.250   2.009
 1189TIP3    H1 3573   4.716   4.204   1.925
 1189TIP3    H2 3574   4.652   4.192   2.062
 1190TIP3   OH2 3575   0.522   3.678   3.837
 1190TIP3    H1 3576   0.572   3.601   3.812
 1190TIP3    H2 3577   0.431   3.654   3.819
 1191TIP3   OH2 3578   5.630   5.627   0.197
 1191TIP3    H1 3579   5.616   5.564   0.126
 1191TIP3    H2 3580   5.724   5.645   0.195
 1192TIP3   OH2 3581   2.891   2.415   1.191
 1192TIP3    H1 3582   2.836   2.489   1.218
 1192TIP3    H2 3583   2.908   2.431   1.098
 1193TIP3   OH2 3584   2.878   5.299   5.013
 1193TIP3    H1 3585   2.871   5.383   5.058
 1193TIP3    H2 3586   2.896   5.235   5.082
 1194TIP3   OH2 3587   0.653   2.830   1.429
 1194TIP3    H1 3588   0.614   2.746   1.404
 1194TIP3    H2 3589   0.599   2.861   1.501
 1195TIP3   OH2 3590   5.366   5.664   1.240
 1195TIP3    H1 3591   5.325   5.600   1.298
 1195TIP3    H2 3592   5.325   5.649   1.154
 1196TIP3   OH2 3593   2.596   1.275   2.184
 1196TIP3    H1 3594   2.637   1.309   2.104
 1196TIP3    H2 3595   2.670   1.247   2.238
 1197TIP3   OH2 3596   4.142   2.823   2.569
 1197TIP3    H1 3597   4.146   2.846   2.476
 1197TIP3    H2 3598   4.219   2.864   2.607
 1198TIP3   OH2 3599   5.761   0.112   3.066
 1198TIP3    H1 3600   5.751   0.196   3.021
 1198TIP3    H2 3601   5.824   0.063   3.013
 1199TIP3   OH2 3602   2.683   5.796   3.603
 1199TIP3    H1 3603   2.767   5.840   3.615
 1199TIP3    H2 3604   2.640   5.802   3.689
 1200TIP3   OH2 3605   6.000   1.902   4.288
 1200TIP3    H1 3606   5.947   1.868   4.216
 1200TIP3    H2 3607   5.950   1.882   4.367
 1201TIP3   OH2 3608   4.916   1.236   1.976
 1201TIP3    H1 3609   4.921   1.330   1.961
 1201TIP3    H2 3610   5.006   1.205   1.964
 1202TIP3   OH2 3611   2.168   4.836   0.926
 1202TIP3    H1 3612   2.099   4.776   0.901
 1202TIP3    H2 3613   2.193   4.809   1.015
 1203TIP3   OH2 3614   3.043   2.991   0.121
 1203TIP3    H1 3615   3.100   2.988   0.044
 1203TIP3    H2 3616   2.971   3.049   0.096
 1204TIP3   OH2 3617   4.408   3.957   4.459
 1204TIP3    H1 3618   4.435   3.866   4.448
 1204TIP3    H2 3619   4.380   3.985   4.372
 1205TIP3   OH2 3620   0.262   1.189   0.783
 1205TIP3    H1 3621   0.297   1.269   0.744
 1205TIP3    H2 3622   0.170   1.187   0.755
 1206TIP3   OH2 3623   5.710   2.124   0.059
 1206TIP3    H1 3624   5.684   2.032   0.066
 1206TIP3    H2 3625   5.727   2.151   0.150
 1207TIP3   OH2 3626   3.677   0.055   2.072
 1207TIP3    H1 3627   3.622  -0.020   2.093
 1207TIP3    H2 3628   3.762   0.017   2.048
 1208TIP3   OH2 3629   4.245   2.777   4.246
 1208TIP3    H1 3630   4.320   2.780   4.306
 1208TIP3    H2 3631   4.281   2.805   4.161
 1209TIP3   OH2 3632   1.370   0.693   0.384
 1209TIP3    H1 3633   1.313   0.616   0.382
 1209TIP3    H2 3634   1.450   0.663   0.425
 1210TIP3   OH2 3635   1.267   2.218   5.099
 1210TIP3    H1 3636   1.361   2.235   5.098
 1210TIP3    H2 3637   1.244   2.216   5.192
 1211TIP3   OH2 3638   5.945   2.689   0.873
 1211TIP3    H1 3639   5.932   2.637   0.953
 1211TIP3    H2 3640   5.864   2.679   0.825
 1212TIP3   OH2 3641   3.124   4.028   4.728
 1212TIP3    H1 3642   3.150   4.040   4.819
 1212TIP3    H2 3643   3.095   3.936   4.723
 1213TIP3   OH2 3644   2.858   4.150   2.795
 1213TIP3    H1 3645   2.883   4.222   2.852
 1213TIP3    H2 3646   2.834   4.079   2.855
 1214TIP3   OH2 3647   3.406   3.686   2.127
 1214TIP3    H1 3648   3.388   3.780   2.133
 1214TIP3    H2 3649   3.496   3.677   2.157
 1215TIP3   OH2 3650   2.373   1.724   2.286
 1215TIP3    H1 3651   2.453   1.709   2.337
 1215TIP3    H2 3652   2.305   1.739   2.352
 1216TIP3   OH2 3653   2.467   4.234   4.396
 1216TIP3    H1 3654   2.445   4.226   4.489
 1216TIP3    H2 3655   2.561   4.218   4.392
 1217TIP3   OH2 3656   1.770   5.606   1.535
 1217TIP3    H1 3657   1.750   5.559   1.454
 1217TIP3    H2 3658   1.694   5.589   1.591
 1218TIP3   OH2 3659   3.051   1.998   2.623
 1218TIP3    H1 3660   3.138   1.967   2.650
 1218TIP3    H2 3661   3.040   2.081   2.668
 1219TIP3   OH2 3662   6.226   5.390   0.445
 1219TIP3    H1 3663   6.238   5.304   0.405
 1219TIP3    H2 3664   6.240   5.376   0.538
 1220TIP3   OH2 3665   3.229   5.862   0.709
 1220TIP3    H1 3666   3.307   5.856   0.654
 1220TIP3    H2 3667   3.231   5.782   0.762
 1221TIP3   OH2 3668   4.030   5.691   1.822
 1221TIP3    H1 3669   4.111   5.732   1.853
 1221TIP3    H2 3670   4.040   5.599   1.844
 1222TIP3   OH2 3671   2.761   1.717   4.475
 1222TIP3    H1 3672   2.819   1.643   4.459
 1222TIP3    H2 3673   2.719   1.733   4.391
 1223TIP3   OH2 3674   2.293   5.764   4.433
 1223TIP3    H1 3675   2.198   5.762   4.446
 1223TIP3    H2 3676   2.319   5.852   4.459
 1224TIP3   OH2 3677   5.088   4.573   4.198
 1224TIP3    H1 3678   5.126   4.553   4.113
 1224TIP3    H2 3679   5.015   4.632   4.179
 1225TIP3   OH2 3680   6.155   1.892   3.521
 1225TIP3    H1 3681   6.085   1.934   3.571
 1225TIP3    H2 3682   6.234   1.909   3.571
 1226TIP3   OH2 3683   2.806   5.765   1.066
 1226TIP3    H1 3684   2.774   5.676   1.084
 1226TIP3    H2 3685   2.867   5.783   1.138
 1227TIP3   OH2 3686   4.271   0.803   0.588
 1227TIP3    H1 3687   4.294   0.715   0.558
 1227TIP3    H2 3688   4.214   0.788   0.664
 1228TIP3   OH2 3689   0.496   2.943   2.630
 1228TIP3    H1 3690   0.534   2.857   2.649
 1228TIP3    H2 3691   0.467   2.976   2.715
 1229TIP3   OH2 3692   4.770   1.615   2.331
 1229TIP3    H1 3693   4.767   1.528   2.371
 1229TIP3    H2 3694   4.810   1.671   2.398
 1230TIP3   OH2 3695   4.847   3.919   3.106
 1230TIP3    H1 3696   4.801   3.890   3.028
 1230TIP3    H2 3697   4.825   3.853   3.173
 1231TIP3   OH2 3698   3.241   0.767   4.105
 1231TIP3    H1 3699   3.254   0.780   4.011
 1231TIP3    H2 3700   3.312   0.816   4.146
 1232TIP3   OH2 3701   1.522   0.441   2.990
 1232TIP3    H1 3702   1.564   0.358   3.015
 1232TIP3    H2 3703   1.590   0.507   3.001
 1233TIP3   OH2 3704   5.654   4.912   0.713
 1233TIP3    H1 3705   5.676   4.958   0.632
 1233TIP3    H2 3706   5.606   4.976   0.765
 1234TIP3   OH2 3707   3.682   4.196   4.046
 1234TIP3    H1 3708   3.757   4.234   4.001
 1234TIP3    H2 3709   3.678   4.243   4.129
 1235TIP3   OH2 3710   1.789   3.958   0.436
 1235TIP3    H1 3711   1.738   3.954   0.517
 1235TIP3    H2 3712   1.736   4.012   0.377
 1236TIP3   OH2 3713   0.958   1.744   1.492
 1236TIP3    H1 3714   0.959   1.727   1.586
 1236TIP3    H2 3715   1.006   1.671   1.454
 1237TIP3   OH2 3716   4.820   3.073   0.426
 1237TIP3    H1 3717   4.870   3.106   0.351
 1237TIP3    H2 3718   4.736   3.046   0.388
 1238TIP3   OH2 3719   4.231   1.737   1.192
 1238TIP3    H1 3720   4.211   1.830   1.200
 1238TIP3    H2 3721   4.323   1.730   1.216
 1239TIP3   OH2 3722   3.765   1.738   1.901
 1239TIP3    H1 3723   3.838   1.800   1.899
 1239TIP3    H2 3724   3.695   1.781   1.851
 1240TIP3   OH2 3725   2.044   4.833   2.238
 1240TIP3    H1 3726   2.059   4.805   2.328
 1240TIP3    H2 3727   2.131   4.850   2.203
 1241TIP3   OH2 3728   5.482   2.225   2.125
 1241TIP3    H1 3729   5.489   2.141   2.078
 1241TIP3    H2 3730   5.401   2.264   2.092
 1242TIP3   OH2 3731   3.220   1.095   1.586
 1242TIP3    H1 3732   3.220   1.000   1.574
 1242TIP3    H2 3733   3.308   1.122   1.560
 1243TIP3   OH2 3734   3.530   3.553   5.162
 1243TIP3    H1 3735   3.552   3.612   5.090
 1243TIP3    H2 3736   3.518   3.467   5.120
 1244TIP3   OH2 3737   5.012   3.013   0.646
 1244TIP3    H1 3738   4.978   3.042   0.731
 1244TIP3    H2 3739   4.936   3.016   0.588
 1245TIP3   OH2 3740   5.937   5.097   4.492
 1245TIP3    H1 3741   5.843   5.113   4.487
 1245TIP3    H2 3742   5.958   5.050   4.412
 1246TIP3   OH2 3743   6.073   4.308   0.181
 1246TIP3    H1 3744   6.104   4.311   0.271
 1246TIP3    H2 3745   5.979   4.326   0.187
 1247TIP3   OH2 3746   2.457   0.366   0.250
 1247TIP3    H1 3747   2.498   0.433   0.304
 1247TIP3    H2 3748   2.499   0.284   0.278
 1248TIP3   OH2 3749   2.946   3.305   5.181
 1248TIP3    H1 3750   2.923   3.249   5.107
 1248TIP3    H2 3751   2.879   3.287   5.247
 1249TIP3   OH2 3752   5.422   2.839   1.788
 1249TIP3    H1 3753   5.447   2.930   1.776
 1249TIP3    H2 3754   5.504   2.790   1.786
 1250TIP3   OH2 3755   6.183   0.587   4.973
 1250TIP3    H1 3756   6.268   0.606   4.933
 1250TIP3    H2 3757   6.156   0.671   5.012
 1251TIP3   OH2 3758   5.199   0.745   3.213
 1251TIP3    H1 3759   5.266   0.717   3.151
 1251TIP3    H2 3760   5.129   0.780   3.159
 1252TIP3   OH2 3761   4.338   1.722   1.444
 1252TIP3    H1 3762   4.363   1.775   1.521
 1252TIP3    H2 3763   4.342   1.632   1.475
 1253TIP3   OH2 3764   4.668   4.738   5.033
 1253TIP3    H1 3765   4.695   4.650   5.061
 1253TIP3    H2 3766   4.737   4.796   5.064
 1254TIP3   OH2 3767   1.269   4.963   3.161
 1254TIP3    H1 3768   1.363   4.978   3.163
 1254TIP3    H2 3769   1.231   5.049   3.179
 1255TIP3   OH2 3770   1.026   1.990   2.729
 1255TIP3    H1 3771   1.018   2.052   2.657
 1255TIP3    H2 3772   0.945   1.939   2.725
 1256TIP3   OH2 3773   1.052   5.870   4.517
 1256TIP3    H1 3774   1.001   5.807   4.467
 1256TIP3    H2 3775   1.014   5.955   4.494
 1257TIP3   OH2 3776   2.383   2.913   1.945
 1257TIP3    H1 3777   2.418   2.847   1.885
 1257TIP3    H2 3778   2.403   2.880   2.032
 1258TIP3   OH2 3779  -0.014   4.740   3.765
 1258TIP3    H1 3780   0.057   4.805   3.767
 1258TIP3    H2 3781   0.028   4.658   3.794
 1259TIP3   OH2 3782   4.902   5.788   1.654
 1259TIP3    H1 3783   4.937   5.865   1.608
 1259TIP3    H2 3784   4.830   5.822   1.706
 1260TIP3   OH2 3785   5.289   0.274  -0.025
 1260TIP3    H1 3786   5.244   0.232   0.049
 1260TIP3    H2 3787   5.223   0.330  -0.066
 1261TIP3   OH2 3788   2.893   4.415   2.940
 1261TIP3    H1 3789   2.911   4.508   2.935
 1261TIP3    H2 3790   2.808   4.409   2.985
 1262TIP3   OH2 3791   0.134   0.945   1.896
 1262TIP3    H1 3792   0.166   0.860   1.929
 1262TIP3    H2 3793   0.071   0.974   1.963
 1263TIP3   OH2 3794   5.847   3.356   2.616
 1263TIP3    H1 3795   5.787   3.394   2.680
 1263TIP3    H2 3796   5.867   3.269   2.651
 1264TIP3   OH2 3797   1.863   0.636   2.249
 1264TIP3    H1 3798   1.819   0.664   2.168
 1264TIP3    H2 3799   1.805   0.665   2.319
 1265TIP3   OH2 3800   1.404   5.062   4.250
 1265TIP3    H1 3801   1.391   4.967   4.251
 1265TIP3    H2 3802   1.480   5.076   4.194
 1266TIP3   OH2 3803   1.441   5.001   0.968
 1266TIP3    H1 3804   1.502   4.991   0.895
 1266TIP3    H2 3805   1.372   4.936   0.951
 1267TIP3   OH2 3806   4.217  -0.053   5.126
 1267TIP3    H1 3807   4.297  -0.009   5.154
 1267TIP3    H2 3808   4.248  -0.135   5.088
 1268TIP3   OH2 3809   1.730   1.976   2.933
 1268TIP3    H1 3810   1.674   2.044   2.970
 1268TIP3    H2 3811   1.703   1.896   2.979
 1269TIP3   OH2 3812   5.718   3.779   0.274
 1269TIP3    H1 3813   5.647   3.775   0.338
 1269TIP3    H2 3814   5.722   3.691   0.237
 1270TIP3   OH2 3815   0.079   3.785   1.346
 1270TIP3    H1 3816  -0.008   3.762   1.315
 1270TIP3    H2 3817   0.138   3.757   1.275
 1271TIP3   OH2 3818   1.661   3.314   3.884
 1271TIP3    H1 3819   1.653   3.327   3.790
 1271TIP3    H2 3820   1.753   3.294   3.898
 1272TIP3   OH2 3821   3.471   1.420   0.080
 1272TIP3    H1 3822   3.511   1.333   0.080
 1272TIP3    H2 3823   3.543   1.480   0.060
 1273TIP3   OH2 3824   3.400   5.268   2.263
 1273TIP3    H1 3825   3.384   5.361   2.279
 1273TIP3    H2 3826   3.443   5.266   2.178
 1274TIP3   OH2 3827   6.090   0.042   1.913
 1274TIP3    H1 3828   6.101  -0.006   1.995
 1274TIP3    H2 3829   6.007   0.089   1.923
 1275TIP3   OH2 3830   0.093   5.438   3.582
 1275TIP3    H1 3831   0.100   5.344   3.601
 1275TIP3    H2 3832   0.166   5.456   3.523
 1276TIP3   OH2 3833   3.778   2.797   3.951
 1276TIP3    H1 3834   3.727   2.744   3.890
 1276TIP3    H2 3835   3.714   2.851   3.995
 1277TIP3   OH2 3836   3.507   5.418   0.076
 1277TIP3    H1 3837   3.530   5.401   0.167
 1277TIP3    H2 3838   3.558   5.353   0.027
 1278TIP3   OH2 3839   5.083   1.688   3.789
 1278TIP3    H1 3840   5.021   1.628   3.831
 1278TIP3    H2 3841   5.028   1.750   3.742
 1279TIP3   OH2 3842   1.401   2.790   4.659
 1279TIP3    H1 3843   1.384   2.846   4.584
 1279TIP3    H2 3844   1.361   2.835   4.733
 1280TIP3   OH2 3845   1.693   4.601   1.492
 1280TIP3    H1 3846   1.699   4.691   1.524
 1280TIP3    H2 3847   1.759   4.554   1.543
 1281TIP3   OH2 3848   4.853   0.125   2.929
 1281TIP3    H1 3849   4.837   0.073   2.850
 1281TIP3    H2 3850   4.909   0.069   2.983
 1282TIP3   OH2 3851   2.185   3.802   2.293
 1282TIP3    H1 3852   2.245   3.851   2.348
 1282TIP3    H2 3853   2.236   3.780   2.215
 1283TIP3   OH2 3854   1.087   2.473   1.054
 1283TIP3    H1 3855   1.104   2.533   0.982
 1283TIP3    H2 3856   1.055   2.529   1.125
 1284TIP3   OH2 3857   4.718   0.583   1.629
 1284TIP3    H1 3858   4.698   0.490   1.621
 1284TIP3    H2 3859   4.792   0.586   1.689
 1285TIP3   OH2 3860   1.574   2.291   5.133
 1285TIP3    H1 3861   1.606   2.242   5.057
 1285TIP3    H2 3862   1.648   2.291   5.194
 1286TIP3   OH2 3863   1.612   0.502   0.832
 1286TIP3    H1 3864   1.691   0.460   0.866
 1286TIP3    H2 3865   1.617   0.592   0.863
 1287TIP3   OH2 3866   3.866   1.753   1.021
 1287TIP3    H1 3867   3.919   1.828   0.993
 1287TIP3    H2 3868   3.836   1.777   1.108
 1288TIP3   OH2 3869   1.220   0.287   3.000
 1288TIP3    H1 3870   1.181   0.279   3.087
 1288TIP3    H2 3871   1.146   0.292   2.940
 1289TIP3   OH2 3872   1.193   3.727   2.450
 1289TIP3    H1 3873   1.244   3.647   2.463
 1289TIP3    H2 3874   1.192   3.770   2.535
 1290TIP3   OH2 3875   5.771   4.520   3.121
 1290TIP3    H1 3876   5.681   4.552   3.127
 1290TIP3    H2 3877   5.763   4.426   3.111
 1291TIP3   OH2 3878   0.981   3.556   3.455
 1291TIP3    H1 3879   0.888   3.578   3.463
 1291TIP3    H2 3880   0.983   3.483   3.393
 1292TIP3   OH2 3881   2.674   1.143   2.512
 1292TIP3    H1 3882   2.645   1.102   2.430
 1292TIP3    H2 3883   2.766   1.118   2.520
 1293TIP3   OH2 3884   0.181   1.586   0.169
 1293TIP3    H1 3885   0.191   1.561   0.077
 1293TIP3    H2 3886   0.087   1.583   0.185
 1294TIP3   OH2 3887   3.083   3.208   4.572
 1294TIP3    H1 3888   3.101   3.173   4.485
 1294TIP3    H2 3889   3.134   3.154   4.631
 1295TIP3   OH2 3890   2.674   3.306   1.710
 1295TIP3    H1 3891   2.741   3.325   1.644
 1295TIP3    H2 3892   2.713   3.336   1.792
 1296TIP3   OH2 3893   0.101   3.077   2.082
 1296TIP3    H1 3894   0.111   2.999   2.135
 1296TIP3    H2 3895   0.166   3.067   2.012
 1297TIP3   OH2 3896   5.400   1.952   1.748
 1297TIP3    H1 3897   5.333   1.932   1.813
 1297TIP3    H2 3898   5.394   1.880   1.684
 1298TIP3   OH2 3899   5.906   2.686   3.429
 1298TIP3    H1 3900   5.953   2.765   3.456
 1298TIP3    H2 3901   5.928   2.621   3.496
 1299TIP3   OH2 3902   0.439   3.839   1.360
 1299TIP3    H1 3903   0.531   3.865   1.361
 1299TIP3    H2 3904   0.397   3.895   1.424
 1300TIP3   OH2 3905   5.171   3.077   1.220
 1300TIP3    H1 3906   5.168   3.073   1.124
 1300TIP3    H2 3907   5.260   3.050   1.243
 1301TIP3   OH2 3908   1.601   4.109   4.521
 1301TIP3    H1 3909   1.604   4.015   4.537
 1301TIP3    H2 3910   1.564   4.146   4.601
 1302TIP3   OH2 3911   5.274   2.629   4.851
 1302TIP3    H1 3912   5.282   2.633   4.756
 1302TIP3    H2 3913   5.242   2.716   4.876
 1303TIP3   OH2 3914   0.775   2.692   5.053
 1303TIP3    H1 3915   0.772   2.615   5.110
 1303TIP3    H2 3916   0.830   2.755   5.101
 1304TIP3   OH2 3917   5.574   4.378   4.296
 1304TIP3    H1 3918   5.583   4.319   4.221
 1304TIP3    H2 3919   5.628   4.454   4.274
 1305TIP3   OH2 3920   5.177   5.137   4.368
 1305TIP3    H1 3921   5.167   5.082   4.291
 1305TIP3    H2 3922   5.207   5.078   4.437
 1306TIP3   OH2 3923   1.314   3.205   2.740
 1306TIP3    H1 3924   1.275   3.283   2.701
 1306TIP3    H2 3925   1.240   3.148   2.759
 1307TIP3   OH2 3926   6.084   1.644   4.159
 1307TIP3    H1 3927   5.990   1.652   4.177
 1307TIP3    H2 3928   6.096   1.554   4.132
 1308TIP3   OH2 3929   2.104   5.096   1.151
 1308TIP3    H1 3930   2.157   5.169   1.121
 1308TIP3    H2 3931   2.158   5.019   1.135
 1309TIP3   OH2 3932   6.038   4.890   4.687
 1309TIP3    H1 3933   5.977   4.963   4.676
 1309TIP3    H2 3934   6.068   4.871   4.598
 1310TIP3   OH2 3935   6.154   4.866   4.450
 1310TIP3    H1 3936   6.209   4.791   4.426
 1310TIP3    H2 3937   6.116   4.894   4.367
 1311TIP3   OH2 3938   4.484   4.257   1.291
 1311TIP3    H1 3939   4.548   4.325   1.310
 1311TIP3    H2 3940   4.416   4.301   1.240
 1312TIP3   OH2 3941   0.477   4.759   2.748
 1312TIP3    H1 3942   0.394   4.788   2.710
 1312TIP3    H2 3943   0.526   4.725   2.673
 1313TIP3   OH2 3944   5.147   2.905   3.537
 1313TIP3    H1 3945   5.217   2.950   3.584
 1313TIP3    H2 3946   5.188   2.875   3.456
 1314TIP3   OH2 3947   1.986   1.099   3.386
 1314TIP3    H1 3948   1.943   1.151   3.318
 1314TIP3    H2 3949   2.043   1.160   3.431
 1315TIP3   OH2 3950   3.607   4.150   2.984
 1315TIP3    H1 3951   3.584   4.058   2.970
 1315TIP3    H2 3952   3.681   4.165   2.926
 1316TIP3   OH2 3953   4.012   4.033   2.321
 1316TIP3    H1 3954   4.100   4.011   2.291
 1316TIP3    H2 3955   4.025   4.103   2.384
 1317TIP3   OH2 3956   0.058   0.316   4.316
 1317TIP3    H1 3957  -0.024   0.344   4.276
 1317TIP3    H2 3958   0.083   0.238   4.268
 1318TIP3   OH2 3959   4.904   3.756   4.198
 1318TIP3    H1 3960   4.983   3.807   4.215
 1318TIP3    H2 3961   4.839   3.790   4.260
 1319TIP3   OH2 3962   1.523   5.450   0.799
 1319TIP3    H1 3963   1.485   5.397   0.869
 1319TIP3    H2 3964   1.612   5.418   0.790
 1320TIP3   OH2 3965   6.358   4.744   3.253
 1320TIP3    H1 3966   6.366   4.826   3.301
 1320TIP3    H2 3967   6.397   4.763   3.168
 1321TIP3   OH2 3968   3.274   5.820   4.569
 1321TIP3    H1 3969   3.294   5.914   4.572
 1321TIP3    H2 3970   3.181   5.814   4.588
 1322TIP3   OH2 3971   5.724   0.676   2.770
 1322TIP3    H1 3972   5.773   0.757   2.762
 1322TIP3    H2 3973   5.715   0.644   2.680
 1323TIP3   OH2 3974   0.853   4.600   3.642
 1323TIP3    H1 3975   0.838   4.559   3.728
 1323TIP3    H2 3976   0.882   4.528   3.587
 1324TIP3   OH2 3977   3.917   0.497   2.720
 1324TIP3    H1 3978   3.998   0.513   2.769
 1324TIP3    H2 3979   3.914   0.567   2.655
 1325TIP3   OH2 3980   3.622   5.478   0.884
 1325TIP3    H1 3981   3.709   5.481   0.844
 1325TIP3    H2 3982   3.637   5.496   0.976
 1326TIP3   OH2 3983   3.200   3.386   3.279
 1326TIP3    H1 3984   3.260   3.362   3.208
 1326TIP3    H2 3985   3.180   3.303   3.322
 1327TIP3   OH2 3986   5.258   1.419   3.206
 1327TIP3    H1 3987   5.263   1.342   3.149
 1327TIP3    H2 3988   5.201   1.392   3.278
 1328TIP3   OH2 3989   4.786   0.159   3.869
 1328TIP3    H1 3990   4.831   0.109   3.937
 1328TIP3    H2 3991   4.845   0.155   3.794
 1329TIP3   OH2 3992   1.566   1.547   0.735
 1329TIP3    H1 3993   1.655   1.581   0.724
 1329TIP3    H2 3994   1.519   1.578   0.658
 1330TIP3   OH2 3995   3.966   0.181   0.800
 1330TIP3    H1 3996   3.908   0.168   0.725
 1330TIP3    H2 3997   4.029   0.108   0.795
 1331TIP3   OH2 3998   5.054   1.929   0.145
 1331TIP3    H1 3999   5.027   2.020   0.128
 1331TIP3    H2 4000   5.073   1.927   0.238
 1332TIP3   OH2 4001   3.187   3.437   1.526
 1332TIP3    H1 4002   3.247   3.410   1.457
 1332TIP3    H2 4003   3.162   3.526   1.503
 1333TIP3   OH2 4004   6.196   1.632   0.570
 1333TIP3    H1 4005   6.227   1.706   0.517
 1333TIP3    H2 4006   6.249   1.636   0.649
 1334TIP3   OH2 4007   3.615   2.410   4.310
 1334TIP3    H1 4008   3.672   2.335   4.291
 1334TIP3    H2 4009   3.647   2.480   4.254
 1335TIP3   OH2 4010   0.072   0.490   1.565
 1335TIP3    H1 4011   0.045   0.582   1.568
 1335TIP3    H2 4012   0.132   0.486   1.490
 1336TIP3   OH2 4013   4.556   5.215   2.780
 1336TIP3    H1 4014   4.478   5.176   2.741
 1336TIP3    H2 4015   4.601   5.142   2.823
 1337TIP3   OH2 4016   1.580   2.151   4.859
 1337TIP3    H1 4017   1.541   2.235   4.836
 1337TIP3    H2 4018   1.588   2.105   4.776
 1338TIP3   OH2 4019   4.457   5.923   2.546
 1338TIP3    H1 4020   4.522   5.887   2.485
 1338TIP3    H2 4021   4.437   5.850   2.605
 1339TIP3   OH2 4022   4.779   1.994   1.161
 1339TIP3    H1 4023   4.834   1.996   1.083
 1339TIP3    H2 4024   4.747   2.084   1.169
 1340TIP3   OH2 4025   4.254   1.299   1.754
 1340TIP3    H1 4026   4.239   1.214   1.713
 1340TIP3    H2 4027   4.282   1.278   1.843
 1341TIP3   OH2 4028   0.684   1.449   3.792
 1341TIP3    H1 4029   0.722   1.523   3.745
 1341TIP3    H2 4030   0.589   1.464   3.787
 1342TIP3   OH2 4031   5.375   3.495   2.886
 1342TIP3    H1 4032   5.344   3.539   2.807
 1342TIP3    H2 4033   5.343   3.549   2.958
 1343TIP3   OH2 4034   1.895   2.818   3.562
 1343TIP3    H1 4035   1.933   2.734   3.537
 1343TIP3    H2 4036   1.898   2.818   3.658
 1344TIP3   OH2 4037   0.020   5.502   4.817
 1344TIP3    H1 4038  -0.026   5.509   4.732
 1344TIP3    H2 4039   0.112   5.515   4.795
 1345TIP3   OH2 4040   1.519   0.709   3.349
 1345TIP3    H1 4041   1.447   0.731   3.290
 1345TIP3    H2 4042   1.571   0.790   3.355
 1346TIP3   OH2 4043   5.346   2.420   4.270
 1346TIP3    H1 4044   5.416   2.416   4.205
 1346TIP3    H2 4045   5.321   2.512   4.273
 1347TIP3   OH2 4046   1.777   2.198   0.710
 1347TIP3    H1 4047   1.748   2.264   0.773
 1347TIP3    H2 4048   1.841   2.242   0.656
 1348TIP3   OH2 4049   5.515   4.428   1.526
 1348TIP3    H1 4050   5.460   4.368   1.575
 1348TIP3    H2 4051   5.454   4.482   1.476
 1349TIP3   OH2 4052   3.349   3.493   4.461
 1349TIP3    H1 4053   3.308   3.433   4.522
 1349TIP3    H2 4054   3.292   3.492   4.384
 1350TIP3   OH2 4055   3.859   4.452   0.840
 1350TIP3    H1 4056   3.904   4.516   0.895
 1350TIP3    H2 4057   3.901   4.459   0.754
 1351TIP3   OH2 4058   2.336   5.909   0.848
 1351TIP3    H1 4059   2.421   5.928   0.807
 1351TIP3    H2 4060   2.280   5.982   0.822
 1352TIP3   OH2 4061   3.574   5.160   1.387
 1352TIP3    H1 4062   3.539   5.201   1.308
 1352TIP3    H2 4063   3.539   5.071   1.385
 1353TIP3   OH2 4064   4.286   4.358   2.443
 1353TIP3    H1 4065   4.378   4.359   2.417
 1353TIP3    H2 4066   4.239   4.386   2.365
 1354TIP3   OH2 4067   2.541   3.959   3.444
 1354TIP3    H1 4068   2.487   3.988   3.517
 1354TIP3    H2 4069   2.587   3.882   3.478
 1355TIP3   OH2 4070   4.818   0.185   1.013
 1355TIP3    H1 4071   4.856   0.224   0.934
 1355TIP3    H2 4072   4.724   0.198   1.002
 1356TIP3   OH2 4073   1.361   4.260   3.075
 1356TIP3    H1 4074   1.396   4.195   3.013
 1356TIP3    H2 4075   1.401   4.342   3.049
 1357TIP3   OH2 4076   3.882   1.994   2.508
 1357TIP3    H1 4077   3.931   1.931   2.455
 1357TIP3    H2 4078   3.848   2.057   2.445
 1358TIP3   OH2 4079   3.621   2.090   4.052
 1358TIP3    H1 4080   3.592   2.019   4.110
 1358TIP3    H2 4081   3.691   2.134   4.101
 1359TIP3   OH2 4082   3.786   1.758   2.688
 1359TIP3    H1 4083   3.761   1.845   2.655
 1359TIP3    H2 4084   3.797   1.705   2.609
 1360TIP3   OH2 4085   3.512   5.040   5.092
 1360TIP3    H1 4086   3.605   5.016   5.098
 1360TIP3    H2 4087   3.514   5.135   5.076
 1361TIP3   OH2 4088   5.389   0.341   0.613
 1361TIP3    H1 4089   5.398   0.416   0.554
 1361TIP3    H2 4090   5.477   0.304   0.620
 1362TIP3   OH2 4091   0.430   4.230   2.609
 1362TIP3    H1 4092   0.359   4.184   2.652
 1362TIP3    H2 4093   0.429   4.198   2.519
 1363TIP3   OH2 4094   5.575   5.216   0.297
 1363TIP3    H1 4095   5.664   5.245   0.275
 1363TIP3    H2 4096   5.571   5.126   0.263
 1364TIP3   OH2 4097   4.142   5.153   2.385
 1364TIP3    H1 4098   4.116   5.243   2.365
 1364TIP3    H2 4099   4.235   5.159   2.406
 1365TIP3   OH2 4100   3.415   4.723   3.315
 1365TIP3    H1 4101   3.327   4.718   3.352
 1365TIP3    H2 4102   3.413   4.663   3.241
 1366TIP3   OH2 4103   5.019   1.469   4.727
 1366TIP3    H1 4104   4.938   1.478   4.676
 1366TIP3    H2 4105   5.035   1.375   4.730
 1367TIP3   OH2 4106   1.160   3.442   4.709
 1367TIP3    H1 4107   1.157   3.510   4.777
 1367TIP3    H2 4108   1.140   3.489   4.628
 1368TIP3   OH2 4109   0.407   5.006   4.081
 1368TIP3    H1 4110   0.381   5.084   4.032
 1368TIP3    H2 4111   0.502   5.014   4.091
 1369TIP3   OH2 4112   4.044   0.011   1.168
 1369TIP3    H1 4113   4.112   0.067   1.131
 1369TIP3    H2 4114   3.988   0.071   1.217
 1370TIP3   OH2 4115   2.099   3.093   4.303
 1370TIP3    H1 4116   2.193   3.080   4.295
 1370TIP3    H2 4117   2.085   3.108   4.396
 1371TIP3   OH2 4118   5.975   4.550   5.028
 1371TIP3    H1 4119   5.980   4.548   4.932
 1371TIP3    H2 4120   6.038   4.483   5.056
 1372TIP3   OH2 4121   2.106   4.326   1.852
 1372TIP3    H1 4122   2.113   4.384   1.928
 1372TIP3    H2 4123   2.180   4.266   1.862
 1373TIP3   OH2 4124   0.268   5.807   1.621
 1373TIP3    H1 4125   0.335   5.873   1.604
 1373TIP3    H2 4126   0.205   5.816   1.549
 1374TIP3   OH2 4127   3.423   0.563   2.572
 1374TIP3    H1 4128   3.449   0.638   2.626
 1374TIP3    H2 4129   3.333   0.582   2.546
 1375TIP3   OH2 4130   2.115   2.443   3.788
 1375TIP3    H1 4131   2.074   2.440   3.702
 1375TIP3    H2 4132   2.208   2.432   3.771
 1376TIP3   OH2 4133   3.738   0.319   2.177
 1376TIP3    H1 4134   3.709   0.246   2.122
 1376TIP3    H2 4135   3.831   0.303   2.193
 1377TIP3   OH2 4136   2.962   4.110   1.461
 1377TIP3    H1 4137   2.918   4.104   1.376
 1377TIP3    H2 4138   2.916   4.179   1.508
 1378TIP3   OH2 4139   2.464   5.616   2.357
 1378TIP3    H1 4140   2.383   5.581   2.320
 1378TIP3    H2 4141   2.435   5.663   2.436
 1379TIP3   OH2 4142   2.008   4.863   4.153
 1379TIP3    H1 4143   2.027   4.896   4.240
 1379TIP3    H2 4144   1.912   4.861   4.149
 1380TIP3   OH2 4145   4.214   3.439   3.948
 1380TIP3    H1 4146   4.204   3.512   4.009
 1380TIP3    H2 4147   4.125   3.420   3.918
 1381TIP3   OH2 4148   5.339   3.318   4.659
 1381TIP3    H1 4149   5.347   3.313   4.755
 1381TIP3    H2 4150   5.380   3.236   4.628
 1382TIP3   OH2 4151   2.195   4.229   4.319
 1382TIP3    H1 4152   2.145   4.272   4.388
 1382TIP3    H2 4153   2.285   4.260   4.332
 1383TIP3   OH2 4154   0.072   1.219   4.960
 1383TIP3    H1 4155   0.008   1.171   5.011
 1383TIP3    H2 4156   0.154   1.170   4.971
 1384TIP3   OH2 4157   5.672   3.368   4.264
 1384TIP3    H1 4158   5.703   3.344   4.351
 1384TIP3    H2 4159   5.617   3.445   4.279
 1385TIP3   OH2 4160   0.292   1.966   3.930
 1385TIP3    H1 4161   0.315   2.039   3.872
 1385TIP3    H2 4162   0.363   1.903   3.919
 1386TIP3   OH2 4163   2.132   2.542   2.893
 1386TIP3    H1 4164   2.050   2.498   2.914
 1386TIP3    H2 4165   2.144   2.528   2.799
 1387TIP3   OH2 4166   2.790   3.217   4.447
 1387TIP3    H1 4167   2.863   3.174   4.492
 1387TIP3    H2 4168   2.715   3.159   4.460
 1388TIP3   OH2 4169   1.533   0.912   1.141
 1388TIP3    H1 4170   1.532   0.942   1.050
 1388TIP3    H2 4171   1.623   0.928   1.171
 1389TIP3   OH2 4172   0.618   5.090   0.997
 1389TIP3    H1 4173   0.643   5.019   0.938
 1389TIP3    H2 4174   0.533   5.120   0.964
 1390TIP3   OH2 4175   3.177   4.029   1.798
 1390TIP3    H1 4176   3.125   4.108   1.814
 1390TIP3    H2 4177   3.207   4.038   1.707
 1391TIP3   OH2 4178   3.928   2.961   2.146
 1391TIP3    H1 4179   3.959   2.909   2.220
 1391TIP3    H2 4180   3.933   3.052   2.177
 1392TIP3   OH2 4181   5.952   0.980   3.487
 1392TIP3    H1 4182   6.044   0.990   3.513
 1392TIP3    H2 4183   5.912   1.065   3.505
 1393TIP3   OH2 4184   5.910   1.976   0.341
 1393TIP3    H1 4185   5.965   2.004   0.414
 1393TIP3    H2 4186   5.829   1.945   0.382
 1394TIP3   OH2 4187   0.687   1.058   0.362
 1394TIP3    H1 4188   0.752   1.040   0.429
 1394TIP3    H2 4189   0.737   1.095   0.290
 1395TIP3   OH2 4190   4.787   2.235   1.883
 1395TIP3    H1 4191   4.788   2.270   1.972
 1395TIP3    H2 4192   4.838   2.299   1.832
 1396TIP3   OH2 4193   2.432   4.110   0.628
 1396TIP3    H1 4194   2.414   4.023   0.594
 1396TIP3    H2 4195   2.348   4.140   0.663
 1397TIP3   OH2 4196   3.410   3.922   0.490
 1397TIP3    H1 4197   3.502   3.911   0.464
 1397TIP3    H2 4198   3.360   3.900   0.412
 1398TIP3   OH2 4199   1.870   1.883   3.664
 1398TIP3    H1 4200   1.851   1.960   3.610
 1398TIP3    H2 4201   1.895   1.920   3.749
 1399TIP3   OH2 4202   0.411   0.100   3.235
 1399TIP3    H1 4203   0.373   0.180   3.200
 1399TIP3    H2 4204   0.368   0.030   3.185
 1400TIP3   OH2 4205   0.439   3.448   1.041
 1400TIP3    H1 4206   0.352   3.486   1.029
 1400TIP3    H2 4207   0.446   3.432   1.135
 1401TIP3   OH2 4208   0.495   2.624   0.580
 1401TIP3    H1 4209   0.575   2.621   0.529
 1401TIP3    H2 4210   0.442   2.692   0.539
 1402TIP3   OH2 4211   5.519   4.804   1.494
 1402TIP3    H1 4212   5.566   4.876   1.451
 1402TIP3    H2 4213   5.453   4.848   1.547
 1403TIP3   OH2 4214   3.071   5.362   2.121
 1403TIP3    H1 4215   3.099   5.410   2.200
 1403TIP3    H2 4216   2.983   5.329   2.143
 1404TIP3   OH2 4217   2.464   3.606   3.684
 1404TIP3    H1 4218   2.407   3.629   3.757
 1404TIP3    H2 4219   2.465   3.510   3.683
 1405TIP3   OH2 4220   3.252   5.077   3.593
 1405TIP3    H1 4221   3.258   4.989   3.557
 1405TIP3    H2 4222   3.318   5.128   3.546
 1406TIP3   OH2 4223   6.233   1.381   1.929
 1406TIP3    H1 4224   6.199   1.402   2.016
 1406TIP3    H2 4225   6.156   1.350   1.881
 1407TIP3   OH2 4226   1.327   0.394   0.379
 1407TIP3    H1 4227   1.283   0.377   0.296
 1407TIP3    H2 4228   1.412   0.349   0.371
 1408TIP3   OH2 4229   0.099   2.540   4.990
 1408TIP3    H1 4230   0.015   2.515   4.951
 1408TIP3    H2 4231   0.075   2.599   5.062
 1409TIP3   OH2 4232   0.434   5.661   2.244
 1409TIP3    H1 4233   0.423   5.755   2.228
 1409TIP3    H2 4234   0.493   5.633   2.174
 1410TIP3   OH2 4235   2.799   3.245   3.346
 1410TIP3    H1 4236   2.863   3.175   3.341
 1410TIP3    H2 4237   2.721   3.204   3.382
 1411TIP3   OH2 4238   4.489   4.811   4.748
 1411TIP3    H1 4239   4.411   4.796   4.694
 1411TIP3    H2 4240   4.455   4.823   4.836
 1412TIP3   OH2 4241   5.993   0.081   2.484
 1412TIP3    H1 4242   6.004   0.087   2.578
 1412TIP3    H2 4243   5.962   0.168   2.458
 1413TIP3   OH2 4244   5.244   0.183   4.418
 1413TIP3    H1 4245   5.233   0.276   4.436
 1413TIP3    H2 4246   5.167   0.142   4.458
 1414TIP3   OH2 4247   2.211   4.430   0.716
 1414TIP3    H1 4248   2.116   4.442   0.710
 1414TIP3    H2 4249   2.245   4.464   0.633
 1415TIP3   OH2 4250   0.028   3.736   3.097
 1415TIP3    H1 4251   0.116   3.719   3.064
 1415TIP3    H2 4252   0.031   3.708   3.188
 1416TIP3   OH2 4253   2.529   2.885   2.814
 1416TIP3    H1 4254   2.444   2.916   2.844
 1416TIP3    H2 4255   2.585   2.889   2.891
 1417TIP3   OH2 4256   4.329   4.756   0.959
 1417TIP3    H1 4257   4.322   4.848   0.935
 1417TIP3    H2 4258   4.334   4.755   1.054
 1418TIP3   OH2 4259   1.637   5.657   3.888
 1418TIP3    H1 4260   1.730   5.647   3.868
 1418TIP3    H2 4261   1.597   5.577   3.853
 1419TIP3   OH2 4262   4.059   4.814   1.223
 1419TIP3    H1 4263   3.969   4.823   1.253
 1419TIP3    H2 4264   4.085   4.903   1.199
 1420TIP3   OH2 4265   4.068   1.157   3.077
 1420TIP3    H1 4266   4.161   1.136   3.069
 1420TIP3    H2 4267   4.037   1.165   2.987
 1421TIP3   OH2 4268   5.790   0.361   0.346
 1421TIP3    H1 4269   5.821   0.352   0.436
 1421TIP3    H2 4270   5.723   0.293   0.337
 1422TIP3   OH2 4271   2.254   0.303   2.270
 1422TIP3    H1 4272   2.280   0.389   2.237
 1422TIP3    H2 4273   2.162   0.294   2.244
 1423TIP3   OH2 4274   4.673   2.622   0.786
 1423TIP3    H1 4275   4.671   2.714   0.757
 1423TIP3    H2 4276   4.691   2.627   0.880
 1424TIP3   OH2 4277   0.697   1.061   4.362
 1424TIP3    H1 4278   0.664   0.972   4.370
 1424TIP3    H2 4279   0.747   1.076   4.442
 1425TIP3   OH2 4280   1.729   1.618   2.537
 1425TIP3    H1 4281   1.732   1.533   2.493
 1425TIP3    H2 4282   1.700   1.679   2.470
 1426TIP3   OH2 4283   1.345   0.451   3.210
 1426TIP3    H1 4284   1.415   0.495   3.162
 1426TIP3    H2 4285   1.308   0.390   3.147
 1427TIP3   OH2 4286   4.889   2.621   2.197
 1427TIP3    H1 4287   4.923   2.617   2.108
 1427TIP3    H2 4288   4.950   2.678   2.244
 1428TIP3   OH2 4289   3.749   4.130   2.320
 1428TIP3    H1 4290   3.712   4.160   2.403
 1428TIP3    H2 4291   3.835   4.097   2.343
 1429TIP3   OH2 4292   1.019   2.319   4.124
 1429TIP3    H1 4293   0.935   2.350   4.092
 1429TIP3    H2 4294   0.999   2.282   4.210
 1430TIP3   OH2 4295   4.250   3.138   2.362
 1430TIP3    H1 4296   4.306   3.173   2.431
 1430TIP3    H2 4297   4.161   3.151   2.394
 1431TIP3   OH2 4298   5.217   5.512   4.016
 1431TIP3    H1 4299   5.177   5.437   4.059
 1431TIP3    H2 4300   5.166   5.525   3.937
 1432TIP3   OH2 4301   5.600   2.615   4.436
 1432TIP3    H1 4302   5.564   2.527   4.429
 1432TIP3    H2 4303   5.591   2.652   4.348
 1433TIP3   OH2 4304   2.758   0.031   2.809
 1433TIP3    H1 4305   2.689   0.072   2.757
 1433TIP3    H2 4306   2.753   0.074   2.895
 1434TIP3   OH2 4307   4.491   5.605   3.454
 1434TIP3    H1 4308   4.546   5.658   3.511
 1434TIP3    H2 4309   4.528   5.517   3.459
 1435TIP3   OH2 4310   0.314   3.571   1.549
 1435TIP3    H1 4311   0.311   3.489   1.501
 1435TIP3    H2 4312   0.406   3.595   1.551
 1436TIP3   OH2 4313   0.086   1.936   1.706
 1436TIP3    H1 4314   0.079   1.858   1.651
 1436TIP3    H2 4315   0.086   1.902   1.796
 1437TIP3   OH2 4316   2.004   5.354   1.201
 1437TIP3    H1 4317   1.970   5.393   1.120
 1437TIP3    H2 4318   2.023   5.429   1.257
 1438TIP3   OH2 4319   4.165   2.114   4.756
 1438TIP3    H1 4320   4.145   2.027   4.721
 1438TIP3    H2 4321   4.113   2.174   4.703
 1439TIP3   OH2 4322   0.565   5.204   3.451
 1439TIP3    H1 4323   0.480   5.217   3.409
 1439TIP3    H2 4324   0.605   5.132   3.401
 1440TIP3   OH2 4325   3.290   2.635   1.623
 1440TIP3    H1 4326   3.243   2.603   1.547
 1440TIP3    H2 4327   3.363   2.574   1.633
 1441TIP3   OH2 4328   3.197   3.753   1.741
 1441TIP3    H1 4329   3.179   3.843   1.766
 1441TIP3    H2 4330   3.282   3.757   1.696
 1442TIP3   OH2 4331   5.010   2.080   1.581
 1442TIP3    H1 4332   4.925   2.115   1.553
 1442TIP3    H2 4333   5.042   2.144   1.644
 1443TIP3   OH2 4334   4.157   3.127   2.837
 1443TIP3    H1 4335   4.097   3.052   2.825
 1443TIP3    H2 4336   4.132   3.188   2.768
 1444TIP3   OH2 4337   6.297   2.333   4.734
 1444TIP3    H1 4338   6.386   2.310   4.760
 1444TIP3    H2 4339   6.295   2.429   4.735
 1445TIP3   OH2 4340   4.208   5.356   1.028
 1445TIP3    H1 4341   4.285   5.301   1.039
 1445TIP3    H2 4342   4.172   5.365   1.117
 1446TIP3   OH2 4343   1.583   0.729   1.399
 1446TIP3    H1 4344   1.524   0.800   1.372
 1446TIP3    H2 4345   1.578   0.729   1.494
 1447TIP3   OH2 4346   6.056   4.229   4.121
 1447TIP3    H1 4347   6.017   4.296   4.177
 1447TIP3    H2 4348   6.117   4.182   4.178
 1448TIP3   OH2 4349   0.849   5.510   2.458
 1448TIP3    H1 4350   0.761   5.533   2.486
 1448TIP3    H2 4351   0.894   5.483   2.538
 1449TIP3   OH2 4352   1.388   3.613   0.455
 1449TIP3    H1 4353   1.454   3.658   0.403
 1449TIP3    H2 4354   1.352   3.547   0.396
 1450TIP3   OH2 4355   1.376   1.902   1.381
 1450TIP3    H1 4356   1.372   1.953   1.462
 1450TIP3    H2 4357   1.358   1.812   1.407
 1451TIP3   OH2 4358   5.884   1.859   1.956
 1451TIP3    H1 4359   5.867   1.805   1.879
 1451TIP3    H2 4360   5.814   1.924   1.955
 1452TIP3   OH2 4361   1.009   0.587   2.372
 1452TIP3    H1 4362   1.008   0.494   2.351
 1452TIP3    H2 4363   1.096   0.603   2.409
 1453TIP3   OH2 4364   5.511   1.988   4.019
 1453TIP3    H1 4365   5.455   1.968   4.094
 1453TIP3    H2 4366   5.457   1.970   3.943
 1454TIP3   OH2 4367   3.869   0.200   1.261
 1454TIP3    H1 4368   3.919   0.224   1.339
 1454TIP3    H2 4369   3.778   0.214   1.285
 1455TIP3   OH2 4370   5.609   1.818   0.246
 1455TIP3    H1 4371   5.532   1.818   0.189
 1455TIP3    H2 4372   5.683   1.830   0.186
 1456TIP3   OH2 4373   0.960   5.049   4.499
 1456TIP3    H1 4374   0.896   5.110   4.534
 1456TIP3    H2 4375   1.020   5.103   4.447
 1457TIP3   OH2 4376   0.363   5.185   1.388
 1457TIP3    H1 4377   0.384   5.094   1.406
 1457TIP3    H2 4378   0.282   5.201   1.437
 1458TIP3   OH2 4379   5.705   3.801   2.944
 1458TIP3    H1 4380   5.747   3.717   2.959
 1458TIP3    H2 4381   5.682   3.801   2.851
 1459TIP3   OH2 4382   4.110   4.166   4.752
 1459TIP3    H1 4383   4.203   4.143   4.745
 1459TIP3    H2 4384   4.108   4.260   4.735
 1460TIP3   OH2 4385   4.265   2.993   4.991
 1460TIP3    H1 4386   4.333   3.041   4.945
 1460TIP3    H2 4387   4.222   2.942   4.922
 1461TIP3   OH2 4388   5.422   1.480   0.163
 1461TIP3    H1 4389   5.371   1.441   0.092
 1461TIP3    H2 4390   5.424   1.412   0.231
 1462TIP3   OH2 4391   0.339   3.214   4.944
 1462TIP3    H1 4392   0.253   3.188   4.977
 1462TIP3    H2 4393   0.393   3.137   4.955
 1463TIP3   OH2 4394   2.730   2.402   3.755
 1463TIP3    H1 4395   2.664   2.468   3.774
 1463TIP3    H2 4396   2.742   2.407   3.660
 1464TIP3   OH2 4397   5.936   4.669   4.331
 1464TIP3    H1 4398   5.914   4.705   4.417
 1464TIP3    H2 4399   5.857   4.622   4.303
 1465TIP3   OH2 4400   5.164   3.722   0.174
 1465TIP3    H1 4401   5.111   3.700   0.098
 1465TIP3    H2 4402   5.234   3.657   0.174
 1466TIP3   OH2 4403   4.984   2.516   2.563
 1466TIP3    H1 4404   5.015   2.607   2.567
 1466TIP3    H2 4405   5.003   2.481   2.650
 1467TIP3   OH2 4406   4.166   1.721   2.063
 1467TIP3    H1 4407   4.251   1.702   2.023
 1467TIP3    H2 4408   4.180   1.709   2.157
 1468TIP3   OH2 4409   0.378   3.377   1.932
 1468TIP3    H1 4410   0.414   3.445   1.875
 1468TIP3    H2 4411   0.430   3.299   1.913
 1469TIP3   OH2 4412   3.108   2.006   3.842
 1469TIP3    H1 4413   3.147   1.999   3.755
 1469TIP3    H2 4414   3.150   1.937   3.893
 1470TIP3   OH2 4415   3.219   3.839   1.193
 1470TIP3    H1 4416   3.288   3.831   1.128
 1470TIP3    H2 4417   3.165   3.912   1.163
 1471TIP3   OH2 4418   2.420   5.463   4.832
 1471TIP3    H1 4419   2.422   5.533   4.897
 1471TIP3    H2 4420   2.425   5.382   4.884
 1472TIP3   OH2 4421   5.549   3.814   1.473
 1472TIP3    H1 4422   5.583   3.770   1.395
 1472TIP3    H2 4423   5.471   3.860   1.442
 1473TIP3   OH2 4424   5.485   3.419   3.910
 1473TIP3    H1 4425   5.528   3.349   3.959
 1473TIP3    H2 4426   5.470   3.381   3.823
 1474TIP3   OH2 4427   3.464   2.419   5.220
 1474TIP3    H1 4428   3.451   2.372   5.138
 1474TIP3    H2 4429   3.503   2.355   5.279
 1475TIP3   OH2 4430   1.299   1.657   3.487
 1475TIP3    H1 4431   1.239   1.689   3.555
 1475TIP3    H2 4432   1.386   1.679   3.519
 1476TIP3   OH2 4433   3.819   0.521   1.461
 1476TIP3    H1 4434   3.768   0.548   1.385
 1476TIP3    H2 4435   3.879   0.594   1.477
 1477TIP3   OH2 4436   2.024   2.379   1.797
 1477TIP3    H1 4437   2.088   2.329   1.847
 1477TIP3    H2 4438   1.947   2.382   1.854
 1478TIP3   OH2 4439   1.909   2.828   2.800
 1478TIP3    H1 4440   1.943   2.807   2.713
 1478TIP3    H2 4441   1.834   2.885   2.784
 1479TIP3   OH2 4442   0.109   5.889   2.165
 1479TIP3    H1 4443   0.081   5.880   2.073
 1479TIP3    H2 4444   0.041   5.846   2.215
 1480TIP3   OH2 4445   4.951   1.983   0.945
 1480TIP3    H1 4446   5.024   1.984   0.883
 1480TIP3    H2 4447   4.901   1.905   0.922
 1481TIP3   OH2 4448   5.961   5.900   5.180
 1481TIP3    H1 4449   5.957   5.829   5.116
 1481TIP3    H2 4450   6.010   5.863   5.254
 1482TIP3   OH2 4451   1.361   2.846   1.734
 1482TIP3    H1 4452   1.389   2.756   1.724
 1482TIP3    H2 4453   1.280   2.852   1.683
 1483TIP3   OH2 4454   4.531   2.102   2.758
 1483TIP3    H1 4455   4.537   2.026   2.700
 1483TIP3    H2 4456   4.458   2.153   2.724
 1484TIP3   OH2 4457   3.892   0.248   1.539
 1484TIP3    H1 4458   3.853   0.228   1.624
 1484TIP3    H2 4459   3.851   0.330   1.512
 1485TIP3   OH2 4460   0.384   3.293   2.775
 1485TIP3    H1 4461   0.316   3.264   2.716
 1485TIP3    H2 4462   0.458   3.315   2.718
 1486TIP3   OH2 4463   4.304   4.360   1.113
 1486TIP3    H1 4464   4.209   4.371   1.107
 1486TIP3    H2 4465   4.335   4.371   1.023
 1487TIP3   OH2 4466   3.928   5.171   0.171
 1487TIP3    H1 4467   4.011   5.191   0.127
 1487TIP3    H2 4468   3.948   5.095   0.225
 1488TIP3   OH2 4469   5.950   1.040   0.040
 1488TIP3    H1 4470   6.041   1.070   0.048
 1488TIP3    H2 4471   5.906   1.077   0.116
 1489TIP3   OH2 4472   2.208   1.880   0.093
 1489TIP3    H1 4473   2.175   1.970   0.100
 1489TIP3    H2 4474   2.217   1.851   0.184
 1490TIP3   OH2 4475   1.767   5.944   3.350
 1490TIP3    H1 4476   1.683   5.985   3.371
 1490TIP3    H2 4477   1.798   5.907   3.433
 1491TIP3   OH2 4478   6.289   1.702   4.343
 1491TIP3    H1 4479   6.356   1.710   4.275
 1491TIP3    H2 4480   6.210   1.679   4.295
 1492TIP3   OH2 4481   1.881   4.325   2.882
 1492TIP3    H1 4482   1.823   4.298   2.810
 1492TIP3    H2 4483   1.827   4.317   2.961
 1493TIP3   OH2 4484   0.856   0.830  -0.014
 1493TIP3    H1 4485   0.798   0.893  -0.057
 1493TIP3    H2 4486   0.891   0.877   0.061
 1494TIP3   OH2 4487   0.835   3.691   4.591
 1494TIP3    H1 4488   0.796   3.694   4.678
 1494TIP3    H2 4489   0.930   3.699   4.607
 1495TIP3   OH2 4490   5.353   5.132   2.638
 1495TIP3    H1 4491   5.333   5.044   2.669
 1495TIP3    H2 4492   5.447   5.131   2.622
 1496TIP3   OH2 4493   3.471   2.733   2.461
 1496TIP3    H1 4494   3.552   2.696   2.497
 1496TIP3    H2 4495   3.453   2.809   2.516
 1497TIP3   OH2 4496   1.249   0.118   1.862
 1497TIP3    H1 4497   1.200   0.037   1.874
 1497TIP3    H2 4498   1.230   0.169   1.941
 1498TIP3   OH2 4499   1.127   4.808   3.334
 1498TIP3    H1 4500   1.183   4.869   3.286
 1498TIP3    H2 4501   1.176   4.726   3.334
 1499TIP3   OH2 4502   4.728   0.463   0.319
 1499TIP3    H1 4503   4.805   0.520   0.326
 1499TIP3    H2 4504   4.688   0.466   0.406
 1500TIP3   OH2 4505   5.984   0.025   0.382
 1500TIP3    H1 4506   5.889   0.029   0.384
 1500TIP3    H2 4507   6.004  -0.039   0.314
 1501TIP3   OH2 4508   2.067   3.173   0.549
 1501TIP3    H1 4509   2.084   3.172   0.643
 1501TIP3    H2 4510   2.144   3.131   0.510
 1502TIP3   OH2 4511   0.303   5.192   3.378
 1502TIP3    H1 4512   0.271   5.107   3.349
 1502TIP3    H2 4513   0.310   5.244   3.298
 1503TIP3   OH2 4514   2.649   3.792   2.503
 1503TIP3    H1 4515   2.652   3.738   2.424
 1503TIP3    H2 4516   2.697   3.741   2.569
 1504TIP3   OH2 4517   0.437   5.230   4.556
 1504TIP3    H1 4518   0.351   5.188   4.554
 1504TIP3    H2 4519   0.433   5.294   4.485
 1505TIP3   OH2 4520   4.439   2.680   0.396
 1505TIP3    H1 4521   4.510   2.627   0.432
 1505TIP3    H2 4522   4.446   2.764   0.442
 1506TIP3   OH2 4523   2.425   4.983   2.583
 1506TIP3    H1 4524   2.401   5.007   2.494
 1506TIP3    H2 4525   2.447   4.891   2.579
 1507TIP3   OH2 4526   4.159   3.082   0.595
 1507TIP3    H1 4527   4.198   3.101   0.509
 1507TIP3    H2 4528   4.166   2.987   0.604
 1508TIP3   OH2 4529   4.278   3.082   4.546
 1508TIP3    H1 4530   4.204   3.037   4.584
 1508TIP3    H2 4531   4.240   3.156   4.498
 1509TIP3   OH2 4532   5.931   1.478   0.324
 1509TIP3    H1 4533   5.981   1.555   0.349
 1509TIP3    H2 4534   5.925   1.482   0.229
 1510TIP3   OH2 4535   4.412   3.278   3.415
 1510TIP3    H1 4536   4.464   3.352   3.446
 1510TIP3    H2 4537   4.336   3.276   3.473
 1511TIP3   OH2 4538   6.315   5.952   0.248
 1511TIP3    H1 4539   6.284   5.991   0.167
 1511TIP3    H2 4540   6.350   6.025   0.298
 1512TIP3   OH2 4541   5.039   4.012   4.188
 1512TIP3    H1 4542   5.105   4.039   4.123
 1512TIP3    H2 4543   5.090   3.970   4.257
 1513TIP3   OH2 4544   3.361   0.737   0.045
 1513TIP3    H1 4545   3.287   0.776   0.091
 1513TIP3    H2 4546   3.378   0.797  -0.027
 1514TIP3   OH2 4547   2.701   2.708   1.596
 1514TIP3    H1 4548   2.738   2.673   1.515
 1514TIP3    H2 4549   2.760   2.780   1.619
 1515TIP3   OH2 4550   3.656   1.873   0.837
 1515TIP3    H1 4551   3.716   1.881   0.762
 1515TIP3    H2 4552   3.659   1.780   0.859
 1516TIP3   OH2 4553   4.105   2.130   2.379
 1516TIP3    H1 4554   4.084   2.090   2.463
 1516TIP3    H2 4555   4.074   2.220   2.386
 1517TIP3   OH2 4556   4.132   0.345   0.915
 1517TIP3    H1 4557   4.082   0.330   0.995
 1517TIP3    H2 4558   4.074   0.317   0.844
 1518TIP3   OH2 4559   3.103   0.730   2.039
 1518TIP3    H1 4560   3.144   0.758   2.121
 1518TIP3    H2 4561   3.037   0.666   2.066
 1519TIP3   OH2 4562   1.069   3.057   2.716
 1519TIP3    H1 4563   1.036   2.969   2.735
 1519TIP3    H2 4564   0.992   3.106   2.690
 1520TIP3   OH2 4565   2.412   0.753   0.559
 1520TIP3    H1 4566   2.360   0.815   0.610
 1520TIP3    H2 4567   2.367   0.747   0.475
 1521TIP3   OH2 4568   0.356   2.202   1.816
 1521TIP3    H1 4569   0.318   2.143   1.882
 1521TIP3    H2 4570   0.403   2.267   1.866
 1522TIP3   OH2 4571   0.214   2.446   2.319
 1522TIP3    H1 4572   0.126   2.411   2.332
 1522TIP3    H2 4573   0.271   2.370   2.329
 1523TIP3   OH2 4574   5.162   2.326   3.322
 1523TIP3    H1 4575   5.241   2.301   3.274
 1523TIP3    H2 4576   5.195   2.363   3.404
 1524TIP3   OH2 4577   0.796   3.511   1.236
 1524TIP3    H1 4578   0.863   3.519   1.304
 1524TIP3    H2 4579   0.834   3.552   1.159
 1525TIP3   OH2 4580   1.496   1.703   3.887
 1525TIP3    H1 4581   1.547   1.662   3.957
 1525TIP3    H2 4582   1.407   1.705   3.921
 1526TIP3   OH2 4583   2.319   0.189   1.777
 1526TIP3    H1 4584   2.367   0.168   1.697
 1526TIP3    H2 4585   2.328   0.284   1.786
 1527TIP3   OH2 4586   1.782   2.389   0.893
 1527TIP3    H1 4587   1.838   2.400   0.969
 1527TIP3    H2 4588   1.812   2.455   0.830
 1528TIP3   OH2 4589   2.111   3.003   2.567
 1528TIP3    H1 4590   2.117   3.065   2.640
 1528TIP3    H2 4591   2.020   2.974   2.568
 1529TIP3   OH2 4592   3.338   2.667   1.943
 1529TIP3    H1 4593   3.291   2.629   2.016
 1529TIP3    H2 4594   3.418   2.615   1.936
 1530TIP3   OH2 4595   2.760   2.249   1.528
 1530TIP3    H1 4596   2.770   2.166   1.482
 1530TIP3    H2 4597   2.846   2.290   1.524
 1531TIP3   OH2 4598   3.387   0.199   3.528
 1531TIP3    H1 4599   3.301   0.158   3.520
 1531TIP3    H2 4600   3.410   0.188   3.620
 1532TIP3   OH2 4601   1.288   5.189   3.721
 1532TIP3    H1 4602   1.249   5.106   3.694
 1532TIP3    H2 4603   1.381   5.180   3.700
 1533TIP3   OH2 4604   4.268   3.586   3.390
 1533TIP3    H1 4605   4.305   3.539   3.316
 1533TIP3    H2 4606   4.266   3.677   3.363
 1534TIP3   OH2 4607   3.828   5.434   3.823
 1534TIP3    H1 4608   3.893   5.393   3.880
 1534TIP3    H2 4609   3.751   5.443   3.877
 1535TIP3   OH2 4610   3.244   0.785   0.571
 1535TIP3    H1 4611   3.299   0.746   0.503
 1535TIP3    H2 4612   3.213   0.867   0.532
 1536TIP3   OH2 4613   5.348   0.075   1.831
 1536TIP3    H1 4614   5.323  -0.015   1.811
 1536TIP3    H2 4615   5.442   0.071   1.849
 1537TIP3   OH2 4616   0.964   1.637   4.016
 1537TIP3    H1 4617   1.005   1.568   3.965
 1537TIP3    H2 4618   0.933   1.593   4.095
 1538TIP3   OH2 4619   1.379   1.885   0.352
 1538TIP3    H1 4620   1.351   1.813   0.296
 1538TIP3    H2 4621   1.414   1.843   0.430
 1539TIP3   OH2 4622   0.879   3.559   3.096
 1539TIP3    H1 4623   0.885   3.527   3.186
 1539TIP3    H2 4624   0.791   3.597   3.091
 1540TIP3   OH2 4625   5.365   2.160   3.204
 1540TIP3    H1 4626   5.386   2.077   3.247
 1540TIP3    H2 4627   5.447   2.186   3.162
 1541TIP3   OH2 4628   5.827   3.852   3.194
 1541TIP3    H1 4629   5.865   3.940   3.203
 1541TIP3    H2 4630   5.790   3.851   3.106
 1542TIP3   OH2 4631   3.486   3.711   4.591
 1542TIP3    H1 4632   3.456   3.632   4.547
 1542TIP3    H2 4633   3.579   3.718   4.568
 1543TIP3   OH2 4634   0.716   2.023   0.754
 1543TIP3    H1 4635   0.790   2.047   0.811
 1543TIP3    H2 4636   0.733   1.931   0.731
 1544TIP3   OH2 4637   1.790   3.012   2.122
 1544TIP3    H1 4638   1.882   2.990   2.134
 1544TIP3    H2 4639   1.791   3.085   2.060
 1545TIP3   OH2 4640   0.215   4.777   4.796
 1545TIP3    H1 4641   0.224   4.840   4.724
 1545TIP3    H2 4642   0.242   4.825   4.874
 1546TIP3   OH2 4643   2.162   5.517   1.373
 1546TIP3    H1 4644   2.203   5.603   1.372
 1546TIP3    H2 4645   2.235   5.455   1.374
 1547TIP3   OH2 4646   5.401   1.518   1.204
 1547TIP3    H1 4647   5.385   1.455   1.134
 1547TIP3    H2 4648   5.494   1.510   1.223
 1548TIP3   OH2 4649   5.476   4.258   0.986
 1548TIP3    H1 4650   5.451   4.320   1.054
 1548TIP3    H2 4651   5.419   4.279   0.912
 1549TIP3   OH2 4652   4.603   3.736   1.185
 1549TIP3    H1 4653   4.566   3.721   1.098
 1549TIP3    H2 4654   4.600   3.830   1.198
 1550TIP3   OH2 4655   3.441   0.377   0.082
 1550TIP3    H1 4656   3.465   0.433   0.009
 1550TIP3    H2 4657   3.520   0.374   0.137
 1551TIP3   OH2 4658   4.714   3.097   1.894
 1551TIP3    H1 4659   4.746   3.046   1.968
 1551TIP3    H2 4660   4.640   3.047   1.859
 1552TIP3   OH2 4661   3.771   3.407   0.885
 1552TIP3    H1 4662   3.811   3.448   0.809
 1552TIP3    H2 4663   3.841   3.355   0.924
 1553TIP3   OH2 4664   4.081   3.411   0.646
 1553TIP3    H1 4665   4.062   3.356   0.570
 1553TIP3    H2 4666   4.004   3.467   0.655
 1554TIP3   OH2 4667   3.660   3.152   0.816
 1554TIP3    H1 4668   3.567   3.174   0.829
 1554TIP3    H2 4669   3.707   3.218   0.867
 1555TIP3   OH2 4670   3.523   4.859   2.136
 1555TIP3    H1 4671   3.452   4.872   2.199
 1555TIP3    H2 4672   3.603   4.879   2.185
 1556TIP3   OH2 4673   3.763   3.993   0.723
 1556TIP3    H1 4674   3.720   3.992   0.808
 1556TIP3    H2 4675   3.763   4.085   0.696
 1557TIP3   OH2 4676   1.039   1.352   4.082
 1557TIP3    H1 4677   1.022   1.285   4.148
 1557TIP3    H2 4678   1.134   1.359   4.080
 1558TIP3   OH2 4679   3.756   0.254   4.614
 1558TIP3    H1 4680   3.739   0.193   4.542
 1558TIP3    H2 4681   3.671   0.291   4.635
 1559TIP3   OH2 4682   1.730   5.343   0.234
 1559TIP3    H1 4683   1.701   5.269   0.182
 1559TIP3    H2 4684   1.712   5.420   0.180
 1560TIP3   OH2 4685   3.441   2.604   3.557
 1560TIP3    H1 4686   3.381   2.641   3.622
 1560TIP3    H2 4687   3.527   2.611   3.599
 1561TIP3   OH2 4688   3.043   4.739   4.084
 1561TIP3    H1 4689   3.055   4.784   4.167
 1561TIP3    H2 4690   3.119   4.681   4.077
 1562TIP3   OH2 4691   5.135   5.267   0.924
 1562TIP3    H1 4692   5.184   5.205   0.870
 1562TIP3    H2 4693   5.133   5.227   1.011
 1563TIP3   OH2 4694   6.105   5.479   1.168
 1563TIP3    H1 4695   6.078   5.568   1.191
 1563TIP3    H2 4696   6.199   5.477   1.185
 1564TIP3   OH2 4697   4.896   5.513   3.575
 1564TIP3    H1 4698   4.862   5.555   3.495
 1564TIP3    H2 4699   4.819   5.472   3.615
 1565TIP3   OH2 4700   0.254   2.737   1.793
 1565TIP3    H1 4701   0.175   2.778   1.826
 1565TIP3    H2 4702   0.223   2.662   1.741
 1566TIP3   OH2 4703   4.982   1.745   1.283
 1566TIP3    H1 4704   5.033   1.817   1.245
 1566TIP3    H2 4705   4.891   1.769   1.267
 1567TIP3   OH2 4706   3.992   3.143   2.474
 1567TIP3    H1 4707   3.925   3.077   2.494
 1567TIP3    H2 4708   4.025   3.170   2.560
 1568TIP3   OH2 4709   4.342   4.126   3.237
 1568TIP3    H1 4710   4.405   4.092   3.173
 1568TIP3    H2 4711   4.310   4.207   3.198
 1569TIP3   OH2 4712   2.385   4.751   3.567
 1569TIP3    H1 4713   2.393   4.767   3.661
 1569TIP3    H2 4714   2.452   4.807   3.527
 1570TIP3   OH2 4715   0.473   3.977   3.350
 1570TIP3    H1 4716   0.399   3.972   3.410
 1570TIP3    H2 4717   0.470   4.066   3.315
 1571TIP3   OH2 4718   4.856   5.472   3.017
 1571TIP3    H1 4719   4.814   5.432   3.094
 1571TIP3    H2 4720   4.786   5.477   2.952
 1572TIP3   OH2 4721   5.873   5.919   4.256
 1572TIP3    H1 4722   5.885   5.923   4.161
 1572TIP3    H2 4723   5.834   6.004   4.278
 1573TIP3   OH2 4724   0.423   0.642   1.749
 1573TIP3    H1 4725   0.475   0.717   1.779
 1573TIP3    H2 4726   0.349   0.681   1.704
 1574TIP3   OH2 4727   4.873   2.379   1.462
 1574TIP3    H1 4728   4.809   2.313   1.488
 1574TIP3    H2 4729   4.831   2.427   1.390
 1575TIP3   OH2 4730   2.708   0.898   3.977
 1575TIP3    H1 4731   2.687   0.805   3.986
 1575TIP3    H2 4732   2.803   0.900   3.966
 1576TIP3   OH2 4733   5.105   5.258   4.764
 1576TIP3    H1 4734   5.128   5.231   4.853
 1576TIP3    H2 4735   5.122   5.352   4.763
 1577TIP3   OH2 4736   4.024   1.991   0.949
 1577TIP3    H1 4737   3.967   2.066   0.930
 1577TIP3    H2 4738   4.075   2.018   1.025
 1578TIP3   OH2 4739   2.305   3.502   1.607
 1578TIP3    H1 4740   2.247   3.437   1.647
 1578TIP3    H2 4741   2.332   3.558   1.680
 1579TIP3   OH2 4742   2.601   5.114   0.769
 1579TIP3    H1 4743   2.535   5.153   0.711
 1579TIP3    H2 4744   2.681   5.164   0.752
 1580TIP3   OH2 4745   5.188   1.027   0.093
 1580TIP3    H1 4746   5.267   1.024   0.148
 1580TIP3    H2 4747   5.122   1.070   0.149
 1581TIP3   OH2 4748   0.369   4.882   2.990
 1581TIP3    H1 4749   0.430   4.847   2.924
 1581TIP3    H2 4750   0.334   4.961   2.950
 1582TIP3   OH2 4751   3.566   5.592   1.643
 1582TIP3    H1 4752   3.609   5.654   1.701
 1582TIP3    H2 4753   3.510   5.539   1.700
 1583TIP3   OH2 4754   3.061   4.659   4.393
 1583TIP3    H1 4755   3.101   4.746   4.397
 1583TIP3    H2 4756   2.967   4.676   4.402
 1584TIP3   OH2 4757   1.197   2.927   3.562
 1584TIP3    H1 4758   1.162   2.955   3.477
 1584TIP3    H2 4759   1.182   2.832   3.564
 1585TIP3   OH2 4760   4.127   1.737   2.597
 1585TIP3    H1 4761   4.183   1.814   2.611
 1585TIP3    H2 4762   4.185   1.662   2.614
 1586TIP3   OH2 4763   3.617   3.111   3.251
 1586TIP3    H1 4764   3.523   3.102   3.235
 1586TIP3    H2 4765   3.656   3.036   3.207
 1587TIP3   OH2 4766   0.230   1.576   3.362
 1587TIP3    H1 4767   0.269   1.549   3.279
 1587TIP3    H2 4768   0.177   1.502   3.390
 1588TIP3   OH2 4769   4.106   4.755   5.114
 1588TIP3    H1 4770   4.049   4.683   5.088
 1588TIP3    H2 4771   4.190   4.714   5.134
 1589TIP3   OH2 4772   2.426   2.717   3.694
 1589TIP3    H1 4773   2.454   2.666   3.617
 1589TIP3    H2 4774   2.332   2.728   3.683
 1590TIP3   OH2 4775   5.936   0.351   0.074
 1590TIP3    H1 4776   6.012   0.405   0.052
 1590TIP3    H2 4777   5.913   0.378   0.163
 1591TIP3   OH2 4778   5.681   0.176   4.123
 1591TIP3    H1 4779   5.606   0.235   4.127
 1591TIP3    H2 4780   5.644   0.093   4.092
 1592TIP3   OH2 4781   2.083   3.018   4.846
 1592TIP3    H1 4782   2.129   2.935   4.836
 1592TIP3    H2 4783   1.998   2.994   4.884
 1593TIP3   OH2 4784   6.075   5.674   2.645
 1593TIP3    H1 4785   6.119   5.589   2.645
 1593TIP3    H2 4786   6.027   5.676   2.728
 1594TIP3   OH2 4787   0.376   4.230   2.077
 1594TIP3    H1 4788   0.410   4.319   2.086
 1594TIP3    H2 4789   0.397   4.187   2.159
 1595TIP3   OH2 4790   5.141   1.024   3.291
 1595TIP3    H1 4791   5.087   0.948   3.314
 1595TIP3    H2 4792   5.226   0.988   3.267
 1596TIP3   OH2 4793   3.338   4.242   3.411
 1596TIP3    H1 4794   3.396   4.234   3.335
 1596TIP3    H2 4795   3.260   4.192   3.387
 1597TIP3   OH2 4796   2.552   3.641   2.212
 1597TIP3    H1 4797   2.556   3.576   2.283
 1597TIP3    H2 4798   2.613   3.607   2.146
 1598TIP3   OH2 4799   2.976   5.198   3.423
 1598TIP3    H1 4800   2.965   5.120   3.368
 1598TIP3    H2 4801   2.887   5.234   3.431
 1599TIP3   OH2 4802   4.712   5.029   1.679
 1599TIP3    H1 4803   4.762   5.002   1.756
 1599TIP3    H2 4804   4.637   4.970   1.678
 1600TIP3   OH2 4805   1.050   3.979   0.970
 1600TIP3    H1 4806   1.114   3.908   0.964
 1600TIP3    H2 4807   0.971   3.944   0.928
 1601TIP3   OH2 4808   1.925   4.533   4.285
 1601TIP3    H1 4809   1.857   4.599   4.298
 1601TIP3    H2 4810   1.927   4.519   4.191
 1602TIP3   OH2 4811   2.064   3.249   2.024
 1602TIP3    H1 4812   2.112   3.275   2.103
 1602TIP3    H2 4813   2.070   3.153   2.023
 1603TIP3   OH2 4814   5.925   1.548   0.826
 1603TIP3    H1 4815   5.926   1.644   0.823
 1603TIP3    H2 4816   5.839   1.525   0.859
 1604TIP3   OH2 4817   0.430   5.192   4.836
 1604TIP3    H1 4818   0.444   5.100   4.857
 1604TIP3    H2 4819   0.438   5.197   4.741
 1605TIP3   OH2 4820   5.797   4.322   1.478
 1605TIP3    H1 4821   5.831   4.258   1.415
 1605TIP3    H2 4822   5.722   4.361   1.434
 1606TIP3   OH2 4823   2.533   0.160   0.815
 1606TIP3    H1 4824   2.590   0.211   0.874
 1606TIP3    H2 4825   2.521   0.076   0.861
 1607TIP3   OH2 4826   6.414   3.409   0.473
 1607TIP3    H1 4827   6.381   3.331   0.517
 1607TIP3    H2 4828   6.339   3.444   0.425
 1608TIP3   OH2 4829   3.429   0.005   3.332
 1608TIP3    H1 4830   3.492   0.031   3.265
 1608TIP3    H2 4831   3.420   0.082   3.388
 1609TIP3   OH2 4832   2.522   4.524   0.573
 1609TIP3    H1 4833   2.615   4.539   0.553
 1609TIP3    H2 4834   2.501   4.442   0.528
 1610TIP3   OH2 4835   0.438   5.892   2.426
 1610TIP3    H1 4836   0.386   5.940   2.362
 1610TIP3    H2 4837   0.494   5.959   2.466
 1611TIP3   OH2 4838   0.650   0.832   2.110
 1611TIP3    H1 4839   0.583   0.858   2.174
 1611TIP3    H2 4840   0.733   0.848   2.155
 1612TIP3   OH2 4841   1.363   5.622   0.605
 1612TIP3    H1 4842   1.432   5.565   0.640
 1612TIP3    H2 4843   1.349   5.591   0.516
 1613TIP3   OH2 4844   1.629  -0.024   1.052
 1613TIP3    H1 4845   1.711  -0.073   1.052
 1613TIP3    H2 4846   1.626   0.016   0.965
 1614TIP3   OH2 4847   3.695   2.796   0.747
 1614TIP3    H1 4848   3.653   2.785   0.832
 1614TIP3    H2 4849   3.748   2.876   0.756
 1615TIP3   OH2 4850   3.851   4.766   4.180
 1615TIP3    H1 4851   3.859   4.671   4.182
 1615TIP3    H2 4852   3.760   4.783   4.158
 1616TIP3   OH2 4853   3.986   0.038   1.855
 1616TIP3    H1 4854   3.977  -0.024   1.783
 1616TIP3    H2 4855   3.927   0.005   1.923
 1617TIP3   OH2 4856   3.336   2.185   1.041
 1617TIP3    H1 4857   3.271   2.199   1.110
 1617TIP3    H2 4858   3.413   2.151   1.087
 1618TIP3   OH2 4859   2.873   2.412   2.427
 1618TIP3    H1 4860   2.781   2.439   2.416
 1618TIP3    H2 4861   2.923   2.492   2.411
 1619TIP3   OH2 4862   0.767   0.401   1.351
 1619TIP3    H1 4863   0.857   0.430   1.363
 1619TIP3    H2 4864   0.752   0.410   1.257
 1620TIP3   OH2 4865   0.489   0.347   4.434
 1620TIP3    H1 4866   0.486   0.315   4.524
 1620TIP3    H2 4867   0.579   0.328   4.405
 1621TIP3   OH2 4868   5.038   5.946   3.126
 1621TIP3    H1 4869   5.130   5.952   3.100
 1621TIP3    H2 4870   4.992   5.922   3.046
 1622TIP3   OH2 4871   4.350   4.484   2.015
 1622TIP3    H1 4872   4.393   4.538   1.949
 1622TIP3    H2 4873   4.331   4.402   1.971
 1623TIP3   OH2 4874   5.120   0.479   3.801
 1623TIP3    H1 4875   5.156   0.400   3.841
 1623TIP3    H2 4876   5.144   0.550   3.862
 1624TIP3   OH2 4877   5.917   4.517   2.159
 1624TIP3    H1 4878   5.988   4.532   2.095
 1624TIP3    H2 4879   5.931   4.428   2.189
 1625TIP3   OH2 4880   2.582   4.691   0.266
 1625TIP3    H1 4881   2.596   4.786   0.261
 1625TIP3    H2 4882   2.614   4.657   0.183
 1626TIP3   OH2 4883   2.529   4.574   2.835
 1626TIP3    H1 4884   2.569   4.624   2.906
 1626TIP3    H2 4885   2.554   4.483   2.853
 1627TIP3   OH2 4886   0.957   1.280   3.441
 1627TIP3    H1 4887   1.043   1.238   3.444
 1627TIP3    H2 4888   0.895   1.207   3.428
 1628TIP3   OH2 4889   2.245   2.925   1.383
 1628TIP3    H1 4890   2.233   2.858   1.316
 1628TIP3    H2 4891   2.277   3.001   1.335
 1629TIP3   OH2 4892   1.470   0.431   2.481
 1629TIP3    H1 4893   1.492   0.338   2.476
 1629TIP3    H2 4894   1.552   0.474   2.503
 1630TIP3   OH2 4895   5.084   0.938   3.840
 1630TIP3    H1 4896   5.093   0.852   3.798
 1630TIP3    H2 4897   4.997   0.936   3.880
 1631TIP3   OH2 4898   1.832   4.244   2.030
 1631TIP3    H1 4899   1.888   4.167   2.018
 1631TIP3    H2 4900   1.865   4.308   1.967
 1632TIP3   OH2 4901   1.828   3.750   3.143
 1632TIP3    H1 4902   1.868   3.665   3.162
 1632TIP3    H2 4903   1.901   3.812   3.146
 1633TIP3   OH2 4904   0.862   3.824   5.091
 1633TIP3    H1 4905   0.899   3.889   5.150
 1633TIP3    H2 4906   0.771   3.851   5.079
 1634TIP3   OH2 4907   0.609   5.142   1.865
 1634TIP3    H1 4908   0.568   5.133   1.779
 1634TIP3    H2 4909   0.672   5.213   1.855
 1635TIP3   OH2 4910   0.604   4.570   3.116
 1635TIP3    H1 4911   0.511   4.591   3.105
 1635TIP3    H2 4912   0.650   4.641   3.072
 1636TIP3   OH2 4913   1.630   4.575   3.266
 1636TIP3    H1 4914   1.634   4.489   3.308
 1636TIP3    H2 4915   1.709   4.621   3.295
 1637TIP3   OH2 4916   5.785   3.547   3.600
 1637TIP3    H1 4917   5.701   3.587   3.577
 1637TIP3    H2 4918   5.806   3.490   3.526
 1638TIP3   OH2 4919   0.593   3.388   4.467
 1638TIP3    H1 4920   0.651   3.355   4.398
 1638TIP3    H2 4921   0.647   3.449   4.517
 1639TIP3   OH2 4922   4.623   1.218   0.996
 1639TIP3    H1 4923   4.681   1.289   0.969
 1639TIP3    H2 4924   4.657   1.141   0.951
 1640TIP3   OH2 4925   3.553   1.365   3.580
 1640TIP3    H1 4926   3.635   1.411   3.566
 1640TIP3    H2 4927   3.571   1.274   3.554
 1641TIP3   OH2 4928   0.981   4.601   0.578
 1641TIP3    H1 4929   0.920   4.542   0.533
 1641TIP3    H2 4930   1.061   4.597   0.526
 1642TIP3   OH2 4931   6.036   1.421   3.426
 1642TIP3    H1 4932   6.105   1.456   3.482
 1642TIP3    H2 4933   6.048   1.327   3.429
 1643TIP3   OH2 4934   5.706   0.395   1.609
 1643TIP3    H1 4935   5.737   0.432   1.526
 1643TIP3    H2 4936   5.613   0.416   1.612
 1644TIP3   OH2 4937   0.056   1.319   4.681
 1644TIP3    H1 4938  -0.027   1.358   4.707
 1644TIP3    H2 4939   0.107   1.315   4.762
 1645TIP3   OH2 4940   1.428   5.169   2.697
 1645TIP3    H1 4941   1.409   5.080   2.724
 1645TIP3    H2 4942   1.448   5.163   2.604
 1646TIP3   OH2 4943   4.937   3.531   0.308
 1646TIP3    H1 4944   4.901   3.468   0.245
 1646TIP3    H2 4945   5.028   3.542   0.280
 1647TIP3   OH2 4946   0.642   2.713   3.882
 1647TIP3    H1 4947   0.684   2.719   3.797
 1647TIP3    H2 4948   0.712   2.728   3.945
 1648TIP3   OH2 4949   4.204   4.837   4.108
 1648TIP3    H1 4950   4.197   4.782   4.186
 1648TIP3    H2 4951   4.286   4.885   4.120
 1649TIP3   OH2 4952   3.046   4.012   2.392
 1649TIP3    H1 4953   3.031   4.003   2.486
 1649TIP3    H2 4954   2.998   4.091   2.367
 1650TIP3   OH2 4955   0.514   1.271   0.532
 1650TIP3    H1 4956   0.447   1.273   0.463
 1650TIP3    H2 4957   0.558   1.187   0.520
 1651TIP3   OH2 4958   3.417   1.365   2.726
 1651TIP3    H1 4959   3.413   1.355   2.630
 1651TIP3    H2 4960   3.473   1.442   2.739
 1652TIP3   OH2 4961   1.499   3.826   1.760
 1652TIP3    H1 4962   1.525   3.868   1.679
 1652TIP3    H2 4963   1.404   3.819   1.755
 1653TIP3   OH2 4964   3.919   2.246   1.850
 1653TIP3    H1 4965   3.991   2.189   1.822
 1653TIP3    H2 4966   3.915   2.315   1.783
 1654TIP3   OH2 4967   2.123   1.611   0.538
 1654TIP3    H1 4968   2.055   1.667   0.499
 1654TIP3    H2 4969   2.196   1.615   0.475
 1655TIP3   OH2 4970   5.912   1.761   3.514
 1655TIP3    H1 4971   5.910   1.709   3.434
 1655TIP3    H2 4972   6.005   1.780   3.529
 1656TIP3   OH2 4973   5.188   4.206   3.042
 1656TIP3    H1 4974   5.164   4.120   3.009
 1656TIP3    H2 4975   5.131   4.267   2.996
 1657TIP3   OH2 4976   2.694   4.505   4.718
 1657TIP3    H1 4977   2.754   4.454   4.664
 1657TIP3    H2 4978   2.752   4.559   4.773
 1658TIP3   OH2 4979   4.708   2.074   2.456
 1658TIP3    H1 4980   4.789   2.081   2.506
 1658TIP3    H2 4981   4.654   2.013   2.506
 1659TIP3   OH2 4982   0.062   0.267   0.933
 1659TIP3    H1 4983   0.093   0.182   0.902
 1659TIP3    H2 4984   0.107   0.330   0.876
 1660TIP3   OH2 4985   4.930   5.032   2.881
 1660TIP3    H1 4986   4.943   4.968   2.811
 1660TIP3    H2 4987   4.835   5.035   2.894
 1661TIP3   OH2 4988   3.855   1.905   0.603
 1661TIP3    H1 4989   3.815   1.830   0.559
 1661TIP3    H2 4990   3.936   1.871   0.640
 1662TIP3   OH2 4991   6.194   2.035   2.050
 1662TIP3    H1 4992   6.106   2.027   2.087
 1662TIP3    H2 4993   6.216   1.947   2.019
 1663TIP3   OH2 4994   3.224   3.909   2.775
 1663TIP3    H1 4995   3.282   3.984   2.768
 1663TIP3    H2 4996   3.246   3.870   2.860
 1664TIP3   OH2 4997   2.853   4.989   4.142
 1664TIP3    H1 4998   2.833   5.045   4.068
 1664TIP3    H2 4999   2.914   4.924   4.108
 1665TIP3   OH2 5000   6.207   5.334   4.987
 1665TIP3    H1 5001   6.253   5.383   4.919
 1665TIP3    H2 5002   6.274   5.276   5.024
 1666TIP3   OH2 5003   5.877   4.826   1.923
 1666TIP3    H1 5004   5.839   4.812   2.009
 1666TIP3    H2 5005   5.955   4.879   1.939
 1667TIP3   OH2 5006   6.149   4.273   1.768
 1667TIP3    H1 5007   6.173   4.215   1.696
 1667TIP3    H2 5008   6.054   4.267   1.773
 1668TIP3   OH2 5009   3.593   1.897   4.254
 1668TIP3    H1 5010   3.549   1.813   4.240
 1668TIP3    H2 5011   3.679   1.874   4.289
 1669TIP3   OH2 5012   5.460   1.899   3.287
 1669TIP3    H1 5013   5.531   1.838   3.266
 1669TIP3    H2 5014   5.451   1.894   3.382
 1670TIP3   OH2 5015   3.739   2.134   0.617
 1670TIP3    H1 5016   3.781   2.164   0.536
 1670TIP3    H2 5017   3.779   2.049   0.634
 1671TIP3   OH2 5018   2.111   0.613   0.339
 1671TIP3    H1 5019   2.058   0.673   0.392
 1671TIP3    H2 5020   2.049   0.548   0.307
 1672TIP3   OH2 5021   3.755   2.973   4.540
 1672TIP3    H1 5022   3.793   2.981   4.453
 1672TIP3    H2 5023   3.820   2.925   4.591
 1673TIP3   OH2 5024   2.321   3.804   1.615
 1673TIP3    H1 5025   2.412   3.833   1.614
 1673TIP3    H2 5026   2.324   3.711   1.592
 1674TIP3   OH2 5027   1.076   3.837   0.330
 1674TIP3    H1 5028   1.067   3.742   0.321
 1674TIP3    H2 5029   1.170   3.850   0.344
 1675TIP3   OH2 5030   4.764   2.468   4.955
 1675TIP3    H1 5031   4.813   2.402   4.908
 1675TIP3    H2 5032   4.673   2.439   4.950
 1676TIP3   OH2 5033   3.185   3.590   0.548
 1676TIP3    H1 5034   3.165   3.516   0.490
 1676TIP3    H2 5035   3.267   3.566   0.591
 1677TIP3   OH2 5036   5.170   0.772   0.746
 1677TIP3    H1 5037   5.140   0.821   0.823
 1677TIP3    H2 5038   5.094   0.721   0.719
 1678TIP3   OH2 5039   1.051   4.342   3.518
 1678TIP3    H1 5040   0.968   4.313   3.480
 1678TIP3    H2 5041   1.107   4.362   3.442
 1679TIP3   OH2 5042   3.456   4.114   0.703
 1679TIP3    H1 5043   3.541   4.154   0.687
 1679TIP3    H2 5044   3.446   4.049   0.634
 1680TIP3   OH2 5045   5.001   4.854   3.529
 1680TIP3    H1 5046   4.913   4.820   3.514
 1680TIP3    H2 5047   4.998   4.889   3.618
 1681TIP3   OH2 5048   5.619   2.211   3.741
 1681TIP3    H1 5049   5.701   2.208   3.691
 1681TIP3    H2 5050   5.553   2.180   3.680
 1682TIP3   OH2 5051   1.365   2.770   2.468
 1682TIP3    H1 5052   1.285   2.768   2.521
 1682TIP3    H2 5053   1.404   2.683   2.481
 1683TIP3   OH2 5054   0.512   2.041   0.567
 1683TIP3    H1 5055   0.490   1.948   0.573
 1683TIP3    H2 5056   0.583   2.054   0.629
 1684TIP3   OH2 5057   5.968   3.276   3.622
 1684TIP3    H1 5058   5.994   3.227   3.700
 1684TIP3    H2 5059   6.041   3.264   3.561
 1685TIP3   OH2 5060   4.771   3.682   5.108
 1685TIP3    H1 5061   4.686   3.665   5.148
 1685TIP3    H2 5062   4.798   3.766   5.144
 1686TIP3   OH2 5063   5.289   4.178   0.467
 1686TIP3    H1 5064   5.284   4.124   0.547
 1686TIP3    H2 5065   5.368   4.231   0.479
 1687TIP3   OH2 5066   2.702   1.205   1.465
 1687TIP3    H1 5067   2.742   1.119   1.452
 1687TIP3    H2 5068   2.730   1.256   1.390
 1688TIP3   OH2 5069   1.481   0.620   2.124
 1688TIP3    H1 5070   1.522   0.706   2.131
 1688TIP3    H2 5071   1.388   0.637   2.135
 1689TIP3   OH2 5072   0.052   5.427   1.176
 1689TIP3    H1 5073   0.066   5.456   1.266
 1689TIP3    H2 5074   0.134   5.446   1.132
 1690TIP3   OH2 5075   2.183   4.338   3.514
 1690TIP3    H1 5076   2.262   4.311   3.562
 1690TIP3    H2 5077   2.142   4.403   3.572
 1691TIP3   OH2 5078   4.176   5.660   1.372
 1691TIP3    H1 5079   4.133   5.658   1.287
 1691TIP3    H2 5080   4.121   5.606   1.429
 1692TIP3   OH2 5081   0.797   2.563   2.895
 1692TIP3    H1 5082   0.802   2.631   2.828
 1692TIP3    H2 5083   0.802   2.481   2.847
 1693TIP3   OH2 5084   4.818   4.124   3.608
 1693TIP3    H1 5085   4.911   4.103   3.601
 1693TIP3    H2 5086   4.806   4.201   3.552
 1694TIP3   OH2 5087   2.043   0.131   2.756
 1694TIP3    H1 5088   2.074   0.071   2.688
 1694TIP3    H2 5089   1.959   0.095   2.785
 1695TIP3   OH2 5090   5.055   4.478   1.601
 1695TIP3    H1 5091   5.082   4.555   1.552
 1695TIP3    H2 5092   4.985   4.440   1.548
 1696TIP3   OH2 5093   4.360   1.102   4.281
 1696TIP3    H1 5094   4.288   1.153   4.244
 1696TIP3    H2 5095   4.319   1.052   4.353
 1697TIP3   OH2 5096   0.213   5.572   2.960
 1697TIP3    H1 5097   0.147   5.542   3.022
 1697TIP3    H2 5098   0.268   5.632   3.010
 1698TIP3   OH2 5099   0.770   2.016   3.144
 1698TIP3    H1 5100   0.839   2.082   3.140
 1698TIP3    H2 5101   0.709   2.041   3.075
 1699TIP3   OH2 5102   0.403   1.081   0.348
 1699TIP3    H1 5103   0.361   0.996   0.335
 1699TIP3    H2 5104   0.496   1.063   0.341
 1700TIP3   OH2 5105   4.880   3.276   1.145
 1700TIP3    H1 5106   4.850   3.358   1.184
 1700TIP3    H2 5107   4.818   3.211   1.175
 1701TIP3   OH2 5108   0.928   0.297   3.502
 1701TIP3    H1 5109   0.923   0.213   3.456
 1701TIP3    H2 5110   0.936   0.273   3.594
 1702TIP3   OH2 5111   1.769   1.083   0.485
 1702TIP3    H1 5112   1.773   1.048   0.396
 1702TIP3    H2 5113   1.860   1.080   0.516
 1703TIP3   OH2 5114   0.110   4.639   0.707
 1703TIP3    H1 5115   0.026   4.593   0.700
 1703TIP3    H2 5116   0.172   4.571   0.737
 1704TIP3   OH2 5117   2.526   4.121   0.073
 1704TIP3    H1 5118   2.613   4.160   0.068
 1704TIP3    H2 5119   2.476   4.182   0.128
 1705TIP3   OH2 5120   5.540   0.187   2.799
 1705TIP3    H1 5121   5.601   0.175   2.872
 1705TIP3    H2 5122   5.582   0.252   2.743
 1706TIP3   OH2 5123   4.665   2.141   2.992
 1706TIP3    H1 5124   4.736   2.198   2.960
 1706TIP3    H2 5125   4.645   2.084   2.918
 1707TIP3   OH2 5126   2.357   0.942   0.783
 1707TIP3    H1 5127   2.345   1.034   0.809
 1707TIP3    H2 5128   2.376   0.896   0.865
 1708TIP3   OH2 5129   3.130   2.243   2.242
 1708TIP3    H1 5130   3.040   2.220   2.220
 1708TIP3    H2 5131   3.156   2.305   2.174
 1709TIP3   OH2 5132   1.706   3.140   0.752
 1709TIP3    H1 5133   1.635   3.120   0.814
 1709TIP3    H2 5134   1.731   3.054   0.717
 1710TIP3   OH2 5135   4.695   5.275   0.145
 1710TIP3    H1 5136   4.679   5.362   0.111
 1710TIP3    H2 5137   4.781   5.250   0.110
 1711TIP3   OH2 5138   0.945   2.160   4.345
 1711TIP3    H1 5139   0.891   2.091   4.307
 1711TIP3    H2 5140   0.889   2.238   4.344
 1712TIP3   OH2 5141   5.307   5.875   5.092
 1712TIP3    H1 5142   5.342   5.888   5.003
 1712TIP3    H2 5143   5.269   5.788   5.090
 1713TIP3   OH2 5144   5.154   4.793   2.130
 1713TIP3    H1 5145   5.141   4.725   2.196
 1713TIP3    H2 5146   5.111   4.758   2.051
 1714TIP3   OH2 5147   1.270   5.548   0.347
 1714TIP3    H1 5148   1.224   5.468   0.374
 1714TIP3    H2 5149   1.202   5.613   0.337
 1715TIP3   OH2 5150   1.689   4.202   1.011
 1715TIP3    H1 5151   1.780   4.223   0.993
 1715TIP3    H2 5152   1.672   4.239   1.097
 1716TIP3   OH2 5153   1.473   5.518   4.952
 1716TIP3    H1 5154   1.407   5.568   5.000
 1716TIP3    H2 5155   1.471   5.553   4.863
 1717TIP3   OH2 5156   5.202   1.938   4.113
 1717TIP3    H1 5157   5.126   1.894   4.151
 1717TIP3    H2 5158   5.177   2.030   4.108
 1718TIP3   OH2 5159   4.449   3.767   2.735
 1718TIP3    H1 5160   4.389   3.738   2.667
 1718TIP3    H2 5161   4.439   3.862   2.736
 1719TIP3   OH2 5162   3.822   3.078   4.258
 1719TIP3    H1 5163   3.872   3.004   4.225
 1719TIP3    H2 5164   3.866   3.155   4.221
 1720TIP3   OH2 5165   4.297   3.524   0.369
 1720TIP3    H1 5166   4.344   3.444   0.344
 1720TIP3    H2 5167   4.205   3.505   0.350
 1721TIP3   OH2 5168   1.139   0.857   3.782
 1721TIP3    H1 5169   1.067   0.795   3.783
 1721TIP3    H2 5170   1.195   0.828   3.710
 1722TIP3   OH2 5171   1.385   5.266   0.343
 1722TIP3    H1 5172   1.388   5.361   0.328
 1722TIP3    H2 5173   1.473   5.244   0.372
 1723TIP3   OH2 5174   3.498   0.864   1.573
 1723TIP3    H1 5175   3.531   0.817   1.496
 1723TIP3    H2 5176   3.526   0.955   1.559
 1724TIP3   OH2 5177   3.578   3.422   1.094
 1724TIP3    H1 5178   3.627   3.401   1.014
 1724TIP3    H2 5179   3.500   3.468   1.062
 1725TIP3   OH2 5180   5.059   1.580   1.702
 1725TIP3    H1 5181   5.045   1.674   1.716
 1725TIP3    H2 5182   5.106   1.574   1.619
 1726TIP3   OH2 5183   4.330   5.247   4.492
 1726TIP3    H1 5184   4.257   5.307   4.477
 1726TIP3    H2 5185   4.364   5.229   4.404
 1727TIP3   OH2 5186   2.676   4.642   1.843
 1727TIP3    H1 5187   2.724   4.637   1.760
 1727TIP3    H2 5188   2.584   4.652   1.818
 1728TIP3   OH2 5189   5.372   2.723   0.446
 1728TIP3    H1 5190   5.407   2.665   0.514
 1728TIP3    H2 5191   5.277   2.718   0.457
 1729TIP3   OH2 5192   2.810   1.232   1.738
 1729TIP3    H1 5193   2.767   1.236   1.653
 1729TIP3    H2 5194   2.798   1.142   1.768
 1730TIP3   OH2 5195   1.893   4.560   0.341
 1730TIP3    H1 5196   1.936   4.636   0.301
 1730TIP3    H2 5197   1.918   4.487   0.285
 1731TIP3   OH2 5198   5.462   3.274   1.209
 1731TIP3    H1 5199   5.536   3.313   1.163
 1731TIP3    H2 5200   5.436   3.199   1.154
 1732TIP3   OH2 5201   4.985   2.210   0.159
 1732TIP3    H1 5202   4.920   2.259   0.208
 1732TIP3    H2 5203   5.065   2.261   0.167
 1733TIP3   OH2 5204   3.308   0.830   5.193
 1733TIP3    H1 5205   3.386   0.826   5.249
 1733TIP3    H2 5206   3.343   0.845   5.105
 1734TIP3   OH2 5207   3.811   3.464   0.597
 1734TIP3    H1 5208   3.749   3.508   0.539
 1734TIP3    H2 5209   3.813   3.373   0.566
 1735TIP3   OH2 5210   5.863   4.533   3.904
 1735TIP3    H1 5211   5.932   4.569   3.959
 1735TIP3    H2 5212   5.901   4.528   3.817
 1736TIP3   OH2 5213   3.489   2.775   0.089
 1736TIP3    H1 5214   3.506   2.760  -0.004
 1736TIP3    H2 5215   3.524   2.862   0.106
 1737TIP3   OH2 5216   5.604   5.284   0.579
 1737TIP3    H1 5217   5.606   5.367   0.531
 1737TIP3    H2 5218   5.535   5.233   0.537
 1738TIP3   OH2 5219   2.833   0.537   1.753
 1738TIP3    H1 5220   2.745   0.566   1.775
 1738TIP3    H2 5221   2.825   0.442   1.742
 1739TIP3   OH2 5222   4.203   1.609   3.323
 1739TIP3    H1 5223   4.127   1.647   3.279
 1739TIP3    H2 5224   4.166   1.547   3.386
 1740TIP3   OH2 5225   5.636   4.156   3.393
 1740TIP3    H1 5226   5.686   4.215   3.337
 1740TIP3    H2 5227   5.639   4.071   3.348
 1741TIP3   OH2 5228   2.354   1.407   3.359
 1741TIP3    H1 5229   2.380   1.462   3.432
 1741TIP3    H2 5230   2.408   1.328   3.367
 1742TIP3   OH2 5231   5.564   2.899   2.447
 1742TIP3    H1 5232   5.512   2.851   2.383
 1742TIP3    H2 5233   5.508   2.903   2.525
 1743TIP3   OH2 5234   1.522   4.348   0.423
 1743TIP3    H1 5235   1.580   4.277   0.394
 1743TIP3    H2 5236   1.497   4.392   0.342
 1744TIP3   OH2 5237   0.555   0.903   1.790
 1744TIP3    H1 5238   0.510   0.958   1.727
 1744TIP3    H2 5239   0.562   0.957   1.869
 1745TIP3   OH2 5240   2.755   4.620   3.551
 1745TIP3    H1 5241   2.740   4.709   3.582
 1745TIP3    H2 5242   2.796   4.575   3.625
 1746TIP3   OH2 5243   5.912   1.646   4.570
 1746TIP3    H1 5244   5.972   1.575   4.593
 1746TIP3    H2 5245   5.838   1.601   4.528
 1747TIP3   OH2 5246   0.452   3.603   2.085
 1747TIP3    H1 5247   0.546   3.586   2.073
 1747TIP3    H2 5248   0.411   3.518   2.068
 1748TIP3   OH2 5249   1.371   3.507   2.406
 1748TIP3    H1 5250   1.425   3.456   2.467
 1748TIP3    H2 5251   1.332   3.441   2.348
 1749TIP3   OH2 5252   3.929   3.018   1.889
 1749TIP3    H1 5253   3.906   3.051   1.976
 1749TIP3    H2 5254   3.946   2.924   1.903
 1750TIP3   OH2 5255   5.654   5.493   3.035
 1750TIP3    H1 5256   5.715   5.555   3.076
 1750TIP3    H2 5257   5.571   5.541   3.030
 1751TIP3   OH2 5258   1.454   0.369   1.063
 1751TIP3    H1 5259   1.505   0.335   1.136
 1751TIP3    H2 5260   1.483   0.460   1.054
 1752TIP3   OH2 5261   0.636   5.522   3.174
 1752TIP3    H1 5262   0.694   5.547   3.102
 1752TIP3    H2 5263   0.619   5.429   3.160
 1753TIP3   OH2 5264   0.428   0.562   3.325
 1753TIP3    H1 5265   0.452   0.480   3.369
 1753TIP3    H2 5266   0.431   0.628   3.395
 1754TIP3   OH2 5267   1.015   0.710   2.855
 1754TIP3    H1 5268   0.937   0.723   2.909
 1754TIP3    H2 5269   1.047   0.798   2.837
 1755TIP3   OH2 5270   1.684   4.843   1.609
 1755TIP3    H1 5271   1.691   4.879   1.520
 1755TIP3    H2 5272   1.696   4.919   1.666
 1756TIP3   OH2 5273   0.611   4.653   4.224
 1756TIP3    H1 5274   0.625   4.747   4.216
 1756TIP3    H2 5275   0.566   4.629   4.144
 1757TIP3   OH2 5276   5.749   2.606   1.751
 1757TIP3    H1 5277   5.744   2.682   1.810
 1757TIP3    H2 5278   5.756   2.644   1.664
 1758TIP3   OH2 5279   3.595   4.258   4.343
 1758TIP3    H1 5280   3.581   4.269   4.437
 1758TIP3    H2 5281   3.519   4.299   4.303
 1759TIP3   OH2 5282   1.651   5.127   1.643
 1759TIP3    H1 5283   1.645   5.099   1.552
 1759TIP3    H2 5284   1.569   5.175   1.658
 1760TIP3   OH2 5285   0.199   4.389   0.835
 1760TIP3    H1 5286   0.154   4.340   0.766
 1760TIP3    H2 5287   0.183   4.337   0.914
 1761TIP3   OH2 5288   0.216   4.042   2.673
 1761TIP3    H1 5289   0.197   4.039   2.580
 1761TIP3    H2 5290   0.131   4.036   2.716
 1762TIP3   OH2 5291   3.010   5.546   0.924
 1762TIP3    H1 5292   3.048   5.583   0.845
 1762TIP3    H2 5293   2.917   5.533   0.902
 1763TIP3   OH2 5294   5.812   2.888   2.285
 1763TIP3    H1 5295   5.823   2.808   2.235
 1763TIP3    H2 5296   5.737   2.871   2.341
 1764TIP3   OH2 5297   4.432   3.682   1.776
 1764TIP3    H1 5298   4.338   3.692   1.786
 1764TIP3    H2 5299   4.453   3.728   1.694
 1765TIP3   OH2 5300   1.755   3.209   4.487
 1765TIP3    H1 5301   1.766   3.280   4.424
 1765TIP3    H2 5302   1.683   3.238   4.544
 1766TIP3   OH2 5303   4.195   4.874   2.763
 1766TIP3    H1 5304   4.231   4.884   2.851
 1766TIP3    H2 5305   4.137   4.798   2.769
 1767TIP3   OH2 5306   1.705   0.281   5.150
 1767TIP3    H1 5307   1.662   0.203   5.116
 1767TIP3    H2 5308   1.643   0.320   5.211
 1768TIP3   OH2 5309   3.956   2.737   1.739
 1768TIP3    H1 5310   3.974   2.703   1.827
 1768TIP3    H2 5311   4.012   2.685   1.682
 1769TIP3   OH2 5312   3.617   5.273   3.721
 1769TIP3    H1 5313   3.653   5.294   3.635
 1769TIP3    H2 5314   3.677   5.209   3.758
 1770TIP3   OH2 5315   2.032   0.023   1.391
 1770TIP3    H1 5316   1.998   0.033   1.480
 1770TIP3    H2 5317   1.973  -0.039   1.350
 1771TIP3   OH2 5318   5.588   2.616   4.148
 1771TIP3    H1 5319   5.510   2.588   4.101
 1771TIP3    H2 5320   5.613   2.698   4.107
 1772TIP3   OH2 5321   5.388   2.884   0.199
 1772TIP3    H1 5322   5.353   2.838   0.123
 1772TIP3    H2 5323   5.388   2.818   0.269
 1773TIP3   OH2 5324   1.205   4.426   4.554
 1773TIP3    H1 5325   1.127   4.472   4.522
 1773TIP3    H2 5326   1.271   4.495   4.561
 1774TIP3   OH2 5327   3.921   5.626   2.424
 1774TIP3    H1 5328   3.838   5.638   2.471
 1774TIP3    H2 5329   3.980   5.691   2.462
 1775TIP3   OH2 5330   3.099   3.137   2.191
 1775TIP3    H1 5331   3.081   3.151   2.284
 1775TIP3    H2 5332   3.185   3.093   2.190
 1776TIP3   OH2 5333   1.939   5.437   0.349
 1776TIP3    H1 5334   1.861   5.413   0.300
 1776TIP3    H2 5335   1.962   5.358   0.399
 1777TIP3   OH2 5336   0.861   2.112   0.990
 1777TIP3    H1 5337   0.858   2.175   1.062
 1777TIP3    H2 5338   0.813   2.035   1.022
 1778TIP3   OH2 5339   5.773   0.818   4.709
 1778TIP3    H1 5340   5.809   0.894   4.664
 1778TIP3    H2 5341   5.754   0.755   4.640
 1779TIP3   OH2 5342   0.620   1.089   1.994
 1779TIP3    H1 5343   0.565   1.167   1.996
 1779TIP3    H2 5344   0.604   1.046   2.078
 1780TIP3   OH2 5345   0.530   0.697   1.019
 1780TIP3    H1 5346   0.503   0.613   1.057
 1780TIP3    H2 5347   0.585   0.673   0.945
 1781TIP3   OH2 5348   4.665   0.509   3.637
 1781TIP3    H1 5349   4.723   0.453   3.586
 1781TIP3    H2 5350   4.690   0.598   3.612
 1782TIP3   OH2 5351   0.417   0.569   0.754
 1782TIP3    H1 5352   0.463   0.487   0.737
 1782TIP3    H2 5353   0.341   0.545   0.805
 1783TIP3   OH2 5354   4.413   2.487   4.129
 1783TIP3    H1 5355   4.447   2.576   4.139
 1783TIP3    H2 5356   4.490   2.431   4.132
 1784TIP3   OH2 5357   2.437   0.081   0.271
 1784TIP3    H1 5358   2.497   0.021   0.227
 1784TIP3    H2 5359   2.453   0.067   0.364
 1785TIP3   OH2 5360   1.761   4.216   3.596
 1785TIP3    H1 5361   1.678   4.254   3.627
 1785TIP3    H2 5362   1.823   4.288   3.598
 1786TIP3   OH2 5363   0.956   5.413   3.297
 1786TIP3    H1 5364   0.924   5.439   3.210
 1786TIP3    H2 5365   0.893   5.452   3.358
 1787TIP3   OH2 5366   5.961   0.557   2.267
 1787TIP3    H1 5367   6.027   0.604   2.217
 1787TIP3    H2 5368   5.881   0.563   2.213
 1788TIP3   OH2 5369   0.025   2.098   4.901
 1788TIP3    H1 5370   0.008   2.063   4.988
 1788TIP3    H2 5371   0.012   2.023   4.842
 1789TIP3   OH2 5372   4.559   3.689   4.194
 1789TIP3    H1 5373   4.632   3.746   4.218
 1789TIP3    H2 5374   4.513   3.674   4.277
 1790TIP3   OH2 5375   4.013   5.972   1.216
 1790TIP3    H1 5376   3.989   5.883   1.193
 1790TIP3    H2 5377   3.951   5.996   1.285
 1791TIP3   OH2 5378   0.088   4.902   0.264
 1791TIP3    H1 5379   0.138   4.912   0.345
 1791TIP3    H2 5380   0.002   4.873   0.293
 1792TIP3   OH2 5381   5.309   5.699   3.282
 1792TIP3    H1 5382   5.327   5.629   3.344
 1792TIP3    H2 5383   5.221   5.679   3.248
 1793TIP3   OH2 5384   5.665   0.097   0.906
 1793TIP3    H1 5385   5.676   0.124   0.998
 1793TIP3    H2 5386   5.570   0.092   0.895
 1794TIP3   OH2 5387   1.763   1.310   0.622
 1794TIP3    H1 5388   1.700   1.358   0.567
 1794TIP3    H2 5389   1.769   1.224   0.582
 1795TIP3   OH2 5390   3.410   3.145   1.458
 1795TIP3    H1 5391   3.366   3.082   1.515
 1795TIP3    H2 5392   3.502   3.144   1.487
 1796TIP3   OH2 5393   0.637   4.399   2.569
 1796TIP3    H1 5394   0.561   4.359   2.612
 1796TIP3    H2 5395   0.674   4.457   2.635
 1797TIP3   OH2 5396   2.594   0.627   4.338
 1797TIP3    H1 5397   2.574   0.664   4.424
 1797TIP3    H2 5398   2.544   0.680   4.276
 1798TIP3   OH2 5399   0.345   5.351   1.732
 1798TIP3    H1 5400   0.417   5.302   1.693
 1798TIP3    H2 5401   0.386   5.431   1.765
 1799TIP3   OH2 5402   4.549   4.007   1.200
 1799TIP3    H1 5403   4.507   4.008   1.114
 1799TIP3    H2 5404   4.554   4.099   1.225
 1800TIP3   OH2 5405   3.888   0.567   3.093
 1800TIP3    H1 5406   3.917   0.586   3.183
 1800TIP3    H2 5407   3.931   0.634   3.040
 1801TIP3   OH2 5408   5.524   0.550   4.231
 1801TIP3    H1 5409   5.602   0.523   4.182
 1801TIP3    H2 5410   5.519   0.645   4.217
 1802TIP3   OH2 5411   4.207   0.725   1.732
 1802TIP3    H1 5412   4.282   0.686   1.687
 1802TIP3    H2 5413   4.213   0.694   1.822
 1803TIP3   OH2 5414   3.902   2.370   3.953
 1803TIP3    H1 5415   3.939   2.447   3.910
 1803TIP3    H2 5416   3.915   2.299   3.890
 1804TIP3   OH2 5417   4.755   5.438   0.581
 1804TIP3    H1 5418   4.685   5.424   0.645
 1804TIP3    H2 5419   4.807   5.509   0.618
 1805TIP3   OH2 5420   4.850   5.021   3.314
 1805TIP3    H1 5421   4.826   4.930   3.294
 1805TIP3    H2 5422   4.945   5.021   3.314
 1806TIP3   OH2 5423   0.434   3.220   3.704
 1806TIP3    H1 5424   0.358   3.168   3.729
 1806TIP3    H2 5425   0.398   3.296   3.659
 1807TIP3   OH2 5426   1.372   2.121   2.538
 1807TIP3    H1 5427   1.392   2.134   2.631
 1807TIP3    H2 5428   1.354   2.210   2.505
 1808TIP3   OH2 5429   1.043   2.177   2.510
 1808TIP3    H1 5430   1.014   2.152   2.422
 1808TIP3    H2 5431   1.117   2.235   2.496
 1809TIP3   OH2 5432   4.823   0.335   2.746
 1809TIP3    H1 5433   4.851   0.247   2.721
 1809TIP3    H2 5434   4.830   0.337   2.842
 1810TIP3   OH2 5435   1.813   0.525   0.451
 1810TIP3    H1 5436   1.887   0.479   0.489
 1810TIP3    H2 5437   1.776   0.462   0.388
 1811TIP3   OH2 5438   5.365   0.053   3.050
 1811TIP3    H1 5439   5.377   0.045   2.955
 1811TIP3    H2 5440   5.276   0.022   3.066
 1812TIP3   OH2 5441   4.390   4.590   3.346
 1812TIP3    H1 5442   4.408   4.641   3.267
 1812TIP3    H2 5443   4.297   4.603   3.363
 1813TIP3   OH2 5444   4.227   3.835   0.097
 1813TIP3    H1 5445   4.208   3.816   0.189
 1813TIP3    H2 5446   4.239   3.749   0.057
 1814TIP3   OH2 5447   1.415   4.359   4.346
 1814TIP3    H1 5448   1.447   4.342   4.435
 1814TIP3    H2 5449   1.322   4.339   4.349
 1815TIP3   OH2 5450   0.727   4.548   2.788
 1815TIP3    H1 5451   0.798   4.513   2.843
 1815TIP3    H2 5452   0.736   4.643   2.794
 1816TIP3   OH2 5453   4.220   3.594   0.807
 1816TIP3    H1 5454   4.158   3.536   0.763
 1816TIP3    H2 5455   4.260   3.645   0.736
 1817TIP3   OH2 5456   4.770   3.758   3.320
 1817TIP3    H1 5457   4.737   3.802   3.398
 1817TIP3    H2 5458   4.798   3.672   3.351
 1818TIP3   OH2 5459   1.710   3.942   0.917
 1818TIP3    H1 5460   1.724   4.012   0.980
 1818TIP3    H2 5461   1.668   3.872   0.968
 1819TIP3   OH2 5462   0.509   5.940   4.355
 1819TIP3    H1 5463   0.485   6.021   4.310
 1819TIP3    H2 5464   0.530   5.967   4.444
 1820TIP3   OH2 5465   5.999   5.088   0.230
 1820TIP3    H1 5466   6.090   5.114   0.243
 1820TIP3    H2 5467   6.003   5.016   0.167
 1821TIP3   OH2 5468   4.974   2.682   3.533
 1821TIP3    H1 5469   5.005   2.625   3.463
 1821TIP3    H2 5470   5.041   2.749   3.542
 1822TIP3   OH2 5471   2.634   1.849   4.844
 1822TIP3    H1 5472   2.597   1.866   4.758
 1822TIP3    H2 5473   2.561   1.817   4.896
 1823TIP3   OH2 5474   1.221   4.196   4.144
 1823TIP3    H1 5475   1.211   4.118   4.198
 1823TIP3    H2 5476   1.203   4.166   4.054
 1824TIP3   OH2 5477   3.071   2.750   1.785
 1824TIP3    H1 5478   3.080   2.746   1.880
 1824TIP3    H2 5479   3.158   2.729   1.752
 1825TIP3   OH2 5480   1.403   2.141   0.802
 1825TIP3    H1 5481   1.336   2.101   0.859
 1825TIP3    H2 5482   1.470   2.172   0.862
 1826TIP3   OH2 5483   5.361   4.220   2.134
 1826TIP3    H1 5484   5.337   4.127   2.140
 1826TIP3    H2 5485   5.408   4.227   2.051
 1827TIP3   OH2 5486   2.337   5.913   0.215
 1827TIP3    H1 5487   2.318   5.966   0.138
 1827TIP3    H2 5488   2.325   5.972   0.289
 1828TIP3   OH2 5489   1.018   2.181   3.739
 1828TIP3    H1 5490   0.954   2.117   3.772
 1828TIP3    H2 5491   1.085   2.127   3.698
 1829TIP3   OH2 5492   4.021   1.097   1.971
 1829TIP3    H1 5493   4.005   1.188   1.947
 1829TIP3    H2 5494   3.939   1.052   1.953
 1830TIP3   OH2 5495   4.324   2.571   3.706
 1830TIP3    H1 5496   4.243   2.547   3.662
 1830TIP3    H2 5497   4.388   2.506   3.676
 1831TIP3   OH2 5498   4.574   2.851   3.033
 1831TIP3    H1 5499   4.500   2.813   2.986
 1831TIP3    H2 5500   4.535   2.918   3.090
 1832TIP3   OH2 5501   3.031   1.260   0.290
 1832TIP3    H1 5502   3.122   1.243   0.316
 1832TIP3    H2 5503   2.992   1.304   0.365
 1833TIP3   OH2 5504   3.243   0.813   1.523
 1833TIP3    H1 5505   3.219   0.765   1.443
 1833TIP3    H2 5506   3.339   0.816   1.520
 1834TIP3   OH2 5507   5.383   3.437   2.060
 1834TIP3    H1 5508   5.445   3.494   2.014
 1834TIP3    H2 5509   5.376   3.359   2.004
 1835TIP3   OH2 5510   3.035  -0.006   1.085
 1835TIP3    H1 5511   2.975   0.069   1.090
 1835TIP3    H2 5512   3.069  -0.003   0.996
 1836TIP3   OH2 5513   4.353   0.970   1.448
 1836TIP3    H1 5514   4.395   0.958   1.363
 1836TIP3    H2 5515   4.401   1.041   1.490
 1837TIP3   OH2 5516   6.235   5.251   1.855
 1837TIP3    H1 5517   6.221   5.297   1.773
 1837TIP3    H2 5518   6.305   5.300   1.899
 1838TIP3   OH2 5519   1.053   5.511   3.968
 1838TIP3    H1 5520   1.053   5.421   4.001
 1838TIP3    H2 5521   1.074   5.502   3.875
 1839TIP3   OH2 5522   1.647   3.713   0.365
 1839TIP3    H1 5523   1.690   3.797   0.378
 1839TIP3    H2 5524   1.716   3.648   0.374
 1840TIP3   OH2 5525   3.941   0.143   4.836
 1840TIP3    H1 5526   3.961   0.231   4.806
 1840TIP3    H2 5527   3.872   0.112   4.777
 1841TIP3   OH2 5528   0.544   3.049   4.700
 1841TIP3    H1 5529   0.577   3.130   4.741
 1841TIP3    H2 5530   0.574   3.054   4.610
 1842TIP3   OH2 5531   5.015   1.054   1.534
 1842TIP3    H1 5532   4.931   1.064   1.489
 1842TIP3    H2 5533   5.039   1.144   1.559
 1843TIP3   OH2 5534   5.877   5.530   2.487
 1843TIP3    H1 5535   5.951   5.582   2.519
 1843TIP3    H2 5536   5.849   5.574   2.407
 1844TIP3   OH2 5537   0.246   0.848   0.293
 1844TIP3    H1 5538   0.300   0.770   0.278
 1844TIP3    H2 5539   0.198   0.860   0.211
 1845TIP3   OH2 5540   0.969   3.841   1.256
 1845TIP3    H1 5541   0.987   3.864   1.165
 1845TIP3    H2 5542   0.911   3.765   1.251
 1846TIP3   OH2 5543   0.934   0.805   2.223
 1846TIP3    H1 5544   1.004   0.870   2.232
 1846TIP3    H2 5545   0.943   0.749   2.301
 1847TIP3   OH2 5546   4.377   1.611   1.942
 1847TIP3    H1 5547   4.471   1.627   1.930
 1847TIP3    H2 5548   4.371   1.516   1.955
 1848TIP3   OH2 5549   0.657   4.053   1.423
 1848TIP3    H1 5550   0.633   4.145   1.437
 1848TIP3    H2 5551   0.747   4.057   1.391
 1849TIP3   OH2 5552   0.593   1.949   5.056
 1849TIP3    H1 5553   0.639   2.026   5.024
 1849TIP3    H2 5554   0.657   1.878   5.049
 1850TIP3   OH2 5555   0.203   4.273   1.853
 1850TIP3    H1 5556   0.282   4.269   1.907
 1850TIP3    H2 5557   0.134   4.235   1.908
 1851TIP3   OH2 5558   2.318   2.040   4.054
 1851TIP3    H1 5559   2.284   1.951   4.055
 1851TIP3    H2 5560   2.328   2.064   4.146
 1852TIP3   OH2 5561   0.941   5.181   3.531
 1852TIP3    H1 5562   0.896   5.109   3.487
 1852TIP3    H2 5563   0.878   5.253   3.531
 1853TIP3   OH2 5564   2.499   0.056   1.181
 1853TIP3    H1 5565   2.548  -0.026   1.179
 1853TIP3    H2 5566   2.444   0.049   1.259
 1854TIP3   OH2 5567   2.039   4.200   0.339
 1854TIP3    H1 5568   2.056   4.275   0.282
 1854TIP3    H2 5569   2.104   4.134   0.313
 1855TIP3   OH2 5570   1.532   4.992   3.225
 1855TIP3    H1 5571   1.572   5.069   3.266
 1855TIP3    H2 5572   1.588   4.919   3.252
 1856TIP3   OH2 5573   4.968   2.808   4.867
 1856TIP3    H1 5574   4.939   2.855   4.789
 1856TIP3    H2 5575   4.920   2.851   4.939
 1857TIP3   OH2 5576   1.780   4.181   0.264
 1857TIP3    H1 5577   1.861   4.174   0.316
 1857TIP3    H2 5578   1.805   4.231   0.186
 1858TIP3   OH2 5579   0.783   2.708   4.397
 1858TIP3    H1 5580   0.741   2.646   4.456
 1858TIP3    H2 5581   0.853   2.747   4.450
 1859TIP3   OH2 5582   0.455   1.028   4.790
 1859TIP3    H1 5583   0.481   1.101   4.734
 1859TIP3    H2 5584   0.517   0.958   4.768
 1860TIP3   OH2 5585   5.700   2.697   3.008
 1860TIP3    H1 5586   5.648   2.775   3.030
 1860TIP3    H2 5587   5.635   2.634   2.977
 1861TIP3   OH2 5588   2.099   5.289   4.853
 1861TIP3    H1 5589   2.050   5.271   4.933
 1861TIP3    H2 5590   2.182   5.243   4.863
 1862TIP3   OH2 5591   4.636   0.175   0.449
 1862TIP3    H1 5592   4.642   0.235   0.523
 1862TIP3    H2 5593   4.555   0.198   0.405
 1863TIP3   OH2 5594   4.017   1.726   0.731
 1863TIP3    H1 5595   3.933   1.688   0.758
 1863TIP3    H2 5596   4.077   1.704   0.801
 1864TIP3   OH2 5597   0.781   5.750   4.668
 1864TIP3    H1 5598   0.841   5.678   4.686
 1864TIP3    H2 5599   0.739   5.727   4.585
 1865TIP3   OH2 5600   0.167   2.216   1.627
 1865TIP3    H1 5601   0.249   2.221   1.676
 1865TIP3    H2 5602   0.142   2.124   1.630
 1866TIP3   OH2 5603   2.817   0.376   3.572
 1866TIP3    H1 5604   2.837   0.412   3.658
 1866TIP3    H2 5605   2.743   0.429   3.541
 1867TIP3   OH2 5606   2.085   4.745   5.207
 1867TIP3    H1 5607   2.088   4.812   5.274
 1867TIP3    H2 5608   2.137   4.780   5.135
 1868TIP3   OH2 5609   4.950   3.802   1.255
 1868TIP3    H1 5610   5.039   3.767   1.255
 1868TIP3    H2 5611   4.916   3.781   1.342
 1869TIP3   OH2 5612   4.139   3.319   4.493
 1869TIP3    H1 5613   4.045   3.335   4.491
 1869TIP3    H2 5614   4.176   3.398   4.533
 1870TIP3   OH2 5615   1.364   3.272   4.293
 1870TIP3    H1 5616   1.405   3.287   4.379
 1870TIP3    H2 5617   1.349   3.359   4.258
 1871TIP3   OH2 5618   4.310   0.977   3.082
 1871TIP3    H1 5619   4.323   1.046   3.017
 1871TIP3    H2 5620   4.331   0.896   3.034
 1872TIP3   OH2 5621   0.484   4.267   1.242
 1872TIP3    H1 5622   0.409   4.209   1.234
 1872TIP3    H2 5623   0.512   4.257   1.333
 1873TIP3   OH2 5624   1.237   4.240   2.054
 1873TIP3    H1 5625   1.157   4.248   2.002
 1873TIP3    H2 5626   1.218   4.285   2.136
 1874TIP3   OH2 5627   1.926   4.159   0.580
 1874TIP3    H1 5628   1.978   4.163   0.499
 1874TIP3    H2 5629   1.878   4.076   0.573
 1875TIP3   OH2 5630   1.446   4.826   0.156
 1875TIP3    H1 5631   1.383   4.793   0.221
 1875TIP3    H2 5632   1.525   4.843   0.206
 1876TIP3   OH2 5633   4.570   2.430   3.600
 1876TIP3    H1 5634   4.529   2.359   3.649
 1876TIP3    H2 5635   4.593   2.391   3.515
 1877TIP3   OH2 5636   4.569   2.013   3.461
 1877TIP3    H1 5637   4.581   1.995   3.554
 1877TIP3    H2 5638   4.638   1.963   3.418
 1878TIP3   OH2 5639   1.054   2.614   1.280
 1878TIP3    H1 5640   1.060   2.710   1.282
 1878TIP3    H2 5641   1.118   2.585   1.345
 1879TIP3   OH2 5642   3.492   5.744   2.041
 1879TIP3    H1 5643   3.546   5.666   2.050
 1879TIP3    H2 5644   3.461   5.742   1.950
 1880TIP3   OH2 5645   6.302   1.222   2.350
 1880TIP3    H1 5646   6.387   1.191   2.382
 1880TIP3    H2 5647   6.242   1.150   2.368
 1881TIP3   OH2 5648   2.070   3.303   4.825
 1881TIP3    H1 5649   2.089   3.234   4.762
 1881TIP3    H2 5650   2.155   3.336   4.852
 1882TIP3   OH2 5651   1.083   2.536   3.341
 1882TIP3    H1 5652   1.048   2.487   3.415
 1882TIP3    H2 5653   1.039   2.620   3.345
 1883TIP3   OH2 5654   5.658   1.742   2.958
 1883TIP3    H1 5655   5.680   1.826   2.999
 1883TIP3    H2 5656   5.719   1.734   2.885
 1884TIP3   OH2 5657   6.146   3.149   4.410
 1884TIP3    H1 5658   6.178   3.239   4.416
 1884TIP3    H2 5659   6.127   3.137   4.317
 1885TIP3   OH2 5660   2.757   0.800   0.511
 1885TIP3    H1 5661   2.690   0.755   0.458
 1885TIP3    H2 5662   2.712   0.877   0.546
 1886TIP3   OH2 5663   6.191   5.492   4.555
 1886TIP3    H1 5664   6.126   5.492   4.485
 1886TIP3    H2 5665   6.173   5.572   4.605
 1887TIP3   OH2 5666   1.648   0.819   0.379
 1887TIP3    H1 5667   1.562   0.849   0.351
 1887TIP3    H2 5668   1.681   0.767   0.306
 1888TIP3   OH2 5669   1.296   0.819   3.564
 1888TIP3    H1 5670   1.345   0.884   3.514
 1888TIP3    H2 5671   1.247   0.770   3.497
 1889TIP3   OH2 5672   5.930   5.623   0.200
 1889TIP3    H1 5673   5.903   5.595   0.112
 1889TIP3    H2 5674   5.941   5.542   0.249
 1890TIP3   OH2 5675   5.780   5.284   1.236
 1890TIP3    H1 5676   5.841   5.311   1.167
 1890TIP3    H2 5677   5.704   5.342   1.226
 1891TIP3   OH2 5678   3.379   5.409   0.785
 1891TIP3    H1 5679   3.465   5.430   0.823
 1891TIP3    H2 5680   3.316   5.432   0.853
 1892TIP3   OH2 5681   2.521   1.451   0.935
 1892TIP3    H1 5682   2.479   1.405   1.008
 1892TIP3    H2 5683   2.576   1.517   0.977
 1893TIP3   OH2 5684   5.128   0.267   1.521
 1893TIP3    H1 5685   5.093   0.183   1.548
 1893TIP3    H2 5686   5.120   0.268   1.426
 1894TIP3   OH2 5687   3.067   0.011   0.206
 1894TIP3    H1 5688   3.067   0.107   0.204
 1894TIP3    H2 5689   2.986  -0.012   0.252
 1895TIP3   OH2 5690   4.955   4.417   0.750
 1895TIP3    H1 5691   4.972   4.365   0.828
 1895TIP3    H2 5692   5.042   4.445   0.720
 1896TIP3   OH2 5693   6.291   3.366   2.241
 1896TIP3    H1 5694   6.310   3.324   2.157
 1896TIP3    H2 5695   6.331   3.452   2.234
 1897TIP3   OH2 5696   4.927   3.356   2.840
 1897TIP3    H1 5697   4.915   3.451   2.843
 1897TIP3    H2 5698   4.899   3.325   2.927
 1898TIP3   OH2 5699   3.310   3.794   2.535
 1898TIP3    H1 5700   3.245   3.735   2.497
 1898TIP3    H2 5701   3.267   3.830   2.613
 1899TIP3   OH2 5702   0.071   1.396   3.094
 1899TIP3    H1 5703   0.059   1.315   3.143
 1899TIP3    H2 5704   0.149   1.380   3.041
 1900TIP3   OH2 5705   3.884   2.646   0.614
 1900TIP3    H1 5706   3.798   2.670   0.649
 1900TIP3    H2 5707   3.921   2.729   0.583
 1901TIP3   OH2 5708   0.370   5.204   0.887
 1901TIP3    H1 5709   0.287   5.177   0.848
 1901TIP3    H2 5710   0.424   5.231   0.814
 1902TIP3   OH2 5711   2.294   2.556   2.660
 1902TIP3    H1 5712   2.283   2.645   2.628
 1902TIP3    H2 5713   2.323   2.506   2.584
 1903TIP3   OH2 5714   3.509   2.592   1.376
 1903TIP3    H1 5715   3.488   2.680   1.408
 1903TIP3    H2 5716   3.475   2.591   1.287
 1904TIP3   OH2 5717   3.157   1.846   1.551
 1904TIP3    H1 5718   3.209   1.926   1.552
 1904TIP3    H2 5719   3.076   1.870   1.505
 1905TIP3   OH2 5720   5.481   1.712   4.129
 1905TIP3    H1 5721   5.406   1.656   4.149
 1905TIP3    H2 5722   5.502   1.694   4.038
 1906TIP3   OH2 5723   0.450   2.610   1.003
 1906TIP3    H1 5724   0.371   2.637   1.049
 1906TIP3    H2 5725   0.426   2.529   0.959
 1907TIP3   OH2 5726   1.094   3.830   4.647
 1907TIP3    H1 5727   1.182   3.857   4.621
 1907TIP3    H2 5728   1.078   3.876   4.729
 1908TIP3   OH2 5729   4.305   5.312   0.285
 1908TIP3    H1 5730   4.376   5.364   0.322
 1908TIP3    H2 5731   4.230   5.330   0.341
 1909TIP3   OH2 5732   4.022   3.866   4.809
 1909TIP3    H1 5733   4.053   3.933   4.869
 1909TIP3    H2 5734   4.092   3.801   4.808
 1910TIP3   OH2 5735   5.913   3.113   0.090
 1910TIP3    H1 5736   5.907   3.194   0.040
 1910TIP3    H2 5737   5.889   3.139   0.179
 1911TIP3   OH2 5738   2.423   4.481   3.156
 1911TIP3    H1 5739   2.426   4.552   3.091
 1911TIP3    H2 5740   2.514   4.462   3.175
 1912TIP3   OH2 5741   6.122   0.031   4.787
 1912TIP3    H1 5742   6.177  -0.041   4.756
 1912TIP3    H2 5743   6.064  -0.008   4.852
 1913TIP3   OH2 5744   4.604   0.496   0.056
 1913TIP3    H1 5745   4.681   0.523   0.106
 1913TIP3    H2 5746   4.638   0.474  -0.030
 1914TIP3   OH2 5747   0.263   4.362   1.600
 1914TIP3    H1 5748   0.220   4.308   1.665
 1914TIP3    H2 5749   0.260   4.451   1.636
 1915TIP3   OH2 5750   2.190   2.211   0.550
 1915TIP3    H1 5751   2.151   2.124   0.562
 1915TIP3    H2 5752   2.228   2.233   0.635
 1916TIP3   OH2 5753   5.750   3.262   4.489
 1916TIP3    H1 5754   5.722   3.257   4.581
 1916TIP3    H2 5755   5.748   3.171   4.459
 1917TIP3   OH2 5756   0.453   2.822   4.567
 1917TIP3    H1 5757   0.450   2.911   4.603
 1917TIP3    H2 5758   0.486   2.769   4.639
 1918TIP3   OH2 5759   0.731   4.179   4.169
 1918TIP3    H1 5760   0.753   4.221   4.086
 1918TIP3    H2 5761   0.659   4.232   4.203
 1919TIP3   OH2 5762   5.150   2.813   2.270
 1919TIP3    H1 5763   5.189   2.890   2.312
 1919TIP3    H2 5764   5.194   2.807   2.185
 1920TIP3   OH2 5765   0.934   3.854   2.584
 1920TIP3    H1 5766   1.021   3.883   2.556
 1920TIP3    H2 5767   0.941   3.844   2.679
 1921TIP3   OH2 5768   5.145   0.883   1.039
 1921TIP3    H1 5769   5.152   0.887   1.134
 1921TIP3    H2 5770   5.078   0.947   1.017
 1922TIP3   OH2 5771   2.280   1.407   1.428
 1922TIP3    H1 5772   2.256   1.315   1.418
 1922TIP3    H2 5773   2.336   1.409   1.506
 1923TIP3   OH2 5774   3.957  -0.012   3.089
 1923TIP3    H1 5775   3.983   0.080   3.085
 1923TIP3    H2 5776   3.920  -0.023   3.176
 1924TIP3   OH2 5777   5.659   4.296   1.993
 1924TIP3    H1 5778   5.625   4.284   1.905
 1924TIP3    H2 5779   5.649   4.210   2.035
 1925TIP3   OH2 5780   5.267   1.033   4.247
 1925TIP3    H1 5781   5.244   0.953   4.200
 1925TIP3    H2 5782   5.324   1.081   4.186
 1926TIP3   OH2 5783   0.379   5.320   3.091
 1926TIP3    H1 5784   0.291   5.355   3.075
 1926TIP3    H2 5785   0.427   5.338   3.010
 1927TIP3   OH2 5786   0.810   2.708   0.696
 1927TIP3    H1 5787   0.815   2.781   0.634
 1927TIP3    H2 5788   0.887   2.655   0.678
 1928TIP3   OH2 5789   2.874   2.646   2.019
 1928TIP3    H1 5790   2.964   2.668   2.043
 1928TIP3    H2 5791   2.820   2.706   2.071
 1929TIP3   OH2 5792   5.485   1.951   0.723
 1929TIP3    H1 5793   5.398   1.977   0.753
 1929TIP3    H2 5794   5.469   1.874   0.669
 1930TIP3   OH2 5795   0.552   0.864   0.525
 1930TIP3    H1 5796   0.597   0.785   0.556
 1930TIP3    H2 5797   0.572   0.868   0.432
 1931TIP3   OH2 5798   3.282   2.629   5.139
 1931TIP3    H1 5799   3.348   2.566   5.167
 1931TIP3    H2 5800   3.235   2.585   5.068
 1932TIP3   OH2 5801   5.324   1.594   3.475
 1932TIP3    H1 5802   5.283   1.511   3.451
 1932TIP3    H2 5803   5.317   1.598   3.570
 1933TIP3   OH2 5804   0.152   3.473   0.944
 1933TIP3    H1 5805   0.081   3.422   0.905
 1933TIP3    H2 5806   0.107   3.545   0.988
 1934TIP3   OH2 5807   5.449   1.316   2.523
 1934TIP3    H1 5808   5.512   1.366   2.574
 1934TIP3    H2 5809   5.449   1.358   2.437
 1935TIP3   OH2 5810   5.089   5.493   0.767
 1935TIP3    H1 5811   5.131   5.454   0.689
 1935TIP3    H2 5812   5.076   5.419   0.826
 1936TIP3   OH2 5813   4.841   5.211   3.508
 1936TIP3    H1 5814   4.856   5.137   3.449
 1936TIP3    H2 5815   4.871   5.180   3.594
 1937TIP3   OH2 5816   4.418   3.654   2.486
 1937TIP3    H1 5817   4.354   3.631   2.418
 1937TIP3    H2 5818   4.475   3.578   2.492
 1938TIP3   OH2 5819   2.981   1.064   3.725
 1938TIP3    H1 5820   3.049   1.030   3.667
 1938TIP3    H2 5821   3.002   1.157   3.734
 1939TIP3   OH2 5822   0.935   3.875   3.584
 1939TIP3    H1 5823   0.964   3.793   3.624
 1939TIP3    H2 5824   0.842   3.881   3.605
 1940TIP3   OH2 5825   0.441   2.751   3.027
 1940TIP3    H1 5826   0.434   2.846   3.044
 1940TIP3    H2 5827   0.393   2.738   2.945
 1941TIP3   OH2 5828   5.607   5.373   2.375
 1941TIP3    H1 5829   5.686   5.377   2.430
 1941TIP3    H2 5830   5.616   5.291   2.326
 1942TIP3   OH2 5831   5.484   2.535   1.828
 1942TIP3    H1 5832   5.562   2.529   1.773
 1942TIP3    H2 5833   5.517   2.553   1.916
 1943TIP3   OH2 5834   2.147   1.764   2.450
 1943TIP3    H1 5835   2.066   1.814   2.457
 1943TIP3    H2 5836   2.157   1.721   2.535
 1944TIP3   OH2 5837   5.578   2.511   0.923
 1944TIP3    H1 5838   5.632   2.432   0.925
 1944TIP3    H2 5839   5.514   2.498   0.993
 1945TIP3   OH2 5840   5.285   1.887   3.850
 1945TIP3    H1 5841   5.252   1.889   3.940
 1945TIP3    H2 5842   5.248   1.807   3.813
 1946TIP3   OH2 5843   2.717   0.036   1.018
 1946TIP3    H1 5844   2.664  -0.031   1.062
 1946TIP3    H2 5845   2.744   0.095   1.088
 1947TIP3   OH2 5846   6.195   2.061   3.298
 1947TIP3    H1 5847   6.174   1.991   3.360
 1947TIP3    H2 5848   6.131   2.050   3.227
 1948TIP3   OH2 5849   2.570   1.188   0.452
 1948TIP3    H1 5850   2.506   1.257   0.433
 1948TIP3    H2 5851   2.519   1.115   0.487
 1949TIP3   OH2 5852   3.969   1.909   5.215
 1949TIP3    H1 5853   4.017   1.927   5.134
 1949TIP3    H2 5854   3.983   1.816   5.231
 1950TIP3   OH2 5855   6.236   3.459   4.467
 1950TIP3    H1 5856   6.259   3.456   4.374
 1950TIP3    H2 5857   6.237   3.552   4.490
 1951TIP3   OH2 5858   4.818   0.420   3.020
 1951TIP3    H1 5859   4.852   0.486   2.959
 1951TIP3    H2 5860   4.896   0.369   3.045
 1952TIP3   OH2 5861   1.607   4.416   2.441
 1952TIP3    H1 5862   1.668   4.489   2.436
 1952TIP3    H2 5863   1.602   4.395   2.534
 1953TIP3   OH2 5864   0.640   2.234   3.489
 1953TIP3    H1 5865   0.601   2.162   3.439
 1953TIP3    H2 5866   0.719   2.257   3.440
 1954TIP3   OH2 5867   0.021   5.206   3.909
 1954TIP3    H1 5868   0.105   5.208   3.865
 1954TIP3    H2 5869   0.024   5.128   3.964
 1955TIP3   OH2 5870   4.750   1.721   1.881
 1955TIP3    H1 5871   4.770   1.689   1.793
 1955TIP3    H2 5872   4.794   1.661   1.940
 1956TIP3   OH2 5873   2.925   1.533   3.198
 1956TIP3    H1 5874   2.868   1.602   3.162
 1956TIP3    H2 5875   2.890   1.517   3.286
 1957TIP3   OH2 5876   3.829   4.244   2.825
 1957TIP3    H1 5877   3.827   4.325   2.875
 1957TIP3    H2 5878   3.910   4.200   2.854
 1958TIP3   OH2 5879   2.905   1.054   4.882
 1958TIP3    H1 5880   2.896   1.134   4.830
 1958TIP3    H2 5881   2.987   1.065   4.930
 1959TIP3   OH2 5882   6.296   5.650   1.690
 1959TIP3    H1 5883   6.354   5.605   1.752
 1959TIP3    H2 5884   6.330   5.740   1.686
 1960TIP3   OH2 5885   1.028   3.621   4.009
 1960TIP3    H1 5886   1.046   3.604   3.917
 1960TIP3    H2 5887   1.028   3.716   4.016
 1961TIP3   OH2 5888   1.943   5.520   5.088
 1961TIP3    H1 5889   1.852   5.500   5.063
 1961TIP3    H2 5890   1.979   5.436   5.114
 1962TIP3   OH2 5891   3.521   5.864   4.384
 1962TIP3    H1 5892   3.449   5.927   4.393
 1962TIP3    H2 5893   3.487   5.784   4.424
 1963TIP3   OH2 5894   2.738   1.784   1.354
 1963TIP3    H1 5895   2.654   1.761   1.395
 1963TIP3    H2 5896   2.775   1.700   1.328
 1964TIP3   OH2 5897   0.819   4.980   1.968
 1964TIP3    H1 5898   0.742   5.033   1.950
 1964TIP3    H2 5899   0.821   4.971   2.063
 1965TIP3   OH2 5900   5.059   5.351   1.547
 1965TIP3    H1 5901   5.037   5.260   1.528
 1965TIP3    H2 5902   4.996   5.377   1.614
 1966TIP3   OH2 5903   1.154   4.190   1.305
 1966TIP3    H1 5904   1.059   4.191   1.289
 1966TIP3    H2 5905   1.190   4.143   1.230
 1967TIP3   OH2 5906   3.638   2.433   3.916
 1967TIP3    H1 5907   3.724   2.412   3.954
 1967TIP3    H2 5908   3.658   2.464   3.828
 1968TIP3   OH2 5909   2.082   0.980   5.023
 1968TIP3    H1 5910   2.081   0.884   5.020
 1968TIP3    H2 5911   2.071   1.002   5.116
 1969TIP3   OH2 5912   3.547   1.603   1.234
 1969TIP3    H1 5913   3.624   1.559   1.270
 1969TIP3    H2 5914   3.567   1.615   1.141
 1970TIP3   OH2 5915   5.822   5.058   0.990
 1970TIP3    H1 5916   5.881   5.133   0.985
 1970TIP3    H2 5917   5.879   4.984   1.014
 1971TIP3   OH2 5918   3.161   3.841   3.226
 1971TIP3    H1 5919   3.171   3.931   3.258
 1971TIP3    H2 5920   3.098   3.801   3.285
 1972TIP3   OH2 5921   1.302   5.581   0.078
 1972TIP3    H1 5922   1.212   5.609   0.062
 1972TIP3    H2 5923   1.306   5.567   0.173
 1973TIP3   OH2 5924   1.194   5.464   3.001
 1973TIP3    H1 5925   1.240   5.431   3.077
 1973TIP3    H2 5926   1.102   5.469   3.028
 1974TIP3   OH2 5927   3.164   3.139   4.324
 1974TIP3    H1 5928   3.183   3.045   4.318
 1974TIP3    H2 5929   3.243   3.181   4.290
 1975TIP3   OH2 5930   4.769   4.915   4.742
 1975TIP3    H1 5931   4.830   4.844   4.725
 1975TIP3    H2 5932   4.683   4.872   4.749
 1976TIP3   OH2 5933   2.866   3.142   2.945
 1976TIP3    H1 5934   2.866   3.051   2.915
 1976TIP3    H2 5935   2.909   3.140   3.030
 1977TIP3   OH2 5936   1.354   4.382   2.623
 1977TIP3    H1 5937   1.308   4.357   2.544
 1977TIP3    H2 5938   1.328   4.473   2.638
 1978TIP3   OH2 5939   1.705   3.551   1.655
 1978TIP3    H1 5940   1.733   3.558   1.564
 1978TIP3    H2 5941   1.787   3.552   1.705
 1979TIP3   OH2 5942   4.875   3.710   0.071
 1979TIP3    H1 5943   4.845   3.723  -0.019
 1979TIP3    H2 5944   4.805   3.662   0.114
 1980TIP3   OH2 5945   6.210   4.913   0.464
 1980TIP3    H1 5946   6.250   4.926   0.550
 1980TIP3    H2 5947   6.175   4.824   0.468
 1981TIP3   OH2 5948   2.836   0.770   0.233
 1981TIP3    H1 5949   2.750   0.808   0.220
 1981TIP3    H2 5950   2.836   0.740   0.324
 1982TIP3   OH2 5951   2.411   3.629   1.838
 1982TIP3    H1 5952   2.461   3.710   1.832
 1982TIP3    H2 5953   2.471   3.566   1.876
 1983TIP3   OH2 5954   3.683   0.418   2.616
 1983TIP3    H1 5955   3.622   0.404   2.688
 1983TIP3    H2 5956   3.769   0.426   2.658
 1984TIP3   OH2 5957   1.321   1.581   4.172
 1984TIP3    H1 5958   1.352   1.636   4.243
 1984TIP3    H2 5959   1.399   1.532   4.145
 1985TIP3   OH2 5960   0.833   0.245   2.161
 1985TIP3    H1 5961   0.872   0.158   2.160
 1985TIP3    H2 5962   0.895   0.300   2.113
 1986TIP3   OH2 5963   3.482   1.250   2.194
 1986TIP3    H1 5964   3.468   1.319   2.129
 1986TIP3    H2 5965   3.429   1.176   2.163
 1987TIP3   OH2 5966   0.117   0.736   3.050
 1987TIP3    H1 5967   0.162   0.743   2.966
 1987TIP3    H2 5968   0.139   0.649   3.083
 1988TIP3   OH2 5969   1.115   0.236   5.191
 1988TIP3    H1 5970   1.182   0.216   5.125
 1988TIP3    H2 5971   1.034   0.246   5.141
 1989TIP3   OH2 5972   4.044   4.900   2.462
 1989TIP3    H1 5973   4.063   4.844   2.386
 1989TIP3    H2 5974   4.087   4.983   2.442
 1990TIP3   OH2 5975   5.620   5.854   3.193
 1990TIP3    H1 5976   5.667   5.772   3.203
 1990TIP3    H2 5977   5.616   5.869   3.098
 1991TIP3   OH2 5978   1.042   3.305   0.806
 1991TIP3    H1 5979   0.952   3.297   0.774
 1991TIP3    H2 5980   1.078   3.217   0.799
 1992TIP3   OH2 5981   6.342   4.988   4.869
 1992TIP3    H1 5982   6.314   5.018   4.783
 1992TIP3    H2 5983   6.394   5.060   4.904
 1993TIP3   OH2 5984   3.941   2.055   2.770
 1993TIP3    H1 5985   4.005   2.126   2.765
 1993TIP3    H2 5986   3.923   2.033   2.679
 1994TIP3   OH2 5987   3.284   1.099   2.042
 1994TIP3    H1 5988   3.295   1.039   1.968
 1994TIP3    H2 5989   3.223   1.165   2.010
 1995TIP3   OH2 5990   4.114   5.026   3.494
 1995TIP3    H1 5991   4.064   5.067   3.423
 1995TIP3    H2 5992   4.085   4.934   3.493
 1996TIP3   OH2 5993   2.023   4.763   2.830
 1996TIP3    H1 5994   2.047   4.844   2.785
 1996TIP3    H2 5995   2.089   4.699   2.802
 1997TIP3   OH2 5996   6.012   3.376   0.271
 1997TIP3    H1 5997   6.049   3.310   0.329
 1997TIP3    H2 5998   5.923   3.390   0.305
 1998TIP3   OH2 5999   3.643   4.030   0.966
 1998TIP3    H1 6000   3.549   4.017   0.982
 1998TIP3    H2 6001   3.686   3.979   1.035
 1999TIP3   OH2 6002   3.546   3.489   2.861
 1999TIP3    H1 6003   3.486   3.457   2.794
 1999TIP3    H2 6004   3.613   3.537   2.813
 2000TIP3   OH2 6005   1.577   1.857   3.265
 2000TIP3    H1 6006   1.502   1.910   3.239
 2000TIP3    H2 6007   1.608   1.818   3.183
 2001TIP3   OH2 6008   1.037   1.239   4.476
 2001TIP3    H1 6009   1.031   1.179   4.402
 2001TIP3    H2 6010   1.095   1.195   4.538
 2002TIP3   OH2 6011   5.664   1.629   2.194
 2002TIP3    H1 6012   5.688   1.720   2.212
 2002TIP3    H2 6013   5.734   1.598   2.136
 2003TIP3   OH2 6014   0.168   1.627   0.743
 2003TIP3    H1 6015   0.198   1.680   0.668
 2003TIP3    H2 6016   0.234   1.558   0.751
 2004TIP3   OH2 6017   2.799   5.324   2.611
 2004TIP3    H1 6018   2.713   5.304   2.575
 2004TIP3    H2 6019   2.790   5.412   2.649
 2005TIP3   OH2 6020   5.926   1.139   4.298
 2005TIP3    H1 6021   5.877   1.200   4.242
 2005TIP3    H2 6022   6.016   1.169   4.293
 2006TIP3   OH2 6023   5.039   1.997   3.265
 2006TIP3    H1 6024   5.083   1.912   3.272
 2006TIP3    H2 6025   5.056   2.025   3.175
 2007TIP3   OH2 6026   2.581   1.867   2.053
 2007TIP3    H1 6027   2.570   1.802   2.122
 2007TIP3    H2 6028   2.654   1.833   2.000
 2008TIP3   OH2 6029   3.217   4.934   0.438
 2008TIP3    H1 6030   3.272   4.981   0.500
 2008TIP3    H2 6031   3.205   4.847   0.476
 2009TIP3   OH2 6032   5.480   5.238   1.356
 2009TIP3    H1 6033   5.527   5.303   1.407
 2009TIP3    H2 6034   5.533   5.158   1.364
 2010TIP3   OH2 6035   3.807   5.073   3.781
 2010TIP3    H1 6036   3.760   5.015   3.841
 2010TIP3    H2 6037   3.898   5.041   3.784
 2011TIP3   OH2 6038   1.410   5.663   2.852
 2011TIP3    H1 6039   1.416   5.704   2.767
 2011TIP3    H2 6040   1.390   5.571   2.833
 2012TIP3   OH2 6041   0.791   3.082   5.039
 2012TIP3    H1 6042   0.782   3.173   5.067
 2012TIP3    H2 6043   0.848   3.042   5.105
 2013TIP3   OH2 6044   3.478   0.030   1.823
 2013TIP3    H1 6045   3.425   0.012   1.900
 2013TIP3    H2 6046   3.523   0.112   1.844
 2014TIP3   OH2 6047   5.663   3.546   1.719
 2014TIP3    H1 6048   5.694   3.458   1.698
 2014TIP3    H2 6049   5.742   3.594   1.744
 2015TIP3   OH2 6050   0.385   3.728   0.489
 2015TIP3    H1 6051   0.425   3.772   0.564
 2015TIP3    H2 6052   0.293   3.720   0.513
 2016TIP3   OH2 6053   5.721   2.541   4.664
 2016TIP3    H1 6054   5.676   2.595   4.599
 2016TIP3    H2 6055   5.652   2.514   4.725
 2017TIP3   OH2 6056   1.772   3.944   4.810
 2017TIP3    H1 6057   1.855   3.939   4.857
 2017TIP3    H2 6058   1.778   3.877   4.743
 2018TIP3   OH2 6059   4.556   0.943   1.198
 2018TIP3    H1 6060   4.493   0.993   1.146
 2018TIP3    H2 6061   4.553   0.855   1.162
 2019TIP3   OH2 6062   1.796   4.619   2.457
 2019TIP3    H1 6063   1.789   4.715   2.453
 2019TIP3    H2 6064   1.866   4.603   2.521
 2020TIP3   OH2 6065   6.013   3.260   2.307
 2020TIP3    H1 6066   6.052   3.215   2.382
 2020TIP3    H2 6067   6.087   3.273   2.247
 2021TIP3   OH2 6068   5.357   0.459   0.853
 2021TIP3    H1 6069   5.446   0.493   0.857
 2021TIP3    H2 6070   5.344   0.434   0.761
 2022TIP3   OH2 6071   5.642   1.699   3.238
 2022TIP3    H1 6072   5.647   1.711   3.143
 2022TIP3    H2 6073   5.733   1.692   3.266
 2023TIP3   OH2 6074   2.504   1.554   0.046
 2023TIP3    H1 6075   2.543   1.472   0.018
 2023TIP3    H2 6076   2.510   1.553   0.141
 2024TIP3   OH2 6077   3.769   5.890   2.922
 2024TIP3    H1 6078   3.834   5.837   2.876
 2024TIP3    H2 6079   3.704   5.911   2.855
 2025TIP3   OH2 6080   4.197   1.279   4.766
 2025TIP3    H1 6081   4.171   1.336   4.838
 2025TIP3    H2 6082   4.119   1.226   4.747
 2026TIP3   OH2 6083   6.162   4.585   3.604
 2026TIP3    H1 6084   6.228   4.624   3.661
 2026TIP3    H2 6085   6.143   4.654   3.540
 2027TIP3   OH2 6086   2.494   2.626   3.206
 2027TIP3    H1 6087   2.442   2.598   3.281
 2027TIP3    H2 6088   2.430   2.651   3.139
 2028TIP3   OH2 6089   1.385   2.162   1.584
 2028TIP3    H1 6090   1.326   2.233   1.611
 2028TIP3    H2 6091   1.465   2.177   1.634
 2029TIP3   OH2 6092  -0.067   4.338   2.290
 2029TIP3    H1 6093  -0.103   4.283   2.360
 2029TIP3    H2 6094   0.019   4.299   2.272
 2030TIP3   OH2 6095   3.929   2.735   4.578
 2030TIP3    H1 6096   3.898   2.684   4.652
 2030TIP3    H2 6097   3.955   2.670   4.512
 2031TIP3   OH2 6098   0.933   3.990   3.277
 2031TIP3    H1 6099   1.013   3.979   3.225
 2031TIP3    H2 6100   0.945   3.931   3.351
 2032TIP3   OH2 6101   1.726   0.244   3.082
 2032TIP3    H1 6102   1.645   0.227   3.130
 2032TIP3    H2 6103   1.792   0.257   3.150
 2033TIP3   OH2 6104   0.526   5.952   4.839
 2033TIP3    H1 6105   0.516   6.045   4.823
 2033TIP3    H2 6106   0.500   5.910   4.757
 2034TIP3   OH2 6107   1.516   1.405   2.943
 2034TIP3    H1 6108   1.524   1.395   2.849
 2034TIP3    H2 6109   1.484   1.320   2.974
 2035TIP3   OH2 6110   0.944   1.484   3.624
 2035TIP3    H1 6111   0.913   1.409   3.574
 2035TIP3    H2 6112   0.871   1.545   3.625
 2036TIP3   OH2 6113   5.672   1.993   1.142
 2036TIP3    H1 6114   5.688   1.916   1.088
 2036TIP3    H2 6115   5.735   1.986   1.214
 2037TIP3   OH2 6116   1.943   0.799   0.485
 2037TIP3    H1 6117   1.928   0.870   0.424
 2037TIP3    H2 6118   1.866   0.743   0.476
 2038TIP3   OH2 6119   0.521   1.886   3.581
 2038TIP3    H1 6120   0.588   1.888   3.512
 2038TIP3    H2 6121   0.499   1.978   3.595
 2039TIP3   OH2 6122   3.700   4.120   3.749
 2039TIP3    H1 6123   3.650   4.097   3.671
 2039TIP3    H2 6124   3.689   4.045   3.808
 2040TIP3   OH2 6125   5.476   1.855   4.809
 2040TIP3    H1 6126   5.482   1.827   4.900
 2040TIP3    H2 6127   5.482   1.774   4.759
 2041TIP3   OH2 6128   0.734   1.804   3.396
 2041TIP3    H1 6129   0.701   1.845   3.315
 2041TIP3    H2 6130   0.824   1.837   3.403
 2042TIP3   OH2 6131   1.815   0.771   4.405
 2042TIP3    H1 6132   1.850   0.847   4.449
 2042TIP3    H2 6133   1.781   0.715   4.475
 2043TIP3   OH2 6134   0.118   2.037   3.247
 2043TIP3    H1 6135   0.134   1.943   3.239
 2043TIP3    H2 6136   0.032   2.043   3.290
 2044TIP3   OH2 6137   0.380   5.726   3.119
 2044TIP3    H1 6138   0.458   5.676   3.140
 2044TIP3    H2 6139   0.402   5.816   3.142
 2045TIP3   OH2 6140   5.536   1.294   1.071
 2045TIP3    H1 6141   5.613   1.288   1.128
 2045TIP3    H2 6142   5.466   1.253   1.121
 2046TIP3   OH2 6143   1.409   3.474   3.676
 2046TIP3    H1 6144   1.406   3.448   3.584
 2046TIP3    H2 6145   1.423   3.569   3.673
 2047TIP3   OH2 6146   4.588   3.454   2.484
 2047TIP3    H1 6147   4.561   3.366   2.456
 2047TIP3    H2 6148   4.683   3.455   2.467
 2048TIP3   OH2 6149   5.146   2.589   1.496
 2048TIP3    H1 6150   5.072   2.635   1.455
 2048TIP3    H2 6151   5.144   2.502   1.457
 2049TIP3   OH2 6152   2.506   3.173   4.460
 2049TIP3    H1 6153   2.415   3.192   4.437
 2049TIP3    H2 6154   2.536   3.111   4.393
 2050TIP3   OH2 6155   2.127   1.302   3.508
 2050TIP3    H1 6156   2.160   1.358   3.579
 2050TIP3    H2 6157   2.206   1.279   3.458
 2051TIP3   OH2 6158   2.339   1.935   3.268
 2051TIP3    H1 6159   2.370   1.988   3.195
 2051TIP3    H2 6160   2.247   1.960   3.278
 2052TIP3   OH2 6161   4.208   0.633   0.242
 2052TIP3    H1 6162   4.125   0.612   0.285
 2052TIP3    H2 6163   4.225   0.724   0.265
 2053TIP3   OH2 6164   2.688   4.931   4.619
 2053TIP3    H1 6165   2.657   5.000   4.561
 2053TIP3    H2 6166   2.719   4.978   4.697
 2054TIP3   OH2 6167   2.109   5.724   4.955
 2054TIP3    H1 6168   2.192   5.707   5.000
 2054TIP3    H2 6169   2.047   5.664   4.995
 2055TIP3   OH2 6170   2.809   5.111   4.405
 2055TIP3    H1 6171   2.734   5.145   4.356
 2055TIP3    H2 6172   2.848   5.047   4.346
 2056TIP3   OH2 6173   4.121   5.311   1.773
 2056TIP3    H1 6174   4.191   5.350   1.720
 2056TIP3    H2 6175   4.127   5.356   1.857
 2057TIP3   OH2 6176   2.652   5.876   4.502
 2057TIP3    H1 6177   2.675   5.915   4.587
 2057TIP3    H2 6178   2.592   5.939   4.462
 2058TIP3   OH2 6179   0.816   2.670   4.123
 2058TIP3    H1 6180   0.877   2.741   4.101
 2058TIP3    H2 6181   0.788   2.689   4.213
 2059TIP3   OH2 6182   0.703   2.718   3.121
 2059TIP3    H1 6183   0.716   2.658   3.047
 2059TIP3    H2 6184   0.608   2.730   3.124
 2060TIP3   OH2 6185   5.988   0.281   5.010
 2060TIP3    H1 6186   6.005   0.202   4.959
 2060TIP3    H2 6187   5.903   0.265   5.052
 2061TIP3   OH2 6188   1.027   1.922   3.177
 2061TIP3    H1 6189   1.058   1.968   3.099
 2061TIP3    H2 6190   0.945   1.881   3.149
 2062TIP3   OH2 6191   4.429   2.518   1.455
 2062TIP3    H1 6192   4.422   2.441   1.398
 2062TIP3    H2 6193   4.361   2.505   1.520
 2063TIP3   OH2 6194   6.180   4.172   3.025
 2063TIP3    H1 6195   6.215   4.147   3.110
 2063TIP3    H2 6196   6.244   4.234   2.990
 2064TIP3   OH2 6197   6.000   5.564   3.357
 2064TIP3    H1 6198   6.007   5.503   3.284
 2064TIP3    H2 6199   5.924   5.533   3.407
 2065TIP3   OH2 6200   4.271   4.325   4.076
 2065TIP3    H1 6201   4.247   4.357   4.163
 2065TIP3    H2 6202   4.363   4.299   4.084
 2066TIP3   OH2 6203   6.123   1.465   4.617
 2066TIP3    H1 6204   6.157   1.487   4.703
 2066TIP3    H2 6205   6.171   1.386   4.591
 2067TIP3   OH2 6206   1.777   0.814   3.356
 2067TIP3    H1 6207   1.731   0.873   3.296
 2067TIP3    H2 6208   1.866   0.851   3.362
 2068TIP3   OH2 6209   2.408   0.417   4.028
 2068TIP3    H1 6210   2.372   0.375   3.950
 2068TIP3    H2 6211   2.497   0.384   4.034
 2069TIP3   OH2 6212   3.322   0.233   2.301
 2069TIP3    H1 6213   3.394   0.293   2.320
 2069TIP3    H2 6214   3.243   0.285   2.313
 2070TIP3   OH2 6215   3.489   0.344   3.316
 2070TIP3    H1 6216   3.545   0.274   3.282
 2070TIP3    H2 6217   3.469   0.317   3.406
 2071TIP3   OH2 6218   5.588   2.578   3.702
 2071TIP3    H1 6219   5.540   2.568   3.784
 2071TIP3    H2 6220   5.541   2.522   3.640
 2072TIP3   OH2 6221   0.765   4.622   1.270
 2072TIP3    H1 6222   0.832   4.662   1.325
 2072TIP3    H2 6223   0.683   4.660   1.302
 2073TIP3   OH2 6224   5.957   3.692   2.853
 2073TIP3    H1 6225   5.944   3.605   2.891
 2073TIP3    H2 6226   6.013   3.737   2.916
 2074TIP3   OH2 6227   3.226   3.059   0.855
 2074TIP3    H1 6228   3.152   3.117   0.875
 2074TIP3    H2 6229   3.199   3.014   0.775
 2075TIP3   OH2 6230   2.257   3.461   0.427
 2075TIP3    H1 6231   2.302   3.520   0.367
 2075TIP3    H2 6232   2.210   3.400   0.370
 2076TIP3   OH2 6233   0.360   2.061   5.153
 2076TIP3    H1 6234   0.294   1.998   5.126
 2076TIP3    H2 6235   0.438   2.039   5.101
 2077TIP3   OH2 6236   3.762   4.877   2.271
 2077TIP3    H1 6237   3.794   4.787   2.271
 2077TIP3    H2 6238   3.829   4.927   2.225
 2078TIP3   OH2 6239   5.419   5.915   0.649
 2078TIP3    H1 6240   5.374   5.968   0.583
 2078TIP3    H2 6241   5.424   5.827   0.610
 2079TIP3   OH2 6242   2.606   5.222   1.931
 2079TIP3    H1 6243   2.627   5.313   1.910
 2079TIP3    H2 6244   2.512   5.215   1.912
 2080TIP3   OH2 6245   4.862   2.337   3.548
 2080TIP3    H1 6246   4.935   2.290   3.507
 2080TIP3    H2 6247   4.788   2.320   3.490
 2081TIP3   OH2 6248   0.427   3.017   2.883
 2081TIP3    H1 6249   0.444   3.106   2.914
 2081TIP3    H2 6250   0.336   3.017   2.855
 2082TIP3   OH2 6251   5.174   3.837   4.334
 2082TIP3    H1 6252   5.216   3.765   4.287
 2082TIP3    H2 6253   5.188   3.817   4.427
 2083TIP3   OH2 6254   4.842   3.925   2.609
 2083TIP3    H1 6255   4.911   3.970   2.561
 2083TIP3    H2 6256   4.767   3.925   2.549
 2084TIP3   OH2 6257   6.189   1.107   0.354
 2084TIP3    H1 6258   6.170   1.164   0.429
 2084TIP3    H2 6259   6.261   1.052   0.383
 2085TIP3   OH2 6260   4.990   4.692   1.930
 2085TIP3    H1 6261   4.977   4.607   1.973
 2085TIP3    H2 6262   4.950   4.682   1.844
 2086TIP3   OH2 6263   4.612   2.247   2.266
 2086TIP3    H1 6264   4.686   2.291   2.225
 2086TIP3    H2 6265   4.652   2.181   2.323
 2087TIP3   OH2 6266   3.451   5.245   4.513
 2087TIP3    H1 6267   3.538   5.266   4.478
 2087TIP3    H2 6268   3.455   5.269   4.605
 2088TIP3   OH2 6269   2.546   0.982   2.776
 2088TIP3    H1 6270   2.615   1.024   2.724
 2088TIP3    H2 6271   2.502   0.924   2.714
 2089TIP3   OH2 6272   0.965   5.874   5.125
 2089TIP3    H1 6273   1.010   5.958   5.118
 2089TIP3    H2 6274   0.877   5.891   5.092
 2090TIP3   OH2 6275   1.951   4.470   3.672
 2090TIP3    H1 6276   1.890   4.533   3.713
 2090TIP3    H2 6277   2.037   4.494   3.707
 2091TIP3   OH2 6278   5.324   1.058   2.426
 2091TIP3    H1 6279   5.379   1.134   2.446
 2091TIP3    H2 6280   5.240   1.095   2.399
 2092TIP3   OH2 6281   4.907   4.722   2.901
 2092TIP3    H1 6282   4.972   4.664   2.863
 2092TIP3    H2 6283   4.910   4.800   2.845
 2093TIP3   OH2 6284   1.715   2.052   0.967
 2093TIP3    H1 6285   1.675   2.113   1.029
 2093TIP3    H2 6286   1.749   2.107   0.898
 2094TIP3   OH2 6287   5.770   5.777   2.061
 2094TIP3    H1 6288   5.754   5.841   1.992
 2094TIP3    H2 6289   5.683   5.751   2.090
 2095TIP3   OH2 6290   4.676   4.023   4.610
 2095TIP3    H1 6291   4.697   3.999   4.700
 2095TIP3    H2 6292   4.662   3.939   4.566
 2096TIP3   OH2 6293   6.230   4.597   2.267
 2096TIP3    H1 6294   6.278   4.515   2.278
 2096TIP3    H2 6295   6.284   4.648   2.206
 2097TIP3   OH2 6296   4.245   2.267   4.948
 2097TIP3    H1 6297   4.180   2.325   4.988
 2097TIP3    H2 6298   4.199   2.228   4.873
 2098TIP3   OH2 6299   6.191   2.776   2.790
 2098TIP3    H1 6300   6.097   2.786   2.780
 2098TIP3    H2 6301   6.228   2.842   2.731
 2099TIP3   OH2 6302   3.463   2.958   5.229
 2099TIP3    H1 6303   3.384   2.905   5.220
 2099TIP3    H2 6304   3.472   2.972   5.324
 2100TIP3   OH2 6305   1.383   1.634   5.172
 2100TIP3    H1 6306   1.346   1.629   5.260
 2100TIP3    H2 6307   1.447   1.562   5.169
 2101TIP3   OH2 6308   2.143   2.506   1.590
 2101TIP3    H1 6309   2.144   2.595   1.627
 2101TIP3    H2 6310   2.114   2.450   1.661
 2102TIP3   OH2 6311   1.555   5.423   4.020
 2102TIP3    H1 6312   1.561   5.487   4.091
 2102TIP3    H2 6313   1.618   5.356   4.043
 2103TIP3   OH2 6314   3.299   2.095   4.137
 2103TIP3    H1 6315   3.373   2.100   4.197
 2103TIP3    H2 6316   3.322   2.155   4.066
 2104TIP3   OH2 6317   1.933   5.202   0.473
 2104TIP3    H1 6318   1.964   5.144   0.403
 2104TIP3    H2 6319   1.915   5.143   0.546
 2105TIP3   OH2 6320   2.777   2.466   4.217
 2105TIP3    H1 6321   2.838   2.448   4.146
 2105TIP3    H2 6322   2.694   2.430   4.186
 2106TIP3   OH2 6323   2.747   4.132   4.523
 2106TIP3    H1 6324   2.667   4.145   4.573
 2106TIP3    H2 6325   2.767   4.039   4.534
 2107TIP3   OH2 6326   6.034   3.896   0.349
 2107TIP3    H1 6327   6.011   3.888   0.257
 2107TIP3    H2 6328   6.038   3.806   0.382
 2108TIP3   OH2 6329   1.771   4.336   3.120
 2108TIP3    H1 6330   1.768   4.260   3.178
 2108TIP3    H2 6331   1.845   4.388   3.151
 2109TIP3   OH2 6332   0.319   2.806   0.427
 2109TIP3    H1 6333   0.340   2.893   0.394
 2109TIP3    H2 6334   0.357   2.746   0.363
 2110TIP3   OH2 6335   1.076   4.433   3.018
 2110TIP3    H1 6336   0.992   4.434   3.065
 2110TIP3    H2 6337   1.138   4.398   3.081
 2111TIP3   OH2 6338   4.109   0.915   0.148
 2111TIP3    H1 6339   4.198   0.912   0.111
 2111TIP3    H2 6340   4.118   0.970   0.226
 2112TIP3   OH2 6341   1.416   3.732   4.084
 2112TIP3    H1 6342   1.476   3.658   4.094
 2112TIP3    H2 6343   1.399   3.737   3.990
 2113TIP3   OH2 6344   2.810   1.596   3.431
 2113TIP3    H1 6345   2.737   1.634   3.382
 2113TIP3    H2 6346   2.861   1.672   3.461
 2114TIP3   OH2 6347   3.100   3.391   4.919
 2114TIP3    H1 6348   3.042   3.404   4.994
 2114TIP3    H2 6349   3.040   3.377   4.845
 2115TIP3   OH2 6350   5.172   5.145   5.034
 2115TIP3    H1 6351   5.166   5.172   5.126
 2115TIP3    H2 6352   5.092   5.096   5.018
 2116TIP3   OH2 6353   4.603   0.472   2.172
 2116TIP3    H1 6354   4.568   0.486   2.084
 2116TIP3    H2 6355   4.638   0.383   2.170
 2117TIP3   OH2 6356   0.144   4.544   2.814
 2117TIP3    H1 6357   0.239   4.557   2.807
 2117TIP3    H2 6358   0.114   4.534   2.724
 2118TIP3   OH2 6359   5.926   0.649   1.893
 2118TIP3    H1 6360   5.979   0.596   1.832
 2118TIP3    H2 6361   5.909   0.730   1.845
 2119TIP3   OH2 6362   5.300   4.298   1.602
 2119TIP3    H1 6363   5.259   4.221   1.565
 2119TIP3    H2 6364   5.231   4.364   1.605
 2120TIP3   OH2 6365   4.170   2.796   0.663
 2120TIP3    H1 6366   4.147   2.729   0.727
 2120TIP3    H2 6367   4.160   2.754   0.578
 2121TIP3   OH2 6368   6.332   4.485   1.824
 2121TIP3    H1 6369   6.407   4.425   1.821
 2121TIP3    H2 6370   6.255   4.428   1.817
 2122TIP3   OH2 6371   2.280   5.419   1.646
 2122TIP3    H1 6372   2.237   5.375   1.719
 2122TIP3    H2 6373   2.286   5.352   1.578
 2123TIP3   OH2 6374   3.169   1.330   0.064
 2123TIP3    H1 6375   3.230   1.375   0.122
 2123TIP3    H2 6376   3.108   1.287   0.124
 2124TIP3   OH2 6377   5.234   4.906   4.126
 2124TIP3    H1 6378   5.212   4.814   4.108
 2124TIP3    H2 6379   5.274   4.904   4.213
 2125TIP3   OH2 6380   2.027   3.436   0.604
 2125TIP3    H1 6381   2.014   3.341   0.593
 2125TIP3    H2 6382   2.110   3.454   0.560
 2126TIP3   OH2 6383   4.962   3.787   3.765
 2126TIP3    H1 6384   4.969   3.691   3.764
 2126TIP3    H2 6385   5.028   3.816   3.702
 2127TIP3   OH2 6386   3.088   1.088   2.303
 2127TIP3    H1 6387   3.037   1.035   2.242
 2127TIP3    H2 6388   3.063   1.057   2.390
 2128TIP3   OH2 6389   4.672   1.528   2.079
 2128TIP3    H1 6390   4.747   1.472   2.060
 2128TIP3    H2 6391   4.693   1.570   2.163
 2129TIP3   OH2 6392   6.027   5.095   0.688
 2129TIP3    H1 6393   5.954   5.106   0.627
 2129TIP3    H2 6394   6.039   5.000   0.695
 2130TIP3   OH2 6395   5.095   2.314   2.730
 2130TIP3    H1 6396   5.079   2.328   2.823
 2130TIP3    H2 6397   5.190   2.313   2.721
 2131TIP3   OH2 6398   0.309   1.828   5.027
 2131TIP3    H1 6399   0.401   1.810   5.045
 2131TIP3    H2 6400   0.284   1.762   4.962
 2132TIP3   OH2 6401   5.417   5.630   3.881
 2132TIP3    H1 6402   5.341   5.585   3.918
 2132TIP3    H2 6403   5.382   5.712   3.846
 2133TIP3   OH2 6404   3.850   5.961   5.066
 2133TIP3    H1 6405   3.772   5.974   5.012
 2133TIP3    H2 6406   3.858   5.865   5.071
 2134TIP3   OH2 6407   0.513   4.082   2.301
 2134TIP3    H1 6408   0.503   4.032   2.220
 2134TIP3    H2 6409   0.457   4.036   2.364
 2135TIP3   OH2 6410   1.126   1.851   4.090
 2135TIP3    H1 6411   1.064   1.787   4.054
 2135TIP3    H2 6412   1.211   1.809   4.081
 2136TIP3   OH2 6413   5.207   5.984   0.841
 2136TIP3    H1 6414   5.278   5.960   0.900
 2136TIP3    H2 6415   5.235   5.952   0.755
 2137TIP3   OH2 6416   3.020   4.406   3.990
 2137TIP3    H1 6417   2.951   4.351   4.028
 2137TIP3    H2 6418   2.974   4.459   3.924
 2138TIP3   OH2 6419   0.034   0.432   2.264
 2138TIP3    H1 6420   0.025   0.462   2.174
 2138TIP3    H2 6421   0.026   0.336   2.258
 2139TIP3   OH2 6422   3.327   2.883   3.551
 2139TIP3    H1 6423   3.354   2.974   3.540
 2139TIP3    H2 6424   3.339   2.866   3.645
 2140TIP3   OH2 6425   1.298   2.250   0.242
 2140TIP3    H1 6426   1.289   2.315   0.312
 2140TIP3    H2 6427   1.259   2.292   0.165
 2141TIP3   OH2 6428   5.608   0.954   5.155
 2141TIP3    H1 6429   5.696   0.952   5.118
 2141TIP3    H2 6430   5.593   0.865   5.187
 2142TIP3   OH2 6431   1.470   5.616   2.031
 2142TIP3    H1 6432   1.484   5.660   1.947
 2142TIP3    H2 6433   1.558   5.587   2.058
 2143TIP3   OH2 6434   4.754   5.304   3.207
 2143TIP3    H1 6435   4.768   5.293   3.301
 2143TIP3    H2 6436   4.778   5.220   3.170
 2144TIP3   OH2 6437   1.824   0.763   2.010
 2144TIP3    H1 6438   1.880   0.840   2.014
 2144TIP3    H2 6439   1.826   0.737   1.918
 2145TIP3   OH2 6440   3.025   4.384   2.174
 2145TIP3    H1 6441   2.994   4.342   2.255
 2145TIP3    H2 6442   2.948   4.385   2.117
 2146TIP3   OH2 6443   4.126   5.696   2.194
 2146TIP3    H1 6444   4.056   5.648   2.238
 2146TIP3    H2 6445   4.132   5.780   2.240
 2147TIP3   OH2 6446   5.819   1.217   2.724
 2147TIP3    H1 6447   5.788   1.228   2.634
 2147TIP3    H2 6448   5.852   1.303   2.748
 2148TIP3   OH2 6449   5.798   4.325   0.171
 2148TIP3    H1 6450   5.703   4.320   0.157
 2148TIP3    H2 6451   5.807   4.362   0.259
 2149TIP3   OH2 6452   0.901   1.834   0.554
 2149TIP3    H1 6453   0.876   1.915   0.510
 2149TIP3    H2 6454   0.970   1.860   0.615
 2150TIP3   OH2 6455   1.737  -0.016   4.643
 2150TIP3    H1 6456   1.782   0.030   4.572
 2150TIP3    H2 6457   1.762   0.032   4.722
 2151TIP3   OH2 6458   2.968   0.927   3.965
 2151TIP3    H1 6459   2.963   0.984   3.889
 2151TIP3    H2 6460   3.045   0.957   4.013
 2152TIP3   OH2 6461   2.803   2.395   2.019
 2152TIP3    H1 6462   2.817   2.489   2.009
 2152TIP3    H2 6463   2.749   2.386   2.097
 2153TIP3   OH2 6464   1.067   3.060   0.548
 2153TIP3    H1 6465   1.104   3.057   0.636
 2153TIP3    H2 6466   1.133   3.106   0.496
 2154TIP3   OH2 6467   4.197   4.776   2.014
 2154TIP3    H1 6468   4.125   4.734   1.968
 2154TIP3    H2 6469   4.226   4.845   1.955
 2155TIP3   OH2 6470   3.228   3.557   5.128
 2155TIP3    H1 6471   3.323   3.549   5.136
 2155TIP3    H2 6472   3.208   3.519   5.042
 2156TIP3   OH2 6473   5.174   0.809   2.149
 2156TIP3    H1 6474   5.107   0.844   2.207
 2156TIP3    H2 6475   5.256   0.818   2.198
 2157TIP3   OH2 6476   6.096   1.393   4.046
 2157TIP3    H1 6477   6.179   1.346   4.057
 2157TIP3    H2 6478   6.049   1.345   3.978
 2158TIP3   OH2 6479   1.587   1.150   2.167
 2158TIP3    H1 6480   1.583   1.233   2.118
 2158TIP3    H2 6481   1.681   1.134   2.179
 2159TIP3   OH2 6482   0.082   4.300   4.749
 2159TIP3    H1 6483   0.077   4.344   4.834
 2159TIP3    H2 6484  -0.004   4.257   4.740
 2160TIP3   OH2 6485   0.964   5.910   1.485
 2160TIP3    H1 6486   1.014   5.974   1.434
 2160TIP3    H2 6487   0.989   5.926   1.576
 2161TIP3   OH2 6488   6.127   0.177   2.170
 2161TIP3    H1 6489   6.060   0.224   2.121
 2161TIP3    H2 6490   6.111   0.202   2.262
 2162TIP3   OH2 6491   4.588   3.205   2.334
 2162TIP3    H1 6492   4.663   3.257   2.304
 2162TIP3    H2 6493   4.628   3.131   2.381
 2163TIP3   OH2 6494   3.469   1.323   4.531
 2163TIP3    H1 6495   3.463   1.288   4.620
 2163TIP3    H2 6496   3.490   1.415   4.543
 2164TIP3   OH2 6497   5.644   4.545   2.138
 2164TIP3    H1 6498   5.739   4.552   2.145
 2164TIP3    H2 6499   5.629   4.455   2.108
 2165TIP3   OH2 6500   2.273   1.531   3.053
 2165TIP3    H1 6501   2.244   1.484   3.131
 2165TIP3    H2 6502   2.196   1.580   3.024
 2166TIP3   OH2 6503   1.727   5.333   1.844
 2166TIP3    H1 6504   1.668   5.273   1.890
 2166TIP3    H2 6505   1.749   5.288   1.763
 2167TIP3   OH2 6506   6.348   5.881   3.491
 2167TIP3    H1 6507   6.330   5.964   3.535
 2167TIP3    H2 6508   6.276   5.823   3.519
 2168TIP3   OH2 6509   1.205   3.278   2.389
 2168TIP3    H1 6510   1.237   3.192   2.414
 2168TIP3    H2 6511   1.180   3.319   2.472
 2169TIP3   OH2 6512   3.837   3.149   1.131
 2169TIP3    H1 6513   3.841   3.068   1.182
 2169TIP3    H2 6514   3.901   3.137   1.061
 2170TIP3   OH2 6515   5.529   5.238   3.140
 2170TIP3    H1 6516   5.454   5.260   3.194
 2170TIP3    H2 6517   5.531   5.307   3.073
 2171TIP3   OH2 6518   4.393   4.189   3.781
 2171TIP3    H1 6519   4.313   4.236   3.802
 2171TIP3    H2 6520   4.403   4.199   3.686
 2172TIP3   OH2 6521   2.624   2.893   3.148
 2172TIP3    H1 6522   2.598   2.801   3.140
 2172TIP3    H2 6523   2.719   2.889   3.163
 2173TIP3   OH2 6524   2.470   0.023   3.208
 2173TIP3    H1 6525   2.495   0.085   3.140
 2173TIP3    H2 6526   2.514   0.055   3.287
 2174TIP3   OH2 6527   2.182   4.604   3.695
 2174TIP3    H1 6528   2.228   4.660   3.633
 2174TIP3    H2 6529   2.173   4.657   3.774
 2175TIP3   OH2 6530   0.351   1.767   1.319
 2175TIP3    H1 6531   0.325   1.763   1.227
 2175TIP3    H2 6532   0.444   1.743   1.319
 2176TIP3   OH2 6533   2.506   4.173   4.670
 2176TIP3    H1 6534   2.525   4.242   4.734
 2176TIP3    H2 6535   2.451   4.111   4.718
 2177TIP3   OH2 6536   0.948   3.566   1.690
 2177TIP3    H1 6537   0.881   3.498   1.698
 2177TIP3    H2 6538   0.986   3.573   1.777
 2178TIP3   OH2 6539   3.447   3.719   1.599
 2178TIP3    H1 6540   3.458   3.678   1.514
 2178TIP3    H2 6541   3.421   3.648   1.657
 2179TIP3   OH2 6542   6.206   3.742   4.502
 2179TIP3    H1 6543   6.169   3.797   4.571
 2179TIP3    H2 6544   6.159   3.769   4.423
 2180TIP3   OH2 6545   2.651   1.307   3.956
 2180TIP3    H1 6546   2.719   1.325   3.892
 2180TIP3    H2 6547   2.679   1.353   4.035
 2181TIP3   OH2 6548   2.457   4.409   1.620
 2181TIP3    H1 6549   2.364   4.410   1.595
 2181TIP3    H2 6550   2.457   4.435   1.713
 2182TIP3   OH2 6551   0.664   0.664   3.778
 2182TIP3    H1 6552   0.604   0.590   3.763
 2182TIP3    H2 6553   0.671   0.707   3.693
 2183TIP3   OH2 6554   2.609   0.974   0.651
 2183TIP3    H1 6555   2.517   0.966   0.675
 2183TIP3    H2 6556   2.641   1.048   0.701
 2184TIP3   OH2 6557   4.230   3.135   3.692
 2184TIP3    H1 6558   4.289   3.130   3.767
 2184TIP3    H2 6559   4.232   3.227   3.665
 2185TIP3   OH2 6560   3.862   1.533   2.927
 2185TIP3    H1 6561   3.807   1.458   2.905
 2185TIP3    H2 6562   3.837   1.601   2.864
 2186TIP3   OH2 6563   0.006   2.637   3.996
 2186TIP3    H1 6564   0.085   2.584   3.996
 2186TIP3    H2 6565  -0.061   2.582   4.037
 2187TIP3   OH2 6566   4.139   2.922   3.539
 2187TIP3    H1 6567   4.188   2.977   3.600
 2187TIP3    H2 6568   4.140   2.972   3.457
 2188TIP3   OH2 6569   0.784   2.939   3.475
 2188TIP3    H1 6570   0.712   2.878   3.486
 2188TIP3    H2 6571   0.764   3.012   3.532
 2189TIP3   OH2 6572   2.562   1.139   5.036
 2189TIP3    H1 6573   2.549   1.123   4.943
 2189TIP3    H2 6574   2.654   1.164   5.043
 2190TIP3   OH2 6575   2.537   2.955   1.632
 2190TIP3    H1 6576   2.602   3.022   1.610
 2190TIP3    H2 6577   2.579   2.872   1.609
 2191TIP3   OH2 6578   1.697   2.455   1.249
 2191TIP3    H1 6579   1.685   2.550   1.241
 2191TIP3    H2 6580   1.786   2.439   1.217
 2192TIP3   OH2 6581   3.980   4.717   4.682
 2192TIP3    H1 6582   3.927   4.728   4.603
 2192TIP3    H2 6583   4.016   4.804   4.698
 2193TIP3   OH2 6584   4.805   0.290   3.450
 2193TIP3    H1 6585   4.736   0.224   3.445
 2193TIP3    H2 6586   4.849   0.272   3.533
 2194TIP3   OH2 6587   1.050   5.729   0.298
 2194TIP3    H1 6588   1.032   5.732   0.392
 2194TIP3    H2 6589   1.056   5.821   0.271
 2195TIP3   OH2 6590   5.779   4.533   0.788
 2195TIP3    H1 6591   5.840   4.509   0.858
 2195TIP3    H2 6592   5.814   4.490   0.710
 2196TIP3   OH2 6593   4.320   2.405   3.306
 2196TIP3    H1 6594   4.347   2.340   3.240
 2196TIP3    H2 6595   4.403   2.443   3.336
 2197TIP3   OH2 6596   2.650   2.050   4.296
 2197TIP3    H1 6597   2.745   2.058   4.308
 2197TIP3    H2 6598   2.613   2.081   4.378
 2198TIP3   OH2 6599   0.670   3.873   1.622
 2198TIP3    H1 6600   0.619   3.900   1.698
 2198TIP3    H2 6601   0.665   3.948   1.562
 2199TIP3   OH2 6602   4.806   5.180   2.431
 2199TIP3    H1 6603   4.895   5.151   2.446
 2199TIP3    H2 6604   4.756   5.100   2.415
 2200TIP3   OH2 6605   1.896   5.176   1.430
 2200TIP3    H1 6606   1.822   5.134   1.474
 2200TIP3    H2 6607   1.910   5.258   1.477
 2201TIP3   OH2 6608   0.947   2.837   4.606
 2201TIP3    H1 6609   0.917   2.898   4.674
 2201TIP3    H2 6610   1.013   2.783   4.650
 2202TIP3   OH2 6611   1.990   3.690   3.728
 2202TIP3    H1 6612   1.966   3.605   3.691
 2202TIP3    H2 6613   1.977   3.752   3.657
 2203TIP3   OH2 6614   5.449   5.692   1.719
 2203TIP3    H1 6615   5.374   5.739   1.755
 2203TIP3    H2 6616   5.493   5.756   1.663
 2204TIP3   OH2 6617   0.539   3.793   4.094
 2204TIP3    H1 6618   0.480   3.864   4.069
 2204TIP3    H2 6619   0.543   3.737   4.017
 2205TIP3   OH2 6620   1.093   1.586   0.853
 2205TIP3    H1 6621   1.132   1.513   0.900
 2205TIP3    H2 6622   1.163   1.651   0.846
 2206TIP3   OH2 6623   1.905   5.667   3.920
 2206TIP3    H1 6624   1.971   5.615   3.874
 2206TIP3    H2 6625   1.931   5.664   4.012
 2207TIP3   OH2 6626   3.275   2.508   3.120
 2207TIP3    H1 6627   3.299   2.422   3.087
 2207TIP3    H2 6628   3.229   2.550   3.047
 2208TIP3   OH2 6629   2.682   2.862   0.307
 2208TIP3    H1 6630   2.667   2.955   0.290
 2208TIP3    H2 6631   2.594   2.826   0.315
 2209TIP3   OH2 6632   2.804   4.606   4.176
 2209TIP3    H1 6633   2.812   4.678   4.238
 2209TIP3    H2 6634   2.881   4.615   4.119
 2210TIP3   OH2 6635   4.935   1.667   4.997
 2210TIP3    H1 6636   4.978   1.588   5.026
 2210TIP3    H2 6637   4.979   1.738   5.044
 2211TIP3   OH2 6638   0.754   3.400   4.220
 2211TIP3    H1 6639   0.738   3.493   4.238
 2211TIP3    H2 6640   0.849   3.393   4.210
 2212TIP3   OH2 6641   1.995   5.215   3.451
 2212TIP3    H1 6642   2.006   5.302   3.413
 2212TIP3    H2 6643   2.061   5.161   3.408
 2213TIP3   OH2 6644   0.712   4.246   5.073
 2213TIP3    H1 6645   0.717   4.341   5.065
 2213TIP3    H2 6646   0.741   4.228   5.163
 2214TIP3   OH2 6647   0.190   1.151   2.474
 2214TIP3    H1 6648   0.260   1.148   2.539
 2214TIP3    H2 6649   0.228   1.195   2.399
 2215TIP3   OH2 6650   4.770   2.367   0.299
 2215TIP3    H1 6651   4.807   2.433   0.359
 2215TIP3    H2 6652   4.712   2.314   0.354
 2216TIP3   OH2 6653   3.445   3.757   1.009
 2216TIP3    H1 6654   3.368   3.716   0.969
 2216TIP3    H2 6655   3.519   3.727   0.957
 2217TIP3   OH2 6656   5.056   5.350   0.271
 2217TIP3    H1 6657   5.132   5.409   0.277
 2217TIP3    H2 6658   5.032   5.334   0.362
 2218TIP3   OH2 6659   1.865   3.162   2.434
 2218TIP3    H1 6660   1.833   3.194   2.349
 2218TIP3    H2 6661   1.880   3.241   2.486
 2219TIP3   OH2 6662   2.022   5.906   4.742
 2219TIP3    H1 6663   2.053   5.851   4.814
 2219TIP3    H2 6664   1.994   5.987   4.785
 2220TIP3   OH2 6665   1.326   0.166   5.015
 2220TIP3    H1 6666   1.266   0.154   4.942
 2220TIP3    H2 6667   1.413   0.149   4.978
 2221TIP3   OH2 6668   4.000   2.458   0.809
 2221TIP3    H1 6669   3.935   2.510   0.762
 2221TIP3    H2 6670   3.957   2.434   0.891
 2222TIP3   OH2 6671   4.850   2.905   4.308
 2222TIP3    H1 6672   4.811   2.857   4.235
 2222TIP3    H2 6673   4.847   2.844   4.381
 2223TIP3   OH2 6674   2.647   2.274   2.848
 2223TIP3    H1 6675   2.593   2.201   2.820
 2223TIP3    H2 6676   2.585   2.345   2.865
 2224TIP3   OH2 6677   0.481   0.147   1.739
 2224TIP3    H1 6678   0.544   0.131   1.809
 2224TIP3    H2 6679   0.396   0.145   1.783
 2225TIP3   OH2 6680   1.312   3.491   1.273
 2225TIP3    H1 6681   1.260   3.452   1.203
 2225TIP3    H2 6682   1.381   3.540   1.227
 2226TIP3   OH2 6683   0.322   3.310   4.633
 2226TIP3    H1 6684   0.403   3.359   4.634
 2226TIP3    H2 6685   0.334   3.242   4.700
 2227TIP3   OH2 6686   6.080   4.539   3.288
 2227TIP3    H1 6687   6.070   4.632   3.267
 2227TIP3    H2 6688   6.136   4.505   3.218
 2228TIP3   OH2 6689   1.102   5.541   2.314
 2228TIP3    H1 6690   1.145   5.492   2.384
 2228TIP3    H2 6691   1.009   5.535   2.335
 2229TIP3   OH2 6692   5.454   2.154   2.609
 2229TIP3    H1 6693   5.496   2.091   2.668
 2229TIP3    H2 6694   5.510   2.153   2.531
 2230TIP3   OH2 6695   3.748   1.517   3.476
 2230TIP3    H1 6696   3.824   1.531   3.533
 2230TIP3    H2 6697   3.780   1.457   3.408
 2231TIP3   OH2 6698   1.952   4.338   1.396
 2231TIP3    H1 6699   1.981   4.266   1.451
 2231TIP3    H2 6700   2.028   4.396   1.390
 2232TIP3   OH2 6701   3.233   1.183   1.173
 2232TIP3    H1 6702   3.258   1.211   1.261
 2232TIP3    H2 6703   3.287   1.105   1.157
 2233TIP3   OH2 6704   1.849   5.063   4.756
 2233TIP3    H1 6705   1.859   4.969   4.769
 2233TIP3    H2 6706   1.757   5.081   4.777
 2234TIP3   OH2 6707   1.230   4.905   2.524
 2234TIP3    H1 6708   1.262   4.859   2.602
 2234TIP3    H2 6709   1.192   4.836   2.470
 2235TIP3   OH2 6710   0.005   3.923   4.925
 2235TIP3    H1 6711  -0.029   4.003   4.965
 2235TIP3    H2 6712   0.080   3.952   4.873
 2236TIP3   OH2 6713   4.309   1.939   1.951
 2236TIP3    H1 6714   4.402   1.928   1.974
 2236TIP3    H2 6715   4.262   1.914   2.030
 2237TIP3   OH2 6716   1.271   5.696   3.156
 2237TIP3    H1 6717   1.230   5.628   3.209
 2237TIP3    H2 6718   1.273   5.660   3.067
 2238TIP3   OH2 6719   2.958   0.221   1.465
 2238TIP3    H1 6720   2.891   0.230   1.533
 2238TIP3    H2 6721   3.040   0.238   1.511
 2239TIP3   OH2 6722  -0.044   2.756   4.481
 2239TIP3    H1 6723  -0.068   2.748   4.389
 2239TIP3    H2 6724   0.030   2.817   4.482
 2240TIP3   OH2 6725   2.634   4.943   0.189
 2240TIP3    H1 6726   2.678   5.028   0.190
 2240TIP3    H2 6727   2.623   4.923   0.096
 2241TIP3   OH2 6728   4.493   3.409   4.064
 2241TIP3    H1 6729   4.403   3.393   4.037
 2241TIP3    H2 6730   4.495   3.501   4.089
 2242TIP3   OH2 6731   5.609   1.556   3.919
 2242TIP3    H1 6732   5.621   1.465   3.946
 2242TIP3    H2 6733   5.685   1.575   3.865
 2243TIP3   OH2 6734   0.053   2.219   4.333
 2243TIP3    H1 6735   0.119   2.180   4.275
 2243TIP3    H2 6736  -0.021   2.159   4.328
 2244TIP3   OH2 6737   1.238   3.481   0.799
 2244TIP3    H1 6738   1.159   3.429   0.787
 2244TIP3    H2 6739   1.307   3.430   0.756
 2245TIP3   OH2 6740   0.821   0.159   5.083
 2245TIP3    H1 6741   0.754   0.225   5.066
 2245TIP3    H2 6742   0.854   0.135   4.997
 2246TIP3   OH2 6743   3.361   2.879   1.077
 2246TIP3    H1 6744   3.326   2.901   0.991
 2246TIP3    H2 6745   3.446   2.838   1.059
 2247TIP3   OH2 6746   2.209   0.128   3.270
 2247TIP3    H1 6747   2.253   0.212   3.263
 2247TIP3    H2 6748   2.260   0.069   3.214
 2248TIP3   OH2 6749   0.119   5.847   1.013
 2248TIP3    H1 6750   0.053   5.779   1.002
 2248TIP3    H2 6751   0.188   5.823   0.952
 2249TIP3   OH2 6752   4.894   4.232   5.006
 2249TIP3    H1 6753   4.989   4.230   5.012
 2249TIP3    H2 6754   4.876   4.232   4.912
 2250TIP3   OH2 6755   0.275   3.847   1.768
 2250TIP3    H1 6756   0.216   3.805   1.705
 2250TIP3    H2 6757   0.221   3.865   1.844
 2251TIP3   OH2 6758   2.973   3.432   4.666
 2251TIP3    H1 6759   2.907   3.474   4.611
 2251TIP3    H2 6760   3.014   3.367   4.609
 2252TIP3   OH2 6761   1.934   3.775   4.322
 2252TIP3    H1 6762   1.883   3.729   4.255
 2252TIP3    H2 6763   1.975   3.847   4.274
 2253TIP3   OH2 6764   3.137   2.024   0.729
 2253TIP3    H1 6765   3.065   2.058   0.676
 2253TIP3    H2 6766   3.095   1.993   0.809
 2254TIP3   OH2 6767   3.399   5.787   1.800
 2254TIP3    H1 6768   3.455   5.856   1.765
 2254TIP3    H2 6769   3.333   5.772   1.732
 2255TIP3   OH2 6770   4.227   2.373   4.348
 2255TIP3    H1 6771   4.269   2.404   4.268
 2255TIP3    H2 6772   4.233   2.447   4.408
 2256TIP3   OH2 6773   6.074   2.230   4.573
 2256TIP3    H1 6774   5.991   2.222   4.621
 2256TIP3    H2 6775   6.130   2.281   4.631
 2257TIP3   OH2 6776   4.155   0.957   4.991
 2257TIP3    H1 6777   4.113   1.000   5.065
 2257TIP3    H2 6778   4.138   0.864   5.004
 2258TIP3   OH2 6779   4.824   5.300   4.660
 2258TIP3    H1 6780   4.807   5.393   4.670
 2258TIP3    H2 6781   4.914   5.295   4.629
 2259TIP3   OH2 6782   1.604   3.785   4.504
 2259TIP3    H1 6783   1.672   3.758   4.566
 2259TIP3    H2 6784   1.646   3.777   4.418
 2260TIP3   OH2 6785   0.896   2.390   3.479
 2260TIP3    H1 6786   0.913   2.373   3.572
 2260TIP3    H2 6787   0.828   2.458   3.479
 2261TIP3   OH2 6788   0.792   5.334   0.652
 2261TIP3    H1 6789   0.803   5.241   0.631
 2261TIP3    H2 6790   0.793   5.337   0.748
 2262TIP3   OH2 6791   0.823   0.238   1.621
 2262TIP3    H1 6792   0.884   0.252   1.548
 2262TIP3    H2 6793   0.827   0.319   1.672
 2263TIP3   OH2 6794   3.188   3.259   2.511
 2263TIP3    H1 6795   3.188   3.168   2.542
 2263TIP3    H2 6796   3.273   3.293   2.538
 2264TIP3   OH2 6797   4.112   1.201   2.439
 2264TIP3    H1 6798   4.078   1.138   2.376
 2264TIP3    H2 6799   4.051   1.275   2.434
 2265TIP3   OH2 6800   0.914   1.656   3.089
 2265TIP3    H1 6801   0.837   1.649   3.145
 2265TIP3    H2 6802   0.972   1.585   3.119
 2266TIP3   OH2 6803   0.077   0.112   3.538
 2266TIP3    H1 6804   0.094   0.078   3.625
 2266TIP3    H2 6805   0.073   0.035   3.482
 2267TIP3   OH2 6806   5.481   1.333   0.395
 2267TIP3    H1 6807   5.568   1.357   0.427
 2267TIP3    H2 6808   5.423   1.348   0.469
 2268TIP3   OH2 6809   4.001   5.724   0.864
 2268TIP3    H1 6810   4.030   5.733   0.773
 2268TIP3    H2 6811   3.910   5.751   0.863
 2269TIP3   OH2 6812   3.526   3.959   5.070
 2269TIP3    H1 6813   3.511   3.917   4.986
 2269TIP3    H2 6814   3.449   3.938   5.122
 2270TIP3   OH2 6815   1.659   2.703   4.554
 2270TIP3    H1 6816   1.661   2.781   4.499
 2270TIP3    H2 6817   1.572   2.703   4.593
 2271TIP3   OH2 6818   4.434   1.668   4.798
 2271TIP3    H1 6819   4.466   1.581   4.776
 2271TIP3    H2 6820   4.403   1.660   4.888
 2272TIP3   OH2 6821   3.090   2.270   2.727
 2272TIP3    H1 6822   3.017   2.330   2.743
 2272TIP3    H2 6823   3.120   2.294   2.639
 2273TIP3   OH2 6824   5.983   0.935   2.462
 2273TIP3    H1 6825   6.011   0.843   2.459
 2273TIP3    H2 6826   5.990   0.960   2.554
 2274TIP3   OH2 6827   1.979   0.303   0.478
 2274TIP3    H1 6828   2.063   0.258   0.472
 2274TIP3    H2 6829   1.914   0.236   0.457
 2275TIP3   OH2 6830   5.656   0.545   5.073
 2275TIP3    H1 6831   5.565   0.562   5.098
 2275TIP3    H2 6832   5.663   0.450   5.071
 2276TIP3   OH2 6833   3.674   2.375   3.009
 2276TIP3    H1 6834   3.698   2.460   3.046
 2276TIP3    H2 6835   3.599   2.347   3.061
 2277TIP3   OH2 6836   5.629   2.394   2.288
 2277TIP3    H1 6837   5.683   2.328   2.331
 2277TIP3    H2 6838   5.586   2.348   2.217
 2278TIP3   OH2 6839   2.723   2.628   2.975
 2278TIP3    H1 6840   2.655   2.603   3.038
 2278TIP3    H2 6841   2.695   2.588   2.892
 2279TIP3   OH2 6842   3.610   1.329   0.621
 2279TIP3    H1 6843   3.664   1.280   0.682
 2279TIP3    H2 6844   3.526   1.284   0.620
 2280TIP3   OH2 6845   4.417   2.984   3.392
 2280TIP3    H1 6846   4.508   2.960   3.409
 2280TIP3    H2 6847   4.413   3.077   3.416
 2281TIP3   OH2 6848   5.809   2.291   1.034
 2281TIP3    H1 6849   5.762   2.244   0.965
 2281TIP3    H2 6850   5.843   2.222   1.091
 2282TIP3   OH2 6851   2.720   2.293   0.755
 2282TIP3    H1 6852   2.749   2.349   0.827
 2282TIP3    H2 6853   2.708   2.352   0.681
 2283TIP3   OH2 6854   0.080   5.858   2.986
 2283TIP3    H1 6855   0.032   5.822   2.912
 2283TIP3    H2 6856   0.043   5.814   3.062
 2284TIP3   OH2 6857   0.640   3.385   2.641
 2284TIP3    H1 6858   0.672   3.459   2.693
 2284TIP3    H2 6859   0.657   3.409   2.550
 2285TIP3   OH2 6860   2.308   4.906   4.303
 2285TIP3    H1 6861   2.253   4.887   4.379
 2285TIP3    H2 6862   2.334   4.820   4.269
 2286TIP3   OH2 6863   1.745   5.407   3.459
 2286TIP3    H1 6864   1.655   5.409   3.427
 2286TIP3    H2 6865   1.776   5.319   3.437
 2287TIP3   OH2 6866   4.665   0.123   3.136
 2287TIP3    H1 6867   4.747   0.151   3.095
 2287TIP3    H2 6868   4.649   0.036   3.099
 2288TIP3   OH2 6869   4.695   2.019   5.000
 2288TIP3    H1 6870   4.648   2.080   5.057
 2288TIP3    H2 6871   4.685   2.054   4.912
 2289TIP3   OH2 6872   1.237   4.762   1.837
 2289TIP3    H1 6873   1.257   4.807   1.755
 2289TIP3    H2 6874   1.142   4.745   1.832
 2290TIP3   OH2 6875   4.188   3.298   4.965
 2290TIP3    H1 6876   4.218   3.376   5.012
 2290TIP3    H2 6877   4.264   3.271   4.913
 2291TIP3   OH2 6878   2.203   1.712   1.640
 2291TIP3    H1 6879   2.287   1.694   1.599
 2291TIP3    H2 6880   2.141   1.717   1.568
 2292TIP3   OH2 6881   2.400   0.396   0.916
 2292TIP3    H1 6882   2.347   0.460   0.870
 2292TIP3    H2 6883   2.383   0.313   0.871
 2293TIP3   OH2 6884   2.150   2.730   0.139
 2293TIP3    H1 6885   2.170   2.659   0.199
 2293TIP3    H2 6886   2.066   2.765   0.170
 2294TIP3   OH2 6887   5.560   0.169   0.006
 2294TIP3    H1 6888   5.468   0.186  -0.011
 2294TIP3    H2 6889   5.573   0.191   0.098
 2295TIP3   OH2 6890   6.276   3.362   4.713
 2295TIP3    H1 6891   6.345   3.423   4.740
 2295TIP3    H2 6892   6.260   3.384   4.621
 2296TIP3   OH2 6893   6.014   1.137   3.951
 2296TIP3    H1 6894   5.928   1.107   3.921
 2296TIP3    H2 6895   6.048   1.064   4.003
 2297TIP3   OH2 6896   0.513   2.927   2.122
 2297TIP3    H1 6897   0.456   2.875   2.065
 2297TIP3    H2 6898   0.475   2.916   2.209
 2298TIP3   OH2 6899   3.694   5.018   0.786
 2298TIP3    H1 6900   3.786   4.993   0.786
 2298TIP3    H2 6901   3.648   4.940   0.818
 2299TIP3   OH2 6902   4.265   3.012   3.061
 2299TIP3    H1 6903   4.232   3.023   2.972
 2299TIP3    H2 6904   4.222   3.081   3.111
 2300TIP3   OH2 6905   4.512   5.705   3.184
 2300TIP3    H1 6906   4.500   5.678   3.276
 2300TIP3    H2 6907   4.525   5.622   3.137
 2301TIP3   OH2 6908   0.127   2.112   0.899
 2301TIP3    H1 6909   0.201   2.059   0.870
 2301TIP3    H2 6910   0.135   2.194   0.851
 2302TIP3   OH2 6911   2.980   1.106   3.288
 2302TIP3    H1 6912   2.995   1.190   3.331
 2302TIP3    H2 6913   2.925   1.057   3.349
 2303TIP3   OH2 6914   0.126   1.752   1.489
 2303TIP3    H1 6915   0.049   1.700   1.466
 2303TIP3    H2 6916   0.157   1.786   1.405
 2304TIP3   OH2 6917   1.348   1.853   1.104
 2304TIP3    H1 6918   1.362   1.876   1.195
 2304TIP3    H2 6919   1.416   1.788   1.084
 2305TIP3   OH2 6920   0.231   5.608   4.575
 2305TIP3    H1 6921   0.210   5.551   4.501
 2305TIP3    H2 6922   0.150   5.656   4.593
 2306TIP3   OH2 6923   5.787   0.971   4.091
 2306TIP3    H1 6924   5.736   1.043   4.054
 2306TIP3    H2 6925   5.855   1.013   4.144
 2307TIP3   OH2 6926   4.043   5.387   4.027
 2307TIP3    H1 6927   4.005   5.344   4.103
 2307TIP3    H2 6928   4.063   5.476   4.057
 2308TIP3   OH2 6929   2.714   4.177   3.127
 2308TIP3    H1 6930   2.804   4.155   3.105
 2308TIP3    H2 6931   2.675   4.094   3.154
 2309TIP3   OH2 6932   4.138   5.283   0.035
 2309TIP3    H1 6933   4.211   5.269   0.095
 2309TIP3    H2 6934   4.177   5.277  -0.052
 2310TIP3   OH2 6935   3.236   1.347   3.226
 2310TIP3    H1 6936   3.326   1.317   3.238
 2310TIP3    H2 6937   3.229   1.367   3.133
 2311TIP3   OH2 6938   4.077   4.166   0.480
 2311TIP3    H1 6939   4.025   4.085   0.475
 2311TIP3    H2 6940   4.015   4.232   0.510
 2312TIP3   OH2 6941   3.588   4.363   3.802
 2312TIP3    H1 6942   3.564   4.361   3.895
 2312TIP3    H2 6943   3.636   4.282   3.787
 2313TIP3   OH2 6944   0.999   0.960   3.118
 2313TIP3    H1 6945   0.954   0.949   3.202
 2313TIP3    H2 6946   0.939   0.920   3.055
 2314TIP3   OH2 6947   1.667   5.165   4.190
 2314TIP3    H1 6948   1.722   5.109   4.245
 2314TIP3    H2 6949   1.706   5.159   4.103
 2315TIP3   OH2 6950   3.854   0.316   0.999
 2315TIP3    H1 6951   3.885   0.239   0.951
 2315TIP3    H2 6952   3.862   0.292   1.091
 2316TIP3   OH2 6953   1.084   2.670   5.187
 2316TIP3    H1 6954   1.162   2.695   5.237
 2316TIP3    H2 6955   1.117   2.614   5.117
 2317TIP3   OH2 6956   1.313   0.692   1.080
 2317TIP3    H1 6957   1.259   0.718   1.155
 2317TIP3    H2 6958   1.389   0.751   1.083
 2318TIP3   OH2 6959   4.554   3.501   2.796
 2318TIP3    H1 6960   4.602   3.475   2.717
 2318TIP3    H2 6961   4.508   3.580   2.770
 2319TIP3   OH2 6962   2.151   3.661   4.490
 2319TIP3    H1 6963   2.107   3.585   4.452
 2319TIP3    H2 6964   2.134   3.732   4.428
 2320TIP3   OH2 6965   6.285   2.158   3.797
 2320TIP3    H1 6966   6.273   2.157   3.892
 2320TIP3    H2 6967   6.229   2.087   3.765
 2321TIP3   OH2 6968   0.709   4.781   2.955
 2321TIP3    H1 6969   0.683   4.867   2.924
 2321TIP3    H2 6970   0.802   4.775   2.935
 2322TIP3   OH2 6971   3.311   1.781   4.988
 2322TIP3    H1 6972   3.336   1.708   4.932
 2322TIP3    H2 6973   3.255   1.741   5.055
 2323TIP3   OH2 6974   4.214   5.116   1.971
 2323TIP3    H1 6975   4.268   5.068   2.035
 2323TIP3    H2 6976   4.259   5.200   1.961
 2324TIP3   OH2 6977   5.207   2.937   0.979
 2324TIP3    H1 6978   5.211   2.970   0.889
 2324TIP3    H2 6979   5.200   2.842   0.969
 2325TIP3   OH2 6980   2.058   3.654   1.867
 2325TIP3    H1 6981   1.997   3.583   1.884
 2325TIP3    H2 6982   2.092   3.678   1.953
 2326TIP3   OH2 6983   4.313   0.569   0.752
 2326TIP3    H1 6984   4.397   0.583   0.794
 2326TIP3    H2 6985   4.334   0.533   0.666
 2327TIP3   OH2 6986   2.391   2.384   3.760
 2327TIP3    H1 6987   2.404   2.291   3.778
 2327TIP3    H2 6988   2.418   2.395   3.669
 2328TIP3   OH2 6989   3.248   4.326   0.100
 2328TIP3    H1 6990   3.296   4.283   0.029
 2328TIP3    H2 6991   3.297   4.406   0.117
 2329TIP3   OH2 6992   0.479   2.601   4.963
 2329TIP3    H1 6993   0.498   2.510   4.941
 2329TIP3    H2 6994   0.521   2.652   4.893
 2330TIP3   OH2 6995   2.357   0.457   1.946
 2330TIP3    H1 6996   2.306   0.507   1.883
 2330TIP3    H2 6997   2.340   0.500   2.030
 2331TIP3   OH2 6998   3.570   2.204   1.435
 2331TIP3    H1 6999   3.521   2.259   1.497
 2331TIP3    H2 7000   3.647   2.176   1.484
 2332TIP3   OH2 7001   0.551   1.561   1.200
 2332TIP3    H1 7002   0.533   1.484   1.147
 2332TIP3    H2 7003   0.613   1.612   1.148
 2333TIP3   OH2 7004   0.954   2.302   1.585
 2333TIP3    H1 7005   0.912   2.336   1.664
 2333TIP3    H2 7006   0.921   2.357   1.514
 2334TIP3   OH2 7007   2.192   5.059   0.547
 2334TIP3    H1 7008   2.150   5.064   0.461
 2334TIP3    H2 7009   2.286   5.057   0.528
 2335TIP3   OH2 7010   4.817   1.723   2.579
 2335TIP3    H1 7011   4.828   1.667   2.655
 2335TIP3    H2 7012   4.905   1.751   2.556
 2336TIP3   OH2 7013   0.718   4.388   2.034
 2336TIP3    H1 7014   0.763   4.313   1.994
 2336TIP3    H2 7015   0.769   4.464   2.006
 2337TIP3   OH2 7016   1.772   2.554   3.789
 2337TIP3    H1 7017   1.806   2.526   3.874
 2337TIP3    H2 7018   1.849   2.556   3.732
 2338TIP3   OH2 7019   6.076   2.037   1.069
 2338TIP3    H1 7020   6.103   1.987   1.146
 2338TIP3    H2 7021   6.037   1.972   1.011
 2339TIP3   OH2 7022   0.269   3.221   2.528
 2339TIP3    H1 7023   0.334   3.208   2.459
 2339TIP3    H2 7024   0.219   3.140   2.530
 2340TIP3   OH2 7025   2.889   2.005   0.349
 2340TIP3    H1 7026   2.828   2.045   0.286
 2340TIP3    H2 7027   2.876   2.055   0.429
 2341TIP3   OH2 7028   4.604   5.487   3.746
 2341TIP3    H1 7029   4.552   5.427   3.800
 2341TIP3    H2 7030   4.608   5.444   3.661
 2342TIP3   OH2 7031   0.576   4.386   4.254
 2342TIP3    H1 7032   0.591   4.481   4.255
 2342TIP3    H2 7033   0.597   4.358   4.343
 2343TIP3   OH2 7034   1.660   3.353   3.609
 2343TIP3    H1 7035   1.672   3.258   3.605
 2343TIP3    H2 7036   1.570   3.365   3.637
 2344TIP3   OH2 7037   6.360   4.838   5.099
 2344TIP3    H1 7038   6.287   4.814   5.155
 2344TIP3    H2 7039   6.321   4.891   5.029
 2345TIP3   OH2 7040   0.371   2.814   3.834
 2345TIP3    H1 7041   0.455   2.777   3.862
 2345TIP3    H2 7042   0.307   2.745   3.855
 2346TIP3   OH2 7043   3.853   5.748   3.780
 2346TIP3    H1 7044   3.820   5.696   3.853
 2346TIP3    H2 7045   3.881   5.683   3.715
 2347TIP3   OH2 7046   5.761   4.634   1.751
 2347TIP3    H1 7047   5.801   4.548   1.737
 2347TIP3    H2 7048   5.823   4.680   1.808
 2348TIP3   OH2 7049   0.617   0.130   1.996
 2348TIP3    H1 7050   0.549   0.112   2.061
 2348TIP3    H2 7051   0.684   0.180   2.043
 2349TIP3   OH2 7052   4.835   0.744   2.447
 2349TIP3    H1 7053   4.777   0.820   2.438
 2349TIP3    H2 7054   4.779   0.674   2.481
 2350TIP3   OH2 7055   5.701   2.693   0.752
 2350TIP3    H1 7056   5.701   2.684   0.657
 2350TIP3    H2 7057   5.664   2.611   0.785
 2351TIP3   OH2 7058   4.284   1.955   2.676
 2351TIP3    H1 7059   4.307   2.043   2.647
 2351TIP3    H2 7060   4.272   1.962   2.771
 2352TIP3   OH2 7061   0.390   3.884   2.116
 2352TIP3    H1 7062   0.409   3.793   2.096
 2352TIP3    H2 7063   0.312   3.905   2.064
 2353TIP3   OH2 7064   4.479   0.459   3.811
 2353TIP3    H1 7065   4.546   0.475   3.745
 2353TIP3    H2 7066   4.519   0.394   3.869
 2354TIP3   OH2 7067   6.016   2.524   4.927
 2354TIP3    H1 7068   6.069   2.446   4.936
 2354TIP3    H2 7069   5.994   2.528   4.834
 2355TIP3   OH2 7070   2.904   5.701   2.539
 2355TIP3    H1 7071   2.851   5.748   2.474
 2355TIP3    H2 7072   2.840   5.657   2.594
 2356TIP3   OH2 7073   1.562   5.353   4.381
 2356TIP3    H1 7074   1.565   5.419   4.311
 2356TIP3    H2 7075   1.609   5.278   4.345
 2357TIP3   OH2 7076   6.319   4.845   2.125
 2357TIP3    H1 7077   6.321   4.870   2.033
 2357TIP3    H2 7078   6.241   4.890   2.160
 2358TIP3   OH2 7079   3.841   5.409   1.737
 2358TIP3    H1 7080   3.775   5.344   1.714
 2358TIP3    H2 7081   3.899   5.363   1.798
 2359TIP3   OH2 7082   5.769   3.306   1.645
 2359TIP3    H1 7083   5.858   3.339   1.638
 2359TIP3    H2 7084   5.764   3.236   1.580
 2360TIP3   OH2 7085   6.131   3.180   4.142
 2360TIP3    H1 7086   6.101   3.270   4.157
 2360TIP3    H2 7087   6.113   3.163   4.050
 2361TIP3   OH2 7088   5.692   0.868   4.362
 2361TIP3    H1 7089   5.751   0.942   4.375
 2361TIP3    H2 7090   5.661   0.878   4.272
 2362TIP3   OH2 7091   3.602   5.300   2.453
 2362TIP3    H1 7092   3.672   5.234   2.443
 2362TIP3    H2 7093   3.535   5.272   2.390
 2363TIP3   OH2 7094   3.688   1.018   0.445
 2363TIP3    H1 7095   3.641   0.984   0.521
 2363TIP3    H2 7096   3.776   0.981   0.453
 2364TIP3   OH2 7097   5.157   2.849   2.964
 2364TIP3    H1 7098   5.155   2.939   2.931
 2364TIP3    H2 7099   5.083   2.845   3.026
 2365TIP3   OH2 7100   0.021   5.683   3.183
 2365TIP3    H1 7101  -0.019   5.621   3.244
 2365TIP3    H2 7102   0.093   5.721   3.232
 2366TIP3   OH2 7103   4.214   0.587   1.973
 2366TIP3    H1 7104   4.136   0.625   2.014
 2366TIP3    H2 7105   4.208   0.493   1.993
 2367TIP3   OH2 7106   2.298   3.783   3.543
 2367TIP3    H1 7107   2.355   3.730   3.598
 2367TIP3    H2 7108   2.220   3.729   3.531
 2368TIP3   OH2 7109   1.631   3.620   1.928
 2368TIP3    H1 7110   1.688   3.553   1.889
 2368TIP3    H2 7111   1.593   3.666   1.853
 2369TIP3   OH2 7112   4.330   3.290   0.649
 2369TIP3    H1 7113   4.256   3.346   0.669
 2369TIP3    H2 7114   4.292   3.202   0.641
 2370TIP3   OH2 7115   2.757   5.566   3.459
 2370TIP3    H1 7116   2.798   5.526   3.535
 2370TIP3    H2 7117   2.729   5.653   3.489
 2371TIP3   OH2 7118   4.944   2.989   1.725
 2371TIP3    H1 7119   4.939   2.932   1.648
 2371TIP3    H2 7120   4.862   2.974   1.772
 2372TIP3   OH2 7121   1.346   4.036   4.661
 2372TIP3    H1 7122   1.294   4.116   4.670
 2372TIP3    H2 7123   1.398   4.032   4.741
 2373TIP3   OH2 7124   2.773   2.130   3.943
 2373TIP3    H1 7125   2.722   2.088   3.874
 2373TIP3    H2 7126   2.778   2.063   4.012
 2374TIP3   OH2 7127   3.773   5.305   3.121
 2374TIP3    H1 7128   3.754   5.278   3.031
 2374TIP3    H2 7129   3.725   5.387   3.132
 2375TIP3   OH2 7130   2.879   2.192   2.199
 2375TIP3    H1 7131   2.790   2.178   2.168
 2375TIP3    H2 7132   2.874   2.272   2.251
 2376TIP3   OH2 7133   5.247   1.208   3.005
 2376TIP3    H1 7134   5.272   1.248   2.921
 2376TIP3    H2 7135   5.213   1.122   2.980
 2377TIP3   OH2 7136   2.525   1.977   0.483
 2377TIP3    H1 7137   2.513   2.003   0.574
 2377TIP3    H2 7138   2.589   1.906   0.487
 2378TIP3   OH2 7139   1.424   3.066   3.648
 2378TIP3    H1 7140   1.437   3.095   3.738
 2378TIP3    H2 7141   1.349   3.007   3.652
 2379TIP3   OH2 7142   3.166   4.472   3.065
 2379TIP3    H1 7143   3.101   4.503   3.128
 2379TIP3    H2 7144   3.115   4.437   2.992
 2380TIP3   OH2 7145   5.025   4.290   3.890
 2380TIP3    H1 7146   5.094   4.329   3.837
 2380TIP3    H2 7147   5.021   4.199   3.860
 2381TIP3   OH2 7148   3.125   0.567   1.427
 2381TIP3    H1 7149   3.125   0.519   1.510
 2381TIP3    H2 7150   3.151   0.502   1.362
 2382TIP3   OH2 7151   0.869   5.497   4.747
 2382TIP3    H1 7152   0.954   5.472   4.711
 2382TIP3    H2 7153   0.867   5.456   4.834
 2383TIP3   OH2 7154   5.880   0.846   1.333
 2383TIP3    H1 7155   5.871   0.855   1.238
 2383TIP3    H2 7156   5.959   0.896   1.354
 2384TIP3   OH2 7157   0.902   1.579   4.308
 2384TIP3    H1 7158   0.985   1.544   4.339
 2384TIP3    H2 7159   0.894   1.664   4.352
 2385TIP3   OH2 7160   4.646   3.485   3.062
 2385TIP3    H1 7161   4.720   3.543   3.044
 2385TIP3    H2 7162   4.590   3.492   2.985
 2386TIP3   OH2 7163   2.662   3.293   4.778
 2386TIP3    H1 7164   2.589   3.271   4.837
 2386TIP3    H2 7165   2.620   3.330   4.700
 2387TIP3   OH2 7166   0.712   3.254   0.923
 2387TIP3    H1 7167   0.700   3.229   1.014
 2387TIP3    H2 7168   0.725   3.349   0.925
 2388TIP3   OH2 7169   0.118   1.277   0.073
 2388TIP3    H1 7170   0.193   1.312   0.121
 2388TIP3    H2 7171   0.155   1.245  -0.009
 2389TIP3   OH2 7172   2.272   2.151   1.736
 2389TIP3    H1 7173   2.273   2.110   1.650
 2389TIP3    H2 7174   2.210   2.099   1.787
 2390TIP3   OH2 7175   1.070   2.727   2.543
 2390TIP3    H1 7176   1.048   2.652   2.598
 2390TIP3    H2 7177   1.004   2.793   2.564
 2391TIP3   OH2 7178   5.226   2.552   1.764
 2391TIP3    H1 7179   5.310   2.587   1.794
 2391TIP3    H2 7180   5.241   2.529   1.672
 2392TIP3   OH2 7181   3.709   2.575   3.692
 2392TIP3    H1 7182   3.712   2.494   3.641
 2392TIP3    H2 7183   3.772   2.633   3.649
 2393TIP3   OH2 7184   3.314   1.044   2.820
 2393TIP3    H1 7185   3.244   0.979   2.824
 2393TIP3    H2 7186   3.300   1.089   2.737
 2394TIP3   OH2 7187   5.109   3.129   1.476
 2394TIP3    H1 7188   5.141   3.132   1.386
 2394TIP3    H2 7189   5.132   3.041   1.507
 2395TIP3   OH2 7190   2.595   2.397   1.360
 2395TIP3    H1 7191   2.657   2.470   1.361
 2395TIP3    H2 7192   2.637   2.329   1.413
 2396TIP3   OH2 7193   5.048   3.103   5.091
 2396TIP3    H1 7194   5.059   3.171   5.157
 2396TIP3    H2 7195   4.969   3.056   5.117
 2397TIP3   OH2 7196   5.633   4.018   0.159
 2397TIP3    H1 7197   5.710   3.976   0.197
 2397TIP3    H2 7198   5.562   3.999   0.221
 2398TIP3   OH2 7199   4.288   5.836   3.407
 2398TIP3    H1 7200   4.246   5.832   3.321
 2398TIP3    H2 7201   4.357   5.769   3.402
 2399TIP3   OH2 7202   0.054   0.107   5.090
 2399TIP3    H1 7203  -0.026   0.093   5.141
 2399TIP3    H2 7204   0.025   0.153   5.012
 2400TIP3   OH2 7205   0.378   2.964   3.190
 2400TIP3    H1 7206   0.299   2.914   3.211
 2400TIP3    H2 7207   0.410   2.996   3.274
 2401TIP3   OH2 7208   4.242   2.071   3.751
 2401TIP3    H1 7209   4.235   2.106   3.840
 2401TIP3    H2 7210   4.259   2.148   3.697
 2402TIP3   OH2 7211   2.848   5.232   0.705
 2402TIP3    H1 7212   2.828   5.305   0.646
 2402TIP3    H2 7213   2.940   5.244   0.727
 2403TIP3   OH2 7214   5.844   1.167   0.925
 2403TIP3    H1 7215   5.779   1.100   0.903
 2403TIP3    H2 7216   5.834   1.181   1.019
 2404TIP3   OH2 7217   5.776   1.427   5.032
 2404TIP3    H1 7218   5.771   1.496   4.965
 2404TIP3    H2 7219   5.689   1.426   5.072
 2405TIP3   OH2 7220   1.965   0.978   1.994
 2405TIP3    H1 7221   1.986   1.045   2.059
 2405TIP3    H2 7222   2.009   1.009   1.914
 2406TIP3   OH2 7223   2.717   2.645   2.457
 2406TIP3    H1 7224   2.699   2.673   2.367
 2406TIP3    H2 7225   2.699   2.723   2.510
 2407TIP3   OH2 7226   6.279   3.400   2.681
 2407TIP3    H1 7227   6.190   3.436   2.675
 2407TIP3    H2 7228   6.281   3.332   2.615
 2408TIP3   OH2 7229   6.217   0.691   0.101
 2408TIP3    H1 7230   6.122   0.680   0.097
 2408TIP3    H2 7231   6.239   0.675   0.193
 2409TIP3   OH2 7232   5.713   1.772   3.704
 2409TIP3    H1 7233   5.757   1.830   3.766
 2409TIP3    H2 7234   5.775   1.764   3.631
 2410TIP3   OH2 7235   5.912   2.262   2.646
 2410TIP3    H1 7236   5.922   2.215   2.563
 2410TIP3    H2 7237   6.001   2.270   2.680
 2411TIP3   OH2 7238   1.126   5.866   2.201
 2411TIP3    H1 7239   1.144   5.798   2.266
 2411TIP3    H2 7240   1.205   5.920   2.200
 2412TIP3   OH2 7241   1.263   0.907   0.652
 2412TIP3    H1 7242   1.199   0.911   0.582
 2412TIP3    H2 7243   1.218   0.942   0.729
 2413TIP3   OH2 7244   0.127   3.730   4.536
 2413TIP3    H1 7245   0.155   3.663   4.473
 2413TIP3    H2 7246   0.032   3.725   4.535
 2414TIP3   OH2 7247   1.354   0.499   4.549
 2414TIP3    H1 7248   1.436   0.487   4.501
 2414TIP3    H2 7249   1.355   0.591   4.576
 2415TIP3   OH2 7250   6.008   4.850   3.275
 2415TIP3    H1 7251   5.922   4.831   3.310
 2415TIP3    H2 7252   6.004   4.821   3.183
 2416TIP3   OH2 7253   2.033   4.673   3.938
 2416TIP3    H1 7254   2.024   4.725   4.017
 2416TIP3    H2 7255   2.100   4.608   3.960
 2417TIP3   OH2 7256   1.457   5.247   3.408
 2417TIP3    H1 7257   1.376   5.202   3.384
 2417TIP3    H2 7258   1.429   5.314   3.471
 2418TIP3   OH2 7259   2.343   0.376   3.745
 2418TIP3    H1 7260   2.249   0.359   3.741
 2418TIP3    H2 7261   2.365   0.414   3.660
 2419TIP3   OH2 7262   3.729   1.890   2.988
 2419TIP3    H1 7263   3.742   1.984   2.974
 2419TIP3    H2 7264   3.789   1.848   2.926
 2420TIP3   OH2 7265   4.316   4.600   2.942
 2420TIP3    H1 7266   4.397   4.549   2.937
 2420TIP3    H2 7267   4.263   4.568   2.868
 2421TIP3   OH2 7268   4.581   5.189   0.879
 2421TIP3    H1 7269   4.536   5.154   0.956
 2421TIP3    H2 7270   4.663   5.224   0.913
 2422TIP3   OH2 7271   4.380   2.673   4.795
 2422TIP3    H1 7272   4.456   2.731   4.788
 2422TIP3    H2 7273   4.405   2.594   4.748
 2423TIP3   OH2 7274   5.349   0.574   1.604
 2423TIP3    H1 7275   5.390   0.566   1.518
 2423TIP3    H2 7276   5.361   0.488   1.644
 2424TIP3   OH2 7277   1.759   5.583   1.992
 2424TIP3    H1 7278   1.847   5.561   2.023
 2424TIP3    H2 7279   1.746   5.527   1.915
 2425TIP3   OH2 7280   6.159   0.195   0.522
 2425TIP3    H1 7281   6.225   0.132   0.549
 2425TIP3    H2 7282   6.117   0.154   0.446
 2426TIP3   OH2 7283   1.509   2.635   1.654
 2426TIP3    H1 7284   1.601   2.640   1.682
 2426TIP3    H2 7285   1.509   2.573   1.581
 2427TIP3   OH2 7286   0.685   4.959   3.649
 2427TIP3    H1 7287   0.697   4.945   3.555
 2427TIP3    H2 7288   0.659   5.051   3.656
 2428TIP3   OH2 7289   1.228   5.980   5.054
 2428TIP3    H1 7290   1.320   5.998   5.033
 2428TIP3    H2 7291   1.223   5.884   5.059
 2429TIP3   OH2 7292   0.644   1.653   4.184
 2429TIP3    H1 7293   0.734   1.634   4.208
 2429TIP3    H2 7294   0.651   1.718   4.114
 2430TIP3   OH2 7295   1.959   3.447   3.619
 2430TIP3    H1 7296   1.980   3.383   3.687
 2430TIP3    H2 7297   1.864   3.442   3.610
 2431TIP3   OH2 7298   1.792   2.467   2.734
 2431TIP3    H1 7299   1.808   2.418   2.815
 2431TIP3    H2 7300   1.876   2.462   2.688
 2432TIP3   OH2 7301   4.318   4.056   0.394
 2432TIP3    H1 7302   4.229   4.088   0.412
 2432TIP3    H2 7303   4.340   4.092   0.308
 2433TIP3   OH2 7304   5.309   2.707   3.395
 2433TIP3    H1 7305   5.398   2.676   3.379
 2433TIP3    H2 7306   5.280   2.659   3.473
 2434TIP3   OH2 7307   2.137   2.453   0.795
 2434TIP3    H1 7308   2.188   2.515   0.741
 2434TIP3    H2 7309   2.201   2.388   0.823
 2435TIP3   OH2 7310   2.278   5.343   2.955
 2435TIP3    H1 7311   2.373   5.331   2.960
 2435TIP3    H2 7312   2.254   5.377   3.041
 2436TIP3   OH2 7313   4.183   0.245   1.881
 2436TIP3    H1 7314   4.177   0.273   1.973
 2436TIP3    H2 7315   4.116   0.177   1.872
 2437TIP3   OH2 7316   3.040   1.692   1.190
 2437TIP3    H1 7317   3.015   1.613   1.238
 2437TIP3    H2 7318   3.125   1.671   1.153
 2438TIP3   OH2 7319   1.350   1.920   4.616
 2438TIP3    H1 7320   1.278   1.937   4.554
 2438TIP3    H2 7321   1.349   1.825   4.629
 2439TIP3   OH2 7322   3.105   1.087   4.606
 2439TIP3    H1 7323   3.024   1.063   4.560
 2439TIP3    H2 7324   3.102   1.037   4.687
 2440TIP3   OH2 7325   2.911   3.333   3.954
 2440TIP3    H1 7326   2.900   3.337   4.049
 2440TIP3    H2 7327   2.844   3.270   3.926
 2441TIP3   OH2 7328   0.530   0.125   5.156
 2441TIP3    H1 7329   0.586   0.193   5.118
 2441TIP3    H2 7330   0.560   0.044   5.116
 2442TIP3   OH2 7331   4.876   1.516   3.565
 2442TIP3    H1 7332   4.933   1.455   3.612
 2442TIP3    H2 7333   4.791   1.471   3.564
 2443TIP3   OH2 7334   5.860   2.889   4.891
 2443TIP3    H1 7335   5.955   2.880   4.894
 2443TIP3    H2 7336   5.827   2.800   4.893
 2444TIP3   OH2 7337   0.290   2.818   5.020
 2444TIP3    H1 7338   0.328   2.737   4.986
 2444TIP3    H2 7339   0.363   2.879   5.026
 2445TIP3   OH2 7340   4.406   1.562   0.928
 2445TIP3    H1 7341   4.432   1.622   0.858
 2445TIP3    H2 7342   4.320   1.594   0.956
 2446TIP3   OH2 7343   6.096   3.866   3.409
 2446TIP3    H1 7344   6.067   3.927   3.341
 2446TIP3    H2 7345   6.091   3.780   3.368
 2447TIP3   OH2 7346   1.518   4.708   3.040
 2447TIP3    H1 7347   1.540   4.791   2.999
 2447TIP3    H2 7348   1.576   4.703   3.116
 2448TIP3   OH2 7349   5.354   5.348   0.271
 2448TIP3    H1 7350   5.351   5.363   0.177
 2448TIP3    H2 7351   5.431   5.291   0.283
 2449TIP3   OH2 7352   0.514   4.485   0.146
 2449TIP3    H1 7353   0.515   4.400   0.101
 2449TIP3    H2 7354   0.448   4.536   0.100
 2450TIP3   OH2 7355   0.470   2.492   1.617
 2450TIP3    H1 7356   0.458   2.484   1.711
 2450TIP3    H2 7357   0.563   2.510   1.606
 2451TIP3   OH2 7358   5.891   3.018   4.406
 2451TIP3    H1 7359   5.881   2.988   4.316
 2451TIP3    H2 7360   5.974   3.066   4.406
 2452TIP3   OH2 7361   4.121   2.528   4.738
 2452TIP3    H1 7362   4.123   2.548   4.832
 2452TIP3    H2 7363   4.050   2.465   4.728
 2453TIP3   OH2 7364   2.830   2.526   1.769
 2453TIP3    H1 7365   2.852   2.575   1.848
 2453TIP3    H2 7366   2.808   2.593   1.704
 2454TIP3   OH2 7367   4.691   4.280   2.853
 2454TIP3    H1 7368   4.781   4.248   2.849
 2454TIP3    H2 7369   4.668   4.299   2.762
 2455TIP3   OH2 7370   3.102   1.840   0.287
 2455TIP3    H1 7371   3.034   1.903   0.309
 2455TIP3    H2 7372   3.175   1.862   0.345
 2456TIP3   OH2 7373   0.751   4.228   2.330
 2456TIP3    H1 7374   0.716   4.292   2.393
 2456TIP3    H2 7375   0.680   4.165   2.318
 2457TIP3   OH2 7376   4.244   3.567   4.618
 2457TIP3    H1 7377   4.191   3.557   4.697
 2457TIP3    H2 7378   4.334   3.570   4.651
 2458TIP3   OH2 7379   5.578   1.173   0.749
 2458TIP3    H1 7380   5.513   1.236   0.717
 2458TIP3    H2 7381   5.536   1.131   0.824
 2459TIP3   OH2 7382   3.853   1.563   1.709
 2459TIP3    H1 7383   3.804   1.618   1.770
 2459TIP3    H2 7384   3.787   1.508   1.668
 2460TIP3   OH2 7385   2.046   4.228   4.955
 2460TIP3    H1 7386   2.014   4.152   5.003
 2460TIP3    H2 7387   2.142   4.221   4.960
 2461TIP3   OH2 7388   5.348   3.528   0.073
 2461TIP3    H1 7389   5.351   3.568  -0.014
 2461TIP3    H2 7390   5.424   3.470   0.076
 2462TIP3   OH2 7391   4.647   2.312   4.158
 2462TIP3    H1 7392   4.612   2.296   4.246
 2462TIP3    H2 7393   4.728   2.263   4.155
 2463TIP3   OH2 7394   2.009   5.931   0.823
 2463TIP3    H1 7395   2.049   5.887   0.747
 2463TIP3    H2 7396   2.047   5.887   0.899
 2464TIP3   OH2 7397   3.597   0.265   1.261
 2464TIP3    H1 7398   3.538   0.309   1.322
 2464TIP3    H2 7399   3.590   0.314   1.179
 2465TIP3   OH2 7400   3.214   4.945   1.787
 2465TIP3    H1 7401   3.209   5.003   1.863
 2465TIP3    H2 7402   3.262   4.869   1.818
 2466TIP3   OH2 7403   1.942   1.966   3.942
 2466TIP3    H1 7404   2.026   1.925   3.963
 2466TIP3    H2 7405   1.947   2.053   3.982
 2467TIP3   OH2 7406   6.051   2.061   1.730
 2467TIP3    H1 7407   5.966   2.046   1.688
 2467TIP3    H2 7408   6.079   1.974   1.759
 2468TIP3   OH2 7409   4.940   1.545   0.733
 2468TIP3    H1 7410   4.958   1.502   0.817
 2468TIP3    H2 7411   5.017   1.526   0.680
 2469TIP3   OH2 7412   2.395   1.068   2.077
 2469TIP3    H1 7413   2.313   1.112   2.057
 2469TIP3    H2 7414   2.439   1.125   2.141
 2470TIP3   OH2 7415   1.595   5.069  -0.035
 2470TIP3    H1 7416   1.647   5.046   0.042
 2470TIP3    H2 7417   1.648   5.133  -0.082
 2471TIP3   OH2 7418   3.571   0.860   0.243
 2471TIP3    H1 7419   3.652   0.873   0.195
 2471TIP3    H2 7420   3.582   0.911   0.324
 2472TIP3   OH2 7421   2.226   2.174   0.051
 2472TIP3    H1 7422   2.235   2.268   0.032
 2472TIP3    H2 7423   2.303   2.134   0.013
 2473TIP3   OH2 7424   4.772   4.672   2.577
 2473TIP3    H1 7425   4.680   4.651   2.560
 2473TIP3    H2 7426   4.814   4.587   2.591
 2474TIP3   OH2 7427   3.948   0.936   3.205
 2474TIP3    H1 7428   4.016   0.871   3.189
 2474TIP3    H2 7429   3.974   1.011   3.152
 2475TIP3   OH2 7430   4.349   2.220   4.558
 2475TIP3    H1 7431   4.311   2.135   4.533
 2475TIP3    H2 7432   4.331   2.276   4.482
 2476TIP3   OH2 7433   3.192   5.510   1.630
 2476TIP3    H1 7434   3.169   5.603   1.628
 2476TIP3    H2 7435   3.182   5.485   1.722
 2477TIP3   OH2 7436   3.115   1.214   1.821
 2477TIP3    H1 7437   3.171   1.209   1.743
 2477TIP3    H2 7438   3.045   1.151   1.804
 2478TIP3   OH2 7439   2.195   1.640   1.898
 2478TIP3    H1 7440   2.213   1.648   1.804
 2478TIP3    H2 7441   2.257   1.700   1.940
 2479TIP3   OH2 7442   2.546   4.298   2.832
 2479TIP3    H1 7443   2.580   4.211   2.852
 2479TIP3    H2 7444   2.456   4.282   2.805
 2480TIP3   OH2 7445   1.458   5.292   1.023
 2480TIP3    H1 7446   1.438   5.321   1.112
 2480TIP3    H2 7447   1.415   5.207   1.016
 2481TIP3   OH2 7448   5.249   5.325   1.209
 2481TIP3    H1 7449   5.296   5.260   1.261
 2481TIP3    H2 7450   5.245   5.402   1.265
 2482TIP3   OH2 7451   1.212   0.282   1.310
 2482TIP3    H1 7452   1.290   0.317   1.354
 2482TIP3    H2 7453   1.239   0.273   1.219
 2483TIP3   OH2 7454   2.227   4.016   0.270
 2483TIP3    H1 7455   2.288   3.965   0.323
 2483TIP3    H2 7456   2.183   3.952   0.215
 2484TIP3   OH2 7457   2.066   0.006   4.772
 2484TIP3    H1 7458   2.120  -0.010   4.850
 2484TIP3    H2 7459   2.030   0.094   4.786
 2485TIP3   OH2 7460   1.177   5.494   1.068
 2485TIP3    H1 7461   1.261   5.499   1.114
 2485TIP3    H2 7462   1.129   5.571   1.098
 2486TIP3   OH2 7463   4.391   5.289   4.171
 2486TIP3    H1 7464   4.361   5.380   4.164
 2486TIP3    H2 7465   4.477   5.296   4.212
 2487TIP3   OH2 7466   0.459   4.277   0.811
 2487TIP3    H1 7467   0.375   4.264   0.766
 2487TIP3    H2 7468   0.510   4.199   0.790
 2488TIP3   OH2 7469   2.697   0.359   4.029
 2488TIP3    H1 7470   2.749   0.371   3.950
 2488TIP3    H2 7471   2.744   0.292   4.078
 2489TIP3   OH2 7472   0.695   3.184   3.552
 2489TIP3    H1 7473   0.627   3.219   3.609
 2489TIP3    H2 7474   0.777   3.205   3.597
 2490TIP3   OH2 7475   4.501   5.506   1.363
 2490TIP3    H1 7476   4.590   5.523   1.330
 2490TIP3    H2 7477   4.444   5.552   1.301
 2491TIP3   OH2 7478   2.163   3.545   3.441
 2491TIP3    H1 7479   2.100   3.511   3.505
 2491TIP3    H2 7480   2.235   3.482   3.442
 2492TIP3   OH2 7481   1.518   5.882   0.486
 2492TIP3    H1 7482   1.482   5.797   0.462
 2492TIP3    H2 7483   1.498   5.939   0.411
 2493TIP3   OH2 7484   1.267   1.185   1.714
 2493TIP3    H1 7485   1.233   1.235   1.640
 2493TIP3    H2 7486   1.347   1.230   1.739
 2494TIP3   OH2 7487   4.702   4.595   0.813
 2494TIP3    H1 7488   4.688   4.630   0.725
 2494TIP3    H2 7489   4.790   4.557   0.810
 2495TIP3   OH2 7490   5.919   4.090   3.007
 2495TIP3    H1 7491   5.989   4.085   2.941
 2495TIP3    H2 7492   5.963   4.068   3.090
 2496TIP3   OH2 7493   4.883   0.662   3.860
 2496TIP3    H1 7494   4.921   0.694   3.942
 2496TIP3    H2 7495   4.915   0.572   3.853
 2497TIP3   OH2 7496   5.547   1.949   2.785
 2497TIP3    H1 7497   5.638   1.926   2.804
 2497TIP3    H2 7498   5.501   1.935   2.868
 2498TIP3   OH2 7499   3.275   0.418   4.524
 2498TIP3    H1 7500   3.200   0.359   4.516
 2498TIP3    H2 7501   3.340   0.368   4.572
 2499TIP3   OH2 7502   1.082   0.635   1.888
 2499TIP3    H1 7503   0.994   0.670   1.876
 2499TIP3    H2 7504   1.137   0.688   1.831
 2500TIP3   OH2 7505   3.439   5.442   1.846
 2500TIP3    H1 7506   3.488   5.462   1.926
 2500TIP3    H2 7507   3.349   5.468   1.866
 2501TIP3   OH2 7508   1.505   4.316   3.378
 2501TIP3    H1 7509   1.506   4.314   3.474
 2501TIP3    H2 7510   1.583   4.266   3.352
 2502TIP3   OH2 7511   4.227   3.310   1.739
 2502TIP3    H1 7512   4.242   3.341   1.650
 2502TIP3    H2 7513   4.132   3.298   1.745
 2503TIP3   OH2 7514   4.176   1.277   4.177
 2503TIP3    H1 7515   4.188   1.291   4.083
 2503TIP3    H2 7516   4.097   1.327   4.199
 2504TIP3   OH2 7517   5.695   5.806   2.487
 2504TIP3    H1 7518   5.675   5.788   2.579
 2504TIP3    H2 7519   5.638   5.745   2.439
 2505TIP3   OH2 7520   6.254   3.889   3.895
 2505TIP3    H1 7521   6.182   3.826   3.899
 2505TIP3    H2 7522   6.228   3.953   3.829
 2506TIP3   OH2 7523   6.345   1.239   0.678
 2506TIP3    H1 7524   6.268   1.183   0.668
 2506TIP3    H2 7525   6.338   1.303   0.607
 2507TIP3   OH2 7526   1.611   3.910   1.515
 2507TIP3    H1 7527   1.601   4.001   1.487
 2507TIP3    H2 7528   1.706   3.897   1.518
 2508TIP3   OH2 7529   1.022   0.453   1.474
 2508TIP3    H1 7530   1.071   0.506   1.537
 2508TIP3    H2 7531   1.090   0.414   1.418
 2509TIP3   OH2 7532   2.824   3.903   1.630
 2509TIP3    H1 7533   2.864   3.931   1.713
 2509TIP3    H2 7534   2.860   3.964   1.565
 2510TIP3   OH2 7535   2.229   1.929   0.944
 2510TIP3    H1 7536   2.194   1.847   0.908
 2510TIP3    H2 7537   2.285   1.964   0.875
 2511TIP3   OH2 7538   2.627   3.042   2.292
 2511TIP3    H1 7539   2.600   3.085   2.373
 2511TIP3    H2 7540   2.548   2.999   2.259
 2512TIP3   OH2 7541   3.067   4.879   1.048
 2512TIP3    H1 7542   3.090   4.851   0.959
 2512TIP3    H2 7543   3.100   4.809   1.104
 2513TIP3   OH2 7544   0.737   3.138   4.156
 2513TIP3    H1 7545   0.732   3.099   4.243
 2513TIP3    H2 7546   0.739   3.232   4.171
 2514TIP3   OH2 7547   0.813   5.354   1.857
 2514TIP3    H1 7548   0.822   5.429   1.797
 2514TIP3    H2 7549   0.802   5.394   1.943
 2515TIP3   OH2 7550   4.758   1.306   0.435
 2515TIP3    H1 7551   4.841   1.292   0.389
 2515TIP3    H2 7552   4.692   1.269   0.376
 2516TIP3   OH2 7553   1.372   4.658   4.354
 2516TIP3    H1 7554   1.371   4.667   4.450
 2516TIP3    H2 7555   1.368   4.563   4.339
 2517TIP3   OH2 7556   1.629   2.024   3.774
 2517TIP3    H1 7557   1.536   2.048   3.781
 2517TIP3    H2 7558   1.675   2.108   3.769
 2518TIP3   OH2 7559   2.916   2.327   3.124
 2518TIP3    H1 7560   2.835   2.295   3.084
 2518TIP3    H2 7561   2.894   2.415   3.155
 2519TIP3   OH2 7562   3.853   2.096   0.188
 2519TIP3    H1 7563   3.859   2.126   0.097
 2519TIP3    H2 7564   3.759   2.086   0.203
 2520TIP3   OH2 7565   1.018   0.805   4.274
 2520TIP3    H1 7566   1.003   0.739   4.343
 2520TIP3    H2 7567   1.093   0.771   4.225
 2521TIP3   OH2 7568   1.335   3.859   4.994
 2521TIP3    H1 7569   1.350   3.806   4.916
 2521TIP3    H2 7570   1.321   3.947   4.961
 2522TIP3   OH2 7571   0.203   0.408   4.044
 2522TIP3    H1 7572   0.183   0.323   4.006
 2522TIP3    H2 7573   0.196   0.395   4.139
 2523TIP3   OH2 7574   3.541   0.659   4.830
 2523TIP3    H1 7575   3.614   0.604   4.858
 2523TIP3    H2 7576   3.565   0.686   4.741
 2524TIP3   OH2 7577   5.846   4.074   2.319
 2524TIP3    H1 7578   5.853   3.980   2.307
 2524TIP3    H2 7579   5.875   4.111   2.236
 2525TIP3   OH2 7580   5.551   5.780   4.276
 2525TIP3    H1 7581   5.594   5.844   4.219
 2525TIP3    H2 7582   5.471   5.756   4.230
 2526TIP3   OH2 7583   1.906   5.068   1.957
 2526TIP3    H1 7584   1.810   5.068   1.963
 2526TIP3    H2 7585   1.935   5.114   2.035
 2527TIP3   OH2 7586   2.418   2.825   3.930
 2527TIP3    H1 7587   2.420   2.795   3.839
 2527TIP3    H2 7588   2.345   2.887   3.934
 2528TIP3   OH2 7589   4.700   2.655   3.541
 2528TIP3    H1 7590   4.655   2.577   3.574
 2528TIP3    H2 7591   4.793   2.635   3.553
 2529TIP3   OH2 7592   2.775   4.459   0.533
 2529TIP3    H1 7593   2.825   4.525   0.579
 2529TIP3    H2 7594   2.804   4.376   0.571
 2530TIP3   OH2 7595   0.802   3.766   0.125
 2530TIP3    H1 7596   0.837   3.731   0.207
 2530TIP3    H2 7597   0.820   3.698   0.060
 2531TIP3   OH2 7598   1.101   0.968   2.709
 2531TIP3    H1 7599   1.061   0.999   2.628
 2531TIP3    H2 7600   1.160   1.039   2.736
 2532TIP3   OH2 7601   2.049   0.757   4.701
 2532TIP3    H1 7602   1.984   0.826   4.690
 2532TIP3    H2 7603   1.998   0.676   4.701
 2533TIP3   OH2 7604   1.707   4.830   4.154
 2533TIP3    H1 7605   1.626   4.792   4.121
 2533TIP3    H2 7606   1.722   4.788   4.239
 2534TIP3   OH2 7607   5.936   2.407   0.181
 2534TIP3    H1 7608   5.906   2.493   0.150
 2534TIP3    H2 7609   5.856   2.356   0.192
 2535TIP3   OH2 7610   5.806   4.487   0.404
 2535TIP3    H1 7611   5.735   4.543   0.436
 2535TIP3    H2 7612   5.853   4.461   0.483
 2536TIP3   OH2 7613   1.523   0.281   0.707
 2536TIP3    H1 7614   1.560   0.358   0.749
 2536TIP3    H2 7615   1.431   0.280   0.734
 2537TIP3   OH2 7616   6.057   1.741   1.357
 2537TIP3    H1 7617   6.050   1.667   1.417
 2537TIP3    H2 7618   6.130   1.794   1.391
 2538TIP3   OH2 7619   1.820   5.660   0.535
 2538TIP3    H1 7620   1.830   5.577   0.489
 2538TIP3    H2 7621   1.825   5.727   0.467
 2539TIP3   OH2 7622   5.977   2.129   2.405
 2539TIP3    H1 7623   5.944   2.086   2.326
 2539TIP3    H2 7624   6.031   2.201   2.372
 2540TIP3   OH2 7625   1.552   0.189   3.829
 2540TIP3    H1 7626   1.622   0.243   3.793
 2540TIP3    H2 7627   1.505   0.156   3.752
 2541TIP3   OH2 7628   3.442   0.015   1.137
 2541TIP3    H1 7629   3.406  -0.062   1.093
 2541TIP3    H2 7630   3.534   0.016   1.112
 2542TIP3   OH2 7631   3.012   4.920   3.671
 2542TIP3    H1 7632   3.088   4.965   3.708
 2542TIP3    H2 7633   2.971   4.985   3.614
 2543TIP3   OH2 7634   5.026   2.190   3.899
 2543TIP3    H1 7635   5.077   2.172   3.819
 2543TIP3    H2 7636   4.977   2.269   3.879
 2544TIP3   OH2 7637   3.675   3.731   2.245
 2544TIP3    H1 7638   3.637   3.776   2.320
 2544TIP3    H2 7639   3.769   3.734   2.261
 2545TIP3   OH2 7640   0.135   2.499   1.625
 2545TIP3    H1 7641   0.136   2.411   1.589
 2545TIP3    H2 7642   0.104   2.488   1.715
 2546TIP3   OH2 7643   0.867   1.561   4.910
 2546TIP3    H1 7644   0.788   1.609   4.885
 2546TIP3    H2 7645   0.895   1.601   4.993
 2547TIP3   OH2 7646   5.207   4.083   1.134
 2547TIP3    H1 7647   5.208   4.171   1.096
 2547TIP3    H2 7648   5.128   4.043   1.099
 2548TIP3   OH2 7649   2.138   4.151   0.767
 2548TIP3    H1 7650   2.203   4.221   0.776
 2548TIP3    H2 7651   2.074   4.185   0.705
 2549TIP3   OH2 7652   4.046   0.301   0.425
 2549TIP3    H1 7653   4.034   0.237   0.355
 2549TIP3    H2 7654   3.988   0.374   0.401
 2550TIP3   OH2 7655   0.289   5.795   2.641
 2550TIP3    H1 7656   0.336   5.821   2.561
 2550TIP3    H2 7657   0.197   5.792   2.614
 2551TIP3   OH2 7658   1.084   4.849   4.654
 2551TIP3    H1 7659   1.039   4.923   4.613
 2551TIP3    H2 7660   1.021   4.777   4.648
 2552TIP3   OH2 7661   4.946   2.979   4.626
 2552TIP3    H1 7662   4.946   2.908   4.562
 2552TIP3    H2 7663   4.872   3.034   4.602
 2553TIP3   OH2 7664   0.908   2.916   1.427
 2553TIP3    H1 7665   0.820   2.883   1.411
 2553TIP3    H2 7666   0.930   2.964   1.347
 2554TIP3   OH2 7667   6.298   4.761   1.527
 2554TIP3    H1 7668   6.305   4.678   1.479
 2554TIP3    H2 7669   6.251   4.819   1.467
 2555TIP3   OH2 7670   6.121   4.621   0.642
 2555TIP3    H1 7671   6.157   4.590   0.559
 2555TIP3    H2 7672   6.061   4.551   0.669
 2556TIP3   OH2 7673   3.632   5.511   2.054
 2556TIP3    H1 7674   3.701   5.560   2.010
 2556TIP3    H2 7675   3.679   5.449   2.111
 2557TIP3   OH2 7676   6.196   3.332   3.207
 2557TIP3    H1 7677   6.160   3.266   3.148
 2557TIP3    H2 7678   6.167   3.303   3.294
 2558TIP3   OH2 7679   5.184   1.456   2.074
 2558TIP3    H1 7680   5.220   1.369   2.090
 2558TIP3    H2 7681   5.247   1.498   2.016
 2559TIP3   OH2 7682   5.645   1.918   2.212
 2559TIP3    H1 7683   5.557   1.913   2.175
 2559TIP3    H2 7684   5.699   1.950   2.140
 2560TIP3   OH2 7685   0.581   3.712   2.598
 2560TIP3    H1 7686   0.545   3.667   2.521
 2560TIP3    H2 7687   0.674   3.724   2.577
 2561TIP3   OH2 7688   2.916   2.382   3.976
 2561TIP3    H1 7689   2.891   2.425   3.894
 2561TIP3    H2 7690   2.887   2.292   3.965
 2562TIP3   OH2 7691   4.041   2.816   3.883
 2562TIP3    H1 7692   4.032   2.799   3.789
 2562TIP3    H2 7693   3.954   2.799   3.918
 2563TIP3   OH2 7694   1.606   5.293   3.050
 2563TIP3    H1 7695   1.651   5.252   2.976
 2563TIP3    H2 7696   1.652   5.260   3.127
 2564TIP3   OH2 7697   3.181   5.094   4.804
 2564TIP3    H1 7698   3.164   5.178   4.846
 2564TIP3    H2 7699   3.272   5.099   4.774
 2565TIP3   OH2 7700   1.323   2.818   0.942
 2565TIP3    H1 7701   1.401   2.778   0.903
 2565TIP3    H2 7702   1.347   2.834   1.033
 2566TIP3   OH2 7703   3.651   0.587   3.298
 2566TIP3    H1 7704   3.592   0.512   3.300
 2566TIP3    H2 7705   3.600   0.656   3.254
 2567TIP3   OH2 7706   3.105   0.869   2.858
 2567TIP3    H1 7707   3.070   0.931   2.922
 2567TIP3    H2 7708   3.062   0.786   2.878
 2568TIP3   OH2 7709   3.341   2.687   4.668
 2568TIP3    H1 7710   3.395   2.758   4.635
 2568TIP3    H2 7711   3.373   2.672   4.757
 2569TIP3   OH2 7712   6.028   3.999   4.337
 2569TIP3    H1 7713   5.981   4.008   4.254
 2569TIP3    H2 7714   6.065   3.911   4.334
 2570TIP3   OH2 7715   2.694   5.477   4.777
 2570TIP3    H1 7716   2.680   5.466   4.870
 2570TIP3    H2 7717   2.606   5.487   4.740
 2571TIP3   OH2 7718   0.795   5.522   3.790
 2571TIP3    H1 7719   0.811   5.435   3.825
 2571TIP3    H2 7720   0.856   5.579   3.837
 2572TIP3   OH2 7721   0.529   3.138   1.919
 2572TIP3    H1 7722   0.550   3.109   2.008
 2572TIP3    H2 7723   0.452   3.086   1.896
 2573TIP3   OH2 7724   5.945   1.194   0.244
 2573TIP3    H1 7725   5.955   1.273   0.297
 2573TIP3    H2 7726   6.010   1.133   0.278
 2574TIP3   OH2 7727   4.096   1.393   4.992
 2574TIP3    H1 7728   4.102   1.489   4.999
 2574TIP3    H2 7729   4.009   1.372   5.026
 2575TIP3   OH2 7730   0.923   4.847   3.133
 2575TIP3    H1 7731   0.909   4.764   3.086
 2575TIP3    H2 7732   0.977   4.822   3.208
 2576TIP3   OH2 7733   3.830   1.933   2.218
 2576TIP3    H1 7734   3.832   2.014   2.269
 2576TIP3    H2 7735   3.788   1.958   2.136
 2577TIP3   OH2 7736   4.378   5.623   0.602
 2577TIP3    H1 7737   4.399   5.535   0.571
 2577TIP3    H2 7738   4.318   5.609   0.676
 2578TIP3   OH2 7739   2.346   3.875   0.508
 2578TIP3    H1 7740   2.256   3.846   0.489
 2578TIP3    H2 7741   2.381   3.807   0.565
 2579TIP3   OH2 7742   1.385   2.737   0.361
 2579TIP3    H1 7743   1.457   2.719   0.421
 2579TIP3    H2 7744   1.420   2.714   0.274
 2580TIP3   OH2 7745   5.507   2.507   2.915
 2580TIP3    H1 7746   5.432   2.450   2.900
 2580TIP3    H2 7747   5.576   2.471   2.860
 2581TIP3   OH2 7748   2.615   4.812   2.263
 2581TIP3    H1 7749   2.680   4.789   2.330
 2581TIP3    H2 7750   2.649   4.891   2.223
 2582TIP3   OH2 7751   6.025   2.983   5.167
 2582TIP3    H1 7752   6.095   2.935   5.211
 2582TIP3    H2 7753   6.012   2.936   5.085
 2583TIP3   OH2 7754   4.324   4.014   4.713
 2583TIP3    H1 7755   4.301   4.000   4.621
 2583TIP3    H2 7756   4.416   3.990   4.719
 2584TIP3   OH2 7757   3.715   1.178   0.823
 2584TIP3    H1 7758   3.763   1.205   0.901
 2584TIP3    H2 7759   3.700   1.084   0.836
 2585TIP3   OH2 7760   2.665   3.925   5.164
 2585TIP3    H1 7761   2.577   3.957   5.144
 2585TIP3    H2 7762   2.689   3.872   5.088
 2586TIP3   OH2 7763   4.442   2.192   0.991
 2586TIP3    H1 7764   4.536   2.196   1.005
 2586TIP3    H2 7765   4.431   2.206   0.897
 2587TIP3   OH2 7766   2.989   3.434   0.723
 2587TIP3    H1 7767   3.024   3.409   0.637
 2587TIP3    H2 7768   3.033   3.517   0.743
 2588TIP3   OH2 7769   4.493  -0.017   1.894
 2588TIP3    H1 7770   4.405  -0.051   1.912
 2588TIP3    H2 7771   4.492   0.072   1.928
 2589TIP3   OH2 7772   2.462   3.117   4.939
 2589TIP3    H1 7773   2.390   3.173   4.966
 2589TIP3    H2 7774   2.500   3.086   5.022
 2590TIP3   OH2 7775   2.605   1.691   4.229
 2590TIP3    H1 7776   2.514   1.686   4.259
 2590TIP3    H2 7777   2.602   1.748   4.152
 2591TIP3   OH2 7778   3.905   1.248   4.601
 2591TIP3    H1 7779   3.875   1.158   4.612
 2591TIP3    H2 7780   3.910   1.259   4.506
 2592TIP3   OH2 7781   1.830   5.020   0.137
 2592TIP3    H1 7782   1.818   4.932   0.174
 2592TIP3    H2 7783   1.836   5.077   0.213
 2593TIP3   OH2 7784   5.559   0.417   2.401
 2593TIP3    H1 7785   5.621   0.490   2.404
 2593TIP3    H2 7786   5.475   0.459   2.381
 2594TIP3   OH2 7787   1.200   3.446   3.840
 2594TIP3    H1 7788   1.194   3.374   3.903
 2594TIP3    H2 7789   1.278   3.425   3.788
 2595TIP3   OH2 7790   0.822   2.999   0.858
 2595TIP3    H1 7791   0.814   3.088   0.891
 2595TIP3    H2 7792   0.734   2.962   0.866
 2596TIP3   OH2 7793   4.976   2.029   3.541
 2596TIP3    H1 7794   4.990   2.030   3.446
 2596TIP3    H2 7795   4.949   1.940   3.560
 2597TIP3   OH2 7796   4.040   3.171   0.167
 2597TIP3    H1 7797   3.979   3.152   0.096
 2597TIP3    H2 7798   4.081   3.087   0.187
 2598TIP3   OH2 7799   1.546   5.968   1.353
 2598TIP3    H1 7800   1.551   6.054   1.311
 2598TIP3    H2 7801   1.490   5.917   1.295
 2599TIP3   OH2 7802   2.378   3.149   1.303
 2599TIP3    H1 7803   2.338   3.234   1.319
 2599TIP3    H2 7804   2.458   3.150   1.356
 2600TIP3   OH2 7805   3.924   0.581   4.190
 2600TIP3    H1 7806   3.834   0.615   4.194
 2600TIP3    H2 7807   3.957   0.591   4.279
 2601TIP3   OH2 7808   1.351   2.151   4.308
 2601TIP3    H1 7809   1.272   2.105   4.335
 2601TIP3    H2 7810   1.322   2.240   4.291
 2602TIP3   OH2 7811   0.135   4.573   4.343
 2602TIP3    H1 7812   0.147   4.587   4.437
 2602TIP3    H2 7813   0.077   4.644   4.315
 2603TIP3   OH2 7814   0.756   5.921   3.104
 2603TIP3    H1 7815   0.721   6.010   3.104
 2603TIP3    H2 7816   0.804   5.914   3.021
 2604TIP3   OH2 7817   5.673   1.148   3.885
 2604TIP3    H1 7818   5.715   1.073   3.842
 2604TIP3    H2 7819   5.600   1.170   3.828
 2605TIP3   OH2 7820   1.648   1.661   5.072
 2605TIP3    H1 7821   1.611   1.694   4.990
 2605TIP3    H2 7822   1.736   1.631   5.049
 2606TIP3   OH2 7823   3.905   3.709   3.156
 2606TIP3    H1 7824   3.886   3.620   3.184
 2606TIP3    H2 7825   3.861   3.718   3.072
 2607TIP3   OH2 7826   5.787   0.254   3.846
 2607TIP3    H1 7827   5.871   0.284   3.811
 2607TIP3    H2 7828   5.809   0.173   3.893
 2608TIP3   OH2 7829   3.426   4.478   4.858
 2608TIP3    H1 7830   3.366   4.478   4.784
 2608TIP3    H2 7831   3.435   4.385   4.881
 2609TIP3   OH2 7832   1.966   5.418   1.557
 2609TIP3    H1 7833   1.906   5.475   1.509
 2609TIP3    H2 7834   2.053   5.440   1.523
 2610TIP3   OH2 7835   3.518   4.722   0.833
 2610TIP3    H1 7836   3.590   4.705   0.773
 2610TIP3    H2 7837   3.515   4.645   0.890
 2611TIP3   OH2 7838   0.749   0.494   3.382
 2611TIP3    H1 7839   0.661   0.456   3.385
 2611TIP3    H2 7840   0.804   0.430   3.428
 2612TIP3   OH2 7841   0.381   3.880   2.455
 2612TIP3    H1 7842   0.307   3.845   2.504
 2612TIP3    H2 7843   0.376   3.838   2.369
 2613TIP3   OH2 7844   4.623   5.214   1.512
 2613TIP3    H1 7845   4.662   5.145   1.566
 2613TIP3    H2 7846   4.610   5.287   1.572
 2614TIP3   OH2 7847   4.805   5.532   1.443
 2614TIP3    H1 7848   4.776   5.538   1.534
 2614TIP3    H2 7849   4.900   5.521   1.448
 2615TIP3   OH2 7850   5.578   4.915   0.183
 2615TIP3    H1 7851   5.628   4.891   0.104
 2615TIP3    H2 7852   5.641   4.909   0.254
 2616TIP3   OH2 7853   2.058   2.209   2.025
 2616TIP3    H1 7854   2.116   2.243   2.093
 2616TIP3    H2 7855   2.110   2.143   1.979
 2617TIP3   OH2 7856   1.850   1.634   0.781
 2617TIP3    H1 7857   1.841   1.697   0.852
 2617TIP3    H2 7858   1.869   1.688   0.704
 2618TIP3   OH2 7859   4.492   3.675   4.454
 2618TIP3    H1 7860   4.480   3.580   4.460
 2618TIP3    H2 7861   4.530   3.700   4.538
 2619TIP3   OH2 7862   4.131   4.226   1.376
 2619TIP3    H1 7863   4.063   4.253   1.315
 2619TIP3    H2 7864   4.194   4.178   1.322
 2620TIP3   OH2 7865   0.714   5.215   0.100
 2620TIP3    H1 7866   0.755   5.152   0.159
 2620TIP3    H2 7867   0.788   5.255   0.054
 2621TIP3   OH2 7868   5.193   1.146   0.824
 2621TIP3    H1 7869   5.261   1.081   0.840
 2621TIP3    H2 7870   5.130   1.133   0.895
 2622TIP3   OH2 7871   2.894   0.998   0.784
 2622TIP3    H1 7872   2.923   1.038   0.866
 2622TIP3    H2 7873   2.825   0.937   0.810
 2623TIP3   OH2 7874   4.920   0.617   4.798
 2623TIP3    H1 7875   4.902   0.633   4.891
 2623TIP3    H2 7876   5.013   0.598   4.794
 2624TIP3   OH2 7877   1.359   4.793   0.635
 2624TIP3    H1 7878   1.354   4.879   0.593
 2624TIP3    H2 7879   1.296   4.739   0.588
 2625TIP3   OH2 7880   3.709   1.361   1.996
 2625TIP3    H1 7881   3.719   1.377   2.090
 2625TIP3    H2 7882   3.799   1.366   1.962
 2626TIP3   OH2 7883   0.344   0.710   4.885
 2626TIP3    H1 7884   0.268   0.742   4.933
 2626TIP3    H2 7885   0.342   0.757   4.801
 2627TIP3   OH2 7886   3.527   1.069   4.764
 2627TIP3    H1 7887   3.530   1.060   4.668
 2627TIP3    H2 7888   3.502   1.161   4.778
 2628TIP3   OH2 7889   3.964   2.942   2.751
 2628TIP3    H1 7890   3.955   2.864   2.807
 2628TIP3    H2 7891   4.006   2.910   2.672
 2629TIP3   OH2 7892   1.552   2.856   1.977
 2629TIP3    H1 7893   1.476   2.866   1.920
 2629TIP3    H2 7894   1.520   2.880   2.064
 2630TIP3   OH2 7895   2.396   1.794   2.941
 2630TIP3    H1 7896   2.401   1.714   2.993
 2630TIP3    H2 7897   2.440   1.772   2.859
 2631TIP3   OH2 7898   3.408   3.944   4.445
 2631TIP3    H1 7899   3.462   3.894   4.506
 2631TIP3    H2 7900   3.318   3.921   4.468
 2632TIP3   OH2 7901   6.056   4.766   5.181
 2632TIP3    H1 7902   5.996   4.837   5.202
 2632TIP3    H2 7903   6.011   4.716   5.112
 2633TIP3   OH2 7904   2.718   5.760   2.337
 2633TIP3    H1 7905   2.733   5.776   2.243
 2633TIP3    H2 7906   2.629   5.724   2.341
 2634TIP3   OH2 7907   0.086   3.834   2.481
 2634TIP3    H1 7908  -0.003   3.862   2.458
 2634TIP3    H2 7909   0.074   3.771   2.552
 2635TIP3   OH2 7910   1.768   4.525   2.198
 2635TIP3    H1 7911   1.779   4.577   2.278
 2635TIP3    H2 7912   1.774   4.588   2.127
 2636TIP3   OH2 7913   4.368   2.181   0.728
 2636TIP3    H1 7914   4.287   2.226   0.707
 2636TIP3    H2 7915   4.342   2.090   0.741
 2637TIP3   OH2 7916   4.143   1.698   5.040
 2637TIP3    H1 7917   4.220   1.676   5.093
 2637TIP3    H2 7918   4.140   1.794   5.042
 2638TIP3   OH2 7919   6.115   4.352   3.882
 2638TIP3    H1 7920   6.088   4.309   3.964
 2638TIP3    H2 7921   6.200   4.313   3.862
 2639TIP3   OH2 7922   4.853   5.427   4.061
 2639TIP3    H1 7923   4.844   5.518   4.087
 2639TIP3    H2 7924   4.767   5.402   4.028
 2640TIP3   OH2 7925   5.680   4.613   1.106
 2640TIP3    H1 7926   5.756   4.601   1.163
 2640TIP3    H2 7927   5.649   4.701   1.126
 2641TIP3   OH2 7928  -0.024   3.995   0.410
 2641TIP3    H1 7929   0.003   4.036   0.328
 2641TIP3    H2 7930  -0.095   3.936   0.385
 2642TIP3   OH2 7931   5.271   0.870   4.719
 2642TIP3    H1 7932   5.338   0.814   4.758
 2642TIP3    H2 7933   5.218   0.900   4.793
 2643TIP3   OH2 7934   2.650   0.271   2.290
 2643TIP3    H1 7935   2.604   0.308   2.215
 2643TIP3    H2 7936   2.637   0.336   2.359
 2644TIP3   OH2 7937   5.571   5.676   2.260
 2644TIP3    H1 7938   5.481   5.665   2.230
 2644TIP3    H2 7939   5.592   5.594   2.305
 2645TIP3   OH2 7940   4.028   0.725   1.502
 2645TIP3    H1 7941   4.107   0.711   1.554
 2645TIP3    H2 7942   4.044   0.806   1.454
 2646TIP3   OH2 7943   5.528   3.905   3.815
 2646TIP3    H1 7944   5.480   3.970   3.764
 2646TIP3    H2 7945   5.462   3.840   3.841
 2647TIP3   OH2 7946   2.109   0.126   3.013
 2647TIP3    H1 7947   2.135   0.035   3.024
 2647TIP3    H2 7948   2.100   0.137   2.918
 2648TIP3   OH2 7949   3.313   4.556   1.085
 2648TIP3    H1 7950   3.401   4.567   1.121
 2648TIP3    H2 7951   3.326   4.504   1.006
 2649TIP3   OH2 7952   4.963   0.042   0.307
 2649TIP3    H1 7953   5.042   0.075   0.350
 2649TIP3    H2 7954   4.955  -0.048   0.338
 2650TIP3   OH2 7955   5.733   3.740   1.193
 2650TIP3    H1 7956   5.790   3.690   1.252
 2650TIP3    H2 7957   5.793   3.782   1.132
 2651TIP3   OH2 7958   2.189   4.600   4.297
 2651TIP3    H1 7959   2.094   4.589   4.307
 2651TIP3    H2 7960   2.219   4.627   4.383
 2652TIP3   OH2 7961   5.122   5.413   2.803
 2652TIP3    H1 7962   5.159   5.495   2.770
 2652TIP3    H2 7963   5.086   5.370   2.725
 2653TIP3   OH2 7964   2.764   0.225   1.700
 2653TIP3    H1 7965   2.830   0.167   1.738
 2653TIP3    H2 7966   2.687   0.214   1.757
 2654TIP3   OH2 7967   2.679   5.630   0.573
 2654TIP3    H1 7968   2.669   5.698   0.505
 2654TIP3    H2 7969   2.754   5.578   0.543
 2655TIP3   OH2 7970   5.244   3.109   2.161
 2655TIP3    H1 7971   5.174   3.173   2.170
 2655TIP3    H2 7972   5.285   3.130   2.077
 2656TIP3   OH2 7973   4.699   2.938   3.445
 2656TIP3    H1 7974   4.782   2.973   3.412
 2656TIP3    H2 7975   4.723   2.856   3.487
 2657TIP3   OH2 7976   2.639   1.208   0.811
 2657TIP3    H1 7977   2.726   1.231   0.778
 2657TIP3    H2 7978   2.602   1.291   0.841
 2658TIP3   OH2 7979   1.269   3.026   2.507
 2658TIP3    H1 7980   1.319   2.961   2.457
 2658TIP3    H2 7981   1.320   3.037   2.588
 2659TIP3   OH2 7982   3.839   5.788   4.070
 2659TIP3    H1 7983   3.929   5.756   4.079
 2659TIP3    H2 7984   3.785   5.718   4.107
 2660TIP3   OH2 7985   0.956   2.529   2.124
 2660TIP3    H1 7986   0.899   2.540   2.048
 2660TIP3    H2 7987   0.899   2.546   2.199
 2661TIP3   OH2 7988   1.315   1.033   2.143
 2661TIP3    H1 7989   1.313   0.996   2.231
 2661TIP3    H2 7990   1.407   1.054   2.128
 2662TIP3   OH2 7991   0.776   4.814   2.543
 2662TIP3    H1 7992   0.740   4.885   2.598
 2662TIP3    H2 7993   0.738   4.830   2.457
 2663TIP3   OH2 7994   5.709   4.495   5.011
 2663TIP3    H1 7995   5.797   4.531   5.022
 2663TIP3    H2 7996   5.689   4.510   4.919
 2664TIP3   OH2 7997   5.498   5.186   4.732
 2664TIP3    H1 7998   5.569   5.207   4.792
 2664TIP3    H2 7999   5.445   5.122   4.780
 2665TIP3   OH2 8000   6.068   0.589   4.126
 2665TIP3    H1 8001   6.028   0.594   4.213
 2665TIP3    H2 8002   6.158   0.563   4.143
 2666TIP3   OH2 8003   6.276   5.162   0.318
 2666TIP3    H1 8004   6.226   5.107   0.379
 2666TIP3    H2 8005   6.311   5.101   0.254
 2667TIP3   OH2 8006   3.232   4.776   4.625
 2667TIP3    H1 8007   3.269   4.864   4.618
 2667TIP3    H2 8008   3.138   4.791   4.638
 2668TIP3   OH2 8009   2.015   5.211   5.099
 2668TIP3    H1 8010   2.065   5.129   5.098
 2668TIP3    H2 8011   1.924   5.184   5.108
 2669TIP3   OH2 8012   4.526   4.887   4.185
 2669TIP3    H1 8013   4.518   4.888   4.090
 2669TIP3    H2 8014   4.589   4.957   4.204
 2670TIP3   OH2 8015   4.953   1.930   5.117
 2670TIP3    H1 8016   4.873   1.958   5.072
 2670TIP3    H2 8017   4.941   1.960   5.207
 2671TIP3   OH2 8018   1.580   2.063   4.606
 2671TIP3    H1 8019   1.557   2.137   4.549
 2671TIP3    H2 8020   1.503   2.006   4.603
 2672TIP3   OH2 8021   4.127   2.705   0.389
 2672TIP3    H1 8022   4.164   2.736   0.306
 2672TIP3    H2 8023   4.182   2.630   0.413
 2673TIP3   OH2 8024   2.081   1.637   1.065
 2673TIP3    H1 8025   2.113   1.614   0.977
 2673TIP3    H2 8026   1.998   1.590   1.073
 2674TIP3   OH2 8027   1.712   5.845   4.547
 2674TIP3    H1 8028   1.739   5.771   4.601
 2674TIP3    H2 8029   1.773   5.844   4.473
 2675TIP3   OH2 8030   4.823   2.911   2.659
 2675TIP3    H1 8031   4.760   2.849   2.694
 2675TIP3    H2 8032   4.770   2.983   2.625
 2676TIP3   OH2 8033   2.918   2.083   4.791
 2676TIP3    H1 8034   2.934   2.014   4.855
 2676TIP3    H2 8035   2.906   2.037   4.708
 2677TIP3   OH2 8036   3.684   3.324   0.356
 2677TIP3    H1 8037   3.599   3.302   0.394
 2677TIP3    H2 8038   3.666   3.337   0.263
 2678TIP3   OH2 8039   0.182   1.154   1.724
 2678TIP3    H1 8040   0.134   1.083   1.767
 2678TIP3    H2 8041   0.171   1.229   1.784
 2679TIP3   OH2 8042   1.846   5.712   4.214
 2679TIP3    H1 8043   1.908   5.778   4.246
 2679TIP3    H2 8044   1.867   5.633   4.263
 2680TIP3   OH2 8045   4.315   5.464   2.654
 2680TIP3    H1 8046   4.220   5.470   2.661
 2680TIP3    H2 8047   4.348   5.528   2.718
 2681TIP3   OH2 8048   2.125   3.362   4.491
 2681TIP3    H1 8049   2.162   3.399   4.571
 2681TIP3    H2 8050   2.071   3.289   4.520
 2682TIP3   OH2 8051   3.413   5.775   3.615
 2682TIP3    H1 8052   3.432   5.861   3.652
 2682TIP3    H2 8053   3.478   5.763   3.546
 2683TIP3   OH2 8054   2.911   3.314   1.571
 2683TIP3    H1 8055   2.963   3.279   1.499
 2683TIP3    H2 8056   2.971   3.318   1.645
 2684TIP3   OH2 8057   6.106   4.862   3.520
 2684TIP3    H1 8058   6.174   4.927   3.501
 2684TIP3    H2 8059   6.060   4.851   3.437
 2685TIP3   OH2 8060   4.286   5.017   0.883
 2685TIP3    H1 8061   4.319   5.006   0.794
 2685TIP3    H2 8062   4.229   5.094   0.878
 2686TIP3   OH2 8063   5.517   5.266   1.100
 2686TIP3    H1 8064   5.547   5.357   1.094
 2686TIP3    H2 8065   5.471   5.262   1.184
 2687TIP3   OH2 8066   4.504   5.528   2.164
 2687TIP3    H1 8067   4.471   5.528   2.254
 2687TIP3    H2 8068   4.584   5.475   2.168
 2688TIP3   OH2 8069   3.634   1.884   5.098
 2688TIP3    H1 8070   3.562   1.834   5.060
 2688TIP3    H2 8071   3.709   1.824   5.094
 2689TIP3   OH2 8072   1.133   5.398   1.441
 2689TIP3    H1 8073   1.119   5.365   1.530
 2689TIP3    H2 8074   1.047   5.394   1.400
 2690TIP3   OH2 8075   0.992   2.061   2.046
 2690TIP3    H1 8076   1.068   2.065   1.988
 2690TIP3    H2 8077   0.930   2.124   2.010
 2691TIP3   OH2 8078   1.599   4.618   3.732
 2691TIP3    H1 8079   1.681   4.667   3.738
 2691TIP3    H2 8080   1.586   4.582   3.819
 2692TIP3   OH2 8081   5.934   0.511   2.839
 2692TIP3    H1 8082   5.983   0.551   2.911
 2692TIP3    H2 8083   5.863   0.573   2.821
 2693TIP3   OH2 8084   6.066   4.895   3.795
 2693TIP3    H1 8085   6.162   4.893   3.806
 2693TIP3    H2 8086   6.053   4.885   3.701
 2694TIP3   OH2 8087   5.176   4.979   4.614
 2694TIP3    H1 8088   5.162   5.042   4.685
 2694TIP3    H2 8089   5.141   4.897   4.648
 2695TIP3   OH2 8090   3.958   5.246   3.616
 2695TIP3    H1 8091   4.009   5.168   3.596
 2695TIP3    H2 8092   3.892   5.215   3.678
 2696TIP3   OH2 8093   4.688   2.627   4.721
 2696TIP3    H1 8094   4.716   2.604   4.809
 2696TIP3    H2 8095   4.624   2.559   4.698
 2697TIP3   OH2 8096   4.008   4.615   0.999
 2697TIP3    H1 8097   4.037   4.674   0.929
 2697TIP3    H2 8098   4.000   4.672   1.076
 2698TIP3   OH2 8099   1.395   5.329   1.310
 2698TIP3    H1 8100   1.460   5.400   1.313
 2698TIP3    H2 8101   1.329   5.354   1.375
 2699TIP3   OH2 8102   1.475   0.822   4.501
 2699TIP3    H1 8103   1.511   0.910   4.507
 2699TIP3    H2 8104   1.451   0.812   4.409
 2700TIP3   OH2 8105   2.609   3.473   2.442
 2700TIP3    H1 8106   2.579   3.436   2.525
 2700TIP3    H2 8107   2.648   3.399   2.396
 2701TIP3   OH2 8108   1.589   4.952   2.937
 2701TIP3    H1 8109   1.672   4.929   2.895
 2701TIP3    H2 8110   1.615   5.008   3.011
 2702TIP3   OH2 8111   2.206   3.337   1.796
 2702TIP3    H1 8112   2.156   3.337   1.878
 2702TIP3    H2 8113   2.279   3.277   1.813
 2703TIP3   OH2 8114   3.009   0.282   0.836
 2703TIP3    H1 8115   3.086   0.226   0.841
 2703TIP3    H2 8116   2.951   0.237   0.774
 2704TIP3   OH2 8117   4.845   1.332   3.129
 2704TIP3    H1 8118   4.808   1.403   3.182
 2704TIP3    H2 8119   4.889   1.276   3.193
 2705TIP3   OH2 8120   3.421   4.525   3.116
 2705TIP3    H1 8121   3.328   4.506   3.113
 2705TIP3    H2 8122   3.461   4.447   3.153
 2706TIP3   OH2 8123   2.379   2.804   0.400
 2706TIP3    H1 8124   2.454   2.751   0.425
 2706TIP3    H2 8125   2.304   2.745   0.407
 2707TIP3   OH2 8126   4.341   4.473   3.636
 2707TIP3    H1 8127   4.280   4.544   3.618
 2707TIP3    H2 8128   4.369   4.487   3.726
 2708TIP3   OH2 8129   3.981   2.852   4.260
 2708TIP3    H1 8130   3.929   2.781   4.297
 2708TIP3    H2 8131   4.068   2.815   4.249
 2709TIP3   OH2 8132   2.038   1.695   3.284
 2709TIP3    H1 8133   2.036   1.663   3.194
 2709TIP3    H2 8134   2.030   1.790   3.277
 2710TIP3   OH2 8135   3.837   3.745   2.862
 2710TIP3    H1 8136   3.835   3.778   2.772
 2710TIP3    H2 8137   3.909   3.682   2.863
 2711TIP3   OH2 8138   1.003   3.945   4.871
 2711TIP3    H1 8139   0.980   3.881   4.938
 2711TIP3    H2 8140   0.936   4.013   4.878
 2712TIP3   OH2 8141   3.939   4.541   2.041
 2712TIP3    H1 8142   3.954   4.592   1.962
 2712TIP3    H2 8143   3.941   4.450   2.012
 2713TIP3   OH2 8144   4.502   4.396   2.245
 2713TIP3    H1 8145   4.491   4.486   2.277
 2713TIP3    H2 8146   4.493   4.404   2.150
 2714TIP3   OH2 8147   3.425   5.599   4.451
 2714TIP3    H1 8148   3.355   5.661   4.473
 2714TIP3    H2 8149   3.379   5.523   4.417
 2715TIP3   OH2 8150   5.950   5.368   0.720
 2715TIP3    H1 8151   5.981   5.280   0.742
 2715TIP3    H2 8152   5.870   5.378   0.772
 2716TIP3   OH2 8153   1.825   2.500   4.672
 2716TIP3    H1 8154   1.780   2.578   4.639
 2716TIP3    H2 8155   1.819   2.436   4.601
 2717TIP3   OH2 8156   0.245   5.328   0.555
 2717TIP3    H1 8157   0.287   5.293   0.476
 2717TIP3    H2 8158   0.180   5.262   0.579
 2718TIP3   OH2 8159   1.093   2.699   0.885
 2718TIP3    H1 8160   1.045   2.723   0.965
 2718TIP3    H2 8161   1.182   2.731   0.901
 2719TIP3   OH2 8162   1.125   2.679   0.614
 2719TIP3    H1 8163   1.210   2.642   0.637
 2719TIP3    H2 8164   1.086   2.706   0.697
 2720TIP3   OH2 8165   6.143   3.183   3.446
 2720TIP3    H1 8166   6.071   3.127   3.415
 2720TIP3    H2 8167   6.199   3.124   3.497
 2721TIP3   OH2 8168   0.742   2.528   0.002
 2721TIP3    H1 8169   0.805   2.596  -0.024
 2721TIP3    H2 8170   0.772   2.499   0.088
 2722TIP3   OH2 8171   5.074   0.364   3.124
 2722TIP3    H1 8172   5.085   0.445   3.073
 2722TIP3    H2 8173   5.162   0.339   3.149
 2723TIP3   OH2 8174   0.814   4.095   2.583
 2723TIP3    H1 8175   0.837   4.146   2.505
 2723TIP3    H2 8176   0.863   4.012   2.573
 2724TIP3   OH2 8177   2.884   1.509   1.709
 2724TIP3    H1 8178   2.948   1.568   1.670
 2724TIP3    H2 8179   2.917   1.421   1.691
 2725TIP3   OH2 8180   5.625   0.209   0.626
 2725TIP3    H1 8181   5.651   0.131   0.576
 2725TIP3    H2 8182   5.654   0.191   0.716
 2726TIP3   OH2 8183   0.273   5.494   4.919
 2726TIP3    H1 8184   0.267   5.470   5.012
 2726TIP3    H2 8185   0.361   5.529   4.910
 2727TIP3   OH2 8186   0.584   3.583   3.095
 2727TIP3    H1 8187   0.552   3.625   3.015
 2727TIP3    H2 8188   0.585   3.653   3.160
 2728TIP3   OH2 8189   0.414   1.795   0.548
 2728TIP3    H1 8190   0.354   1.722   0.533
 2728TIP3    H2 8191   0.447   1.817   0.461
 2729TIP3   OH2 8192   0.864   0.577   0.140
 2729TIP3    H1 8193   0.934   0.540   0.085
 2729TIP3    H2 8194   0.871   0.671   0.126
 2730TIP3   OH2 8195   4.259   1.284   0.078
 2730TIP3    H1 8196   4.285   1.192   0.078
 2730TIP3    H2 8197   4.166   1.283   0.054
 2731TIP3   OH2 8198   3.333   3.080   2.839
 2731TIP3    H1 8199   3.313   3.159   2.890
 2731TIP3    H2 8200   3.347   3.012   2.905
 2732TIP3   OH2 8201   0.354   1.723   4.402
 2732TIP3    H1 8202   0.298   1.800   4.394
 2732TIP3    H2 8203   0.349   1.681   4.317
 2733TIP3   OH2 8204   1.010   5.458   4.389
 2733TIP3    H1 8205   1.046   5.461   4.300
 2733TIP3    H2 8206   1.084   5.434   4.444
 2734TIP3   OH2 8207   0.270   0.799   4.585
 2734TIP3    H1 8208   0.232   0.769   4.503
 2734TIP3    H2 8209   0.211   0.868   4.615
 2735TIP3   OH2 8210   4.635   2.064   0.063
 2735TIP3    H1 8211   4.708   2.007   0.037
 2735TIP3    H2 8212   4.616   2.037   0.153
 2736TIP3   OH2 8213   4.952   1.328   3.737
 2736TIP3    H1 8214   4.990   1.253   3.692
 2736TIP3    H2 8215   4.924   1.294   3.822
 2737TIP3   OH2 8216   2.294   2.517   4.538
 2737TIP3    H1 8217   2.236   2.592   4.546
 2737TIP3    H2 8218   2.366   2.548   4.483
 2738TIP3   OH2 8219   3.996   5.027   2.192
 2738TIP3    H1 8220   4.034   5.053   2.276
 2738TIP3    H2 8221   4.050   5.072   2.127
 2739TIP3   OH2 8222   0.770   1.304   3.066
 2739TIP3    H1 8223   0.700   1.367   3.053
 2739TIP3    H2 8224   0.727   1.225   3.099
 2740TIP3   OH2 8225   0.241   4.286   0.104
 2740TIP3    H1 8226   0.314   4.233   0.074
 2740TIP3    H2 8227   0.184   4.295   0.028
 2741TIP3   OH2 8228   5.145   4.926   1.785
 2741TIP3    H1 8229   5.073   4.966   1.833
 2741TIP3    H2 8230   5.167   4.847   1.835
 2742TIP3   OH2 8231   2.025   1.133   3.802
 2742TIP3    H1 8232   2.098   1.118   3.863
 2742TIP3    H2 8233   1.949   1.146   3.858
 2743TIP3   OH2 8234   5.785   0.058   4.861
 2743TIP3    H1 8235   5.808   0.085   4.772
 2743TIP3    H2 8236   5.690   0.044   4.858
 2744TIP3   OH2 8237   2.303   3.318   2.198
 2744TIP3    H1 8238   2.274   3.409   2.206
 2744TIP3    H2 8239   2.390   3.324   2.160
 2745TIP3   OH2 8240   5.702   2.070   1.975
 2745TIP3    H1 8241   5.740   2.144   2.023
 2745TIP3    H2 8242   5.648   2.111   1.908
 2746TIP3   OH2 8243   3.660   0.618   0.627
 2746TIP3    H1 8244   3.625   0.696   0.584
 2746TIP3    H2 8245   3.662   0.641   0.720
 2747TIP3   OH2 8246   3.929   4.047   2.028
 2747TIP3    H1 8247   3.907   4.066   2.119
 2747TIP3    H2 8248   3.923   3.951   2.021
 2748TIP3   OH2 8249   5.557   3.855   4.761
 2748TIP3    H1 8250   5.501   3.921   4.720
 2748TIP3    H2 8251   5.638   3.857   4.711
 2749TIP3   OH2 8252   4.536   2.692   2.237
 2749TIP3    H1 8253   4.545   2.665   2.146
 2749TIP3    H2 8254   4.603   2.643   2.284
 2750TIP3   OH2 8255   0.589   3.106   1.433
 2750TIP3    H1 8256   0.603   3.012   1.432
 2750TIP3    H2 8257   0.676   3.144   1.445
 2751TIP3   OH2 8258   3.490   0.953   0.636
 2751TIP3    H1 8259   3.431   0.895   0.684
 2751TIP3    H2 8260   3.451   1.040   0.644
 2752TIP3   OH2 8261   1.534   2.116   0.253
 2752TIP3    H1 8262   1.519   2.023   0.269
 2752TIP3    H2 8263   1.446   2.154   0.249
 2753TIP3   OH2 8264   6.184   4.921   1.324
 2753TIP3    H1 8265   6.104   4.884   1.362
 2753TIP3    H2 8266   6.157   5.007   1.292
 2754TIP3   OH2 8267   2.272   4.916   4.012
 2754TIP3    H1 8268   2.177   4.912   3.997
 2754TIP3    H2 8269   2.282   4.960   4.096
 2755TIP3   OH2 8270   4.164   5.009   3.774
 2755TIP3    H1 8271   4.216   5.056   3.709
 2755TIP3    H2 8272   4.190   5.049   3.858
 2756TIP3   OH2 8273   0.413   1.441   5.189
 2756TIP3    H1 8274   0.468   1.381   5.139
 2756TIP3    H2 8275   0.337   1.389   5.214
 2757TIP3   OH2 8276   5.103   3.209   3.097
 2757TIP3    H1 8277   5.160   3.217   3.173
 2757TIP3    H2 8278   5.031   3.271   3.114
 2758TIP3   OH2 8279   2.590   2.732   4.141
 2758TIP3    H1 8280   2.672   2.735   4.091
 2758TIP3    H2 8281   2.533   2.793   4.096
 2759TIP3   OH2 8282   2.406   2.842   4.459
 2759TIP3    H1 8283   2.497   2.835   4.431
 2759TIP3    H2 8284   2.411   2.861   4.552
 2760TIP3   OH2 8285   6.039   2.028   0.110
 2760TIP3    H1 8286   6.122   2.000   0.151
 2760TIP3    H2 8287   5.977   2.031   0.182
 2761TIP3   OH2 8288   2.745   2.729   3.482
 2761TIP3    H1 8289   2.772   2.760   3.395
 2761TIP3    H2 8290   2.777   2.797   3.542
 2762TIP3   OH2 8291   4.655   1.202   0.150
 2762TIP3    H1 8292   4.624   1.273   0.093
 2762TIP3    H2 8293   4.745   1.226   0.171
 2763TIP3   OH2 8294   4.751   4.191   0.843
 2763TIP3    H1 8295   4.740   4.273   0.794
 2763TIP3    H2 8296   4.785   4.129   0.779
 2764TIP3   OH2 8297   0.592   5.708   3.821
 2764TIP3    H1 8298   0.623   5.619   3.801
 2764TIP3    H2 8299   0.665   5.765   3.798
 2765TIP3   OH2 8300   0.168   1.692   1.806
 2765TIP3    H1 8301   0.073   1.698   1.814
 2765TIP3    H2 8302   0.183   1.614   1.754
 2766TIP3   OH2 8303   4.828   0.221   4.627
 2766TIP3    H1 8304   4.747   0.266   4.601
 2766TIP3    H2 8305   4.897   0.285   4.609
 2767TIP3   OH2 8306   2.848   0.198   1.209
 2767TIP3    H1 8307   2.907   0.212   1.284
 2767TIP3    H2 8308   2.793   0.276   1.208
 2768TIP3   OH2 8309   1.669   3.759   2.618
 2768TIP3    H1 8310   1.590   3.705   2.606
 2768TIP3    H2 8311   1.675   3.772   2.712
 2769TIP3   OH2 8312   3.804   1.004   4.709
 2769TIP3    H1 8313   3.720   1.009   4.754
 2769TIP3    H2 8314   3.808   0.915   4.674
 2770TIP3   OH2 8315   5.274   1.319   2.743
 2770TIP3    H1 8316   5.331   1.299   2.670
 2770TIP3    H2 8317   5.259   1.414   2.738
 2771TIP3   OH2 8318   6.101   4.043   0.043
 2771TIP3    H1 8319   6.051   3.962   0.043
 2771TIP3    H2 8320   6.054   4.100   0.104
 2772TIP3   OH2 8321   1.311   2.409   1.816
 2772TIP3    H1 8322   1.224   2.448   1.820
 2772TIP3    H2 8323   1.362   2.468   1.760
 2773TIP3   OH2 8324   5.885   0.651   4.948
 2773TIP3    H1 8325   5.805   0.621   4.992
 2773TIP3    H2 8326   5.854   0.686   4.865
 2774TIP3   OH2 8327   3.647   3.677   0.840
 2774TIP3    H1 8328   3.679   3.593   0.874
 2774TIP3    H2 8329   3.727   3.729   0.826
 2775TIP3   OH2 8330   0.956   4.671   4.391
 2775TIP3    H1 8331   0.898   4.719   4.450
 2775TIP3    H2 8332   0.954   4.581   4.422
 2776TIP3   OH2 8333   1.574   1.554   0.280
 2776TIP3    H1 8334   1.510   1.493   0.242
 2776TIP3    H2 8335   1.650   1.499   0.299
 2777TIP3   OH2 8336   6.110   1.573   2.821
 2777TIP3    H1 8337   6.163   1.651   2.803
 2777TIP3    H2 8338   6.129   1.551   2.912
 2778TIP3   OH2 8339   2.618   3.933   0.409
 2778TIP3    H1 8340   2.535   3.966   0.444
 2778TIP3    H2 8341   2.600   3.912   0.318
 2779TIP3   OH2 8342   2.022   5.056   2.467
 2779TIP3    H1 8343   2.107   5.070   2.425
 2779TIP3    H2 8344   1.960   5.103   2.412
 2780TIP3   OH2 8345   4.454   1.581   2.355
 2780TIP3    H1 8346   4.498   1.545   2.278
 2780TIP3    H2 8347   4.496   1.536   2.429
 2781TIP3   OH2 8348   6.090   5.355   4.316
 2781TIP3    H1 8349   6.163   5.397   4.271
 2781TIP3    H2 8350   6.015   5.370   4.258
 2782TIP3   OH2 8351   1.425   4.556   1.522
 2782TIP3    H1 8352   1.398   4.487   1.461
 2782TIP3    H2 8353   1.495   4.602   1.477
 2783TIP3   OH2 8354  -0.035   2.885   0.446
 2783TIP3    H1 8355  -0.077   2.881   0.533
 2783TIP3    H2 8356   0.055   2.859   0.463
 2784TIP3   OH2 8357   5.881   0.912   0.671
 2784TIP3    H1 8358   5.815   0.961   0.622
 2784TIP3    H2 8359   5.882   0.826   0.630
 2785TIP3   OH2 8360   0.173   3.171   1.644
 2785TIP3    H1 8361   0.141   3.145   1.558
 2785TIP3    H2 8362   0.112   3.239   1.673
 2786TIP3   OH2 8363   6.331   3.507   3.544
 2786TIP3    H1 8364   6.264   3.503   3.476
 2786TIP3    H2 8365   6.289   3.468   3.621
 2787TIP3   OH2 8366   5.466   3.575   1.331
 2787TIP3    H1 8367   5.469   3.575   1.427
 2787TIP3    H2 8368   5.502   3.490   1.306
 2788TIP3   OH2 8369   0.287   3.263   0.441
 2788TIP3    H1 8370   0.299   3.229   0.530
 2788TIP3    H2 8371   0.220   3.330   0.450
 2789TIP3   OH2 8372   0.496   2.107   1.519
 2789TIP3    H1 8373   0.535   2.070   1.440
 2789TIP3    H2 8374   0.457   2.190   1.491
 2790TIP3   OH2 8375   3.696   2.056   1.930
 2790TIP3    H1 8376   3.632   1.989   1.907
 2790TIP3    H2 8377   3.754   2.061   1.854
 2791TIP3   OH2 8378   5.838   4.613   2.871
 2791TIP3    H1 8379   5.826   4.593   2.964
 2791TIP3    H2 8380   5.933   4.608   2.858
 2792TIP3   OH2 8381   3.905   1.186   3.376
 2792TIP3    H1 8382   3.954   1.115   3.335
 2792TIP3    H2 8383   3.909   1.258   3.313
 2793TIP3   OH2 8384   4.473   1.221   0.581
 2793TIP3    H1 8385   4.477   1.275   0.502
 2793TIP3    H2 8386   4.414   1.268   0.639
 2794TIP3   OH2 8387   2.230   4.581   3.372
 2794TIP3    H1 8388   2.295   4.622   3.429
 2794TIP3    H2 8389   2.238   4.488   3.391
 2795TIP3   OH2 8390   3.869   3.506   5.040
 2795TIP3    H1 8391   3.879   3.596   5.070
 2795TIP3    H2 8392   3.781   3.503   5.003
 2796TIP3   OH2 8393   4.965   0.797   3.058
 2796TIP3    H1 8394   4.965   0.722   2.998
 2796TIP3    H2 8395   5.034   0.854   3.024
 2797TIP3   OH2 8396   4.904   1.057   2.789
 2797TIP3    H1 8397   4.902   1.041   2.695
 2797TIP3    H2 8398   4.815   1.082   2.811
 2798TIP3   OH2 8399   0.096   4.124   4.421
 2798TIP3    H1 8400   0.163   4.135   4.353
 2798TIP3    H2 8401   0.136   4.065   4.485
 2799TIP3   OH2 8402   3.405   5.162   2.619
 2799TIP3    H1 8403   3.350   5.173   2.541
 2799TIP3    H2 8404   3.487   5.205   2.597
 2800TIP3   OH2 8405   0.829   1.402  -0.003
 2800TIP3    H1 8406   0.735   1.409  -0.018
 2800TIP3    H2 8407   0.858   1.491   0.013
 2801TIP3   OH2 8408   0.198   1.655   0.452
 2801TIP3    H1 8409   0.199   1.618   0.364
 2801TIP3    H2 8410   0.115   1.702   0.458
 2802TIP3   OH2 8411   4.107   2.640   1.195
 2802TIP3    H1 8412   4.033   2.650   1.255
 2802TIP3    H2 8413   4.179   2.685   1.238
 2803TIP3   OH2 8414   3.808   2.931   5.288
 2803TIP3    H1 8415   3.889   2.940   5.237
 2803TIP3    H2 8416   3.813   2.844   5.326
 2804TIP3   OH2 8417   5.230   1.600   4.920
 2804TIP3    H1 8418   5.154   1.561   4.877
 2804TIP3    H2 8419   5.298   1.602   4.853
 2805TIP3   OH2 8420   5.535   3.071   1.733
 2805TIP3    H1 8421   5.617   3.081   1.780
 2805TIP3    H2 8422   5.555   3.098   1.643
 2806TIP3   OH2 8423   6.129   3.572   3.339
 2806TIP3    H1 8424   6.034   3.575   3.334
 2806TIP3    H2 8425   6.155   3.519   3.264
 2807TIP3   OH2 8426   5.832   5.766   0.729
 2807TIP3    H1 8427   5.771   5.822   0.681
 2807TIP3    H2 8428   5.776   5.716   0.789
 2808TIP3   OH2 8429   0.198   3.168   4.433
 2808TIP3    H1 8430   0.222   3.224   4.507
 2808TIP3    H2 8431   0.223   3.080   4.460
 2809TIP3   OH2 8432   1.036   3.032   2.331
 2809TIP3    H1 8433   1.103   3.042   2.398
 2809TIP3    H2 8434   0.976   2.965   2.366
 2810TIP3   OH2 8435   5.391   5.369   3.354
 2810TIP3    H1 8436   5.431   5.336   3.435
 2810TIP3    H2 8437   5.308   5.407   3.382
 2811TIP3   OH2 8438   1.797   5.364   3.760
 2811TIP3    H1 8439   1.755   5.375   3.675
 2811TIP3    H2 8440   1.884   5.404   3.749
 2812TIP3   OH2 8441   0.497   2.455   3.586
 2812TIP3    H1 8442   0.535   2.541   3.566
 2812TIP3    H2 8443   0.544   2.394   3.529
 2813TIP3   OH2 8444   3.334   1.633   2.535
 2813TIP3    H1 8445   3.245   1.600   2.546
 2813TIP3    H2 8446   3.369   1.635   2.624
 2814TIP3   OH2 8447   5.635   1.418   3.612
 2814TIP3    H1 8448   5.581   1.419   3.533
 2814TIP3    H2 8449   5.593   1.481   3.671
 2815TIP3   OH2 8450   5.657   1.478   0.882
 2815TIP3    H1 8451   5.645   1.388   0.912
 2815TIP3    H2 8452   5.640   1.474   0.788
 2816TIP3   OH2 8453   3.921   5.195   1.944
 2816TIP3    H1 8454   3.886   5.106   1.945
 2816TIP3    H2 8455   4.011   5.185   1.912
 2817TIP3   OH2 8456   2.332   3.343   5.026
 2817TIP3    H1 8457   2.281   3.413   5.067
 2817TIP3    H2 8458   2.412   3.338   5.079
 2818TIP3   OH2 8459   5.356   5.242   2.877
 2818TIP3    H1 8460   5.358   5.207   2.788
 2818TIP3    H2 8461   5.278   5.298   2.879
 2819TIP3   OH2 8462   1.724   5.408   4.976
 2819TIP3    H1 8463   1.707   5.321   5.011
 2819TIP3    H2 8464   1.638   5.451   4.978
 2820TIP3   OH2 8465   5.487   0.970   2.865
 2820TIP3    H1 8466   5.510   1.003   2.778
 2820TIP3    H2 8467   5.517   1.038   2.925
 2821TIP3   OH2 8468   5.396   1.745   1.576
 2821TIP3    H1 8469   5.335   1.688   1.528
 2821TIP3    H2 8470   5.476   1.742   1.525
 2822TIP3   OH2 8471   0.879   3.782   2.909
 2822TIP3    H1 8472   0.916   3.736   2.985
 2822TIP3    H2 8473   0.808   3.834   2.944
 2823TIP3   OH2 8474   2.871   0.175   0.609
 2823TIP3    H1 8475   2.836   0.259   0.580
 2823TIP3    H2 8476   2.794   0.120   0.622
 2824TIP3   OH2 8477   4.223   5.186   3.977
 2824TIP3    H1 8478   4.278   5.224   4.045
 2824TIP3    H2 8479   4.147   5.243   3.973
 2825TIP3   OH2 8480   3.990   3.215   0.835
 2825TIP3    H1 8481   4.035   3.133   0.857
 2825TIP3    H2 8482   4.027   3.240   0.750
 2826TIP3   OH2 8483   3.174   5.877   0.356
 2826TIP3    H1 8484   3.242   5.821   0.394
 2826TIP3    H2 8485   3.117   5.899   0.429
 2827TIP3   OH2 8486   5.389   4.991   2.973
 2827TIP3    H1 8487   5.315   4.969   2.916
 2827TIP3    H2 8488   5.407   5.083   2.953
 2828TIP3   OH2 8489   5.412   4.589   2.002
 2828TIP3    H1 8490   5.501   4.583   2.036
 2828TIP3    H2 8491   5.420   4.642   1.923
 2829TIP3   OH2 8492   2.564   2.636   0.455
 2829TIP3    H1 8493   2.575   2.574   0.383
 2829TIP3    H2 8494   2.635   2.615   0.516
 2830TIP3   OH2 8495   4.567   5.945   2.878
 2830TIP3    H1 8496   4.557   6.030   2.834
 2830TIP3    H2 8497   4.503   5.948   2.949
 2831TIP3   OH2 8498   3.035   0.943   2.534
 2831TIP3    H1 8499   3.075   1.023   2.568
 2831TIP3    H2 8500   2.979   0.912   2.605
 2832TIP3   OH2 8501   5.161   2.574   0.802
 2832TIP3    H1 8502   5.135   2.482   0.793
 2832TIP3    H2 8503   5.201   2.578   0.889
 2833TIP3   OH2 8504   0.632   1.724   4.862
 2833TIP3    H1 8505   0.584   1.671   4.800
 2833TIP3    H2 8506   0.646   1.808   4.817
 2834TIP3   OH2 8507   1.044   5.244   1.035
 2834TIP3    H1 8508   1.082   5.331   1.048
 2834TIP3    H2 8509   1.055   5.226   0.941
 2835TIP3   OH2 8510   1.555   2.736   3.143
 2835TIP3    H1 8511   1.526   2.674   3.076
 2835TIP3    H2 8512   1.615   2.684   3.197
 2836TIP3   OH2 8513   4.845   3.642   1.874
 2836TIP3    H1 8514   4.919   3.592   1.910
 2836TIP3    H2 8515   4.828   3.601   1.789
 2837TIP3   OH2 8516   0.007   2.827   5.065
 2837TIP3    H1 8517   0.102   2.833   5.060
 2837TIP3    H2 8518  -0.014   2.848   5.156
 2838TIP3   OH2 8519   6.297   0.796   2.351
 2838TIP3    H1 8520   6.233   0.806   2.280
 2838TIP3    H2 8521   6.379   0.831   2.315
 2839TIP3   OH2 8522   2.839   1.476   0.027
 2839TIP3    H1 8523   2.854   1.505   0.117
 2839TIP3    H2 8524   2.858   1.382   0.029
 2840TIP3   OH2 8525   0.962   0.665   4.541
 2840TIP3    H1 8526   0.927   0.647   4.628
 2840TIP3    H2 8527   1.022   0.593   4.523
 2841TIP3   OH2 8528   2.308   4.137   1.706
 2841TIP3    H1 8529   2.390   4.125   1.659
 2841TIP3    H2 8530   2.311   4.071   1.776
 2842TIP3   OH2 8531   3.941   0.909   0.494
 2842TIP3    H1 8532   3.962   0.834   0.438
 2842TIP3    H2 8533   4.000   0.899   0.569
 2843TIP3   OH2 8534   0.983   5.043   4.148
 2843TIP3    H1 8535   1.047   5.055   4.078
 2843TIP3    H2 8536   1.014   4.967   4.197
 2844TIP3   OH2 8537   5.506   0.303   3.869
 2844TIP3    H1 8538   5.470   0.228   3.917
 2844TIP3    H2 8539   5.601   0.293   3.875
 2845TIP3   OH2 8540   5.887   2.321   2.133
 2845TIP3    H1 8541   5.917   2.373   2.058
 2845TIP3    H2 8542   5.956   2.332   2.198
 2846TIP3   OH2 8543   3.857   4.932   3.507
 2846TIP3    H1 8544   3.828   4.961   3.594
 2846TIP3    H2 8545   3.776   4.926   3.456
 2847TIP3   OH2 8546   2.589   3.039   4.213
 2847TIP3    H1 8547   2.661   2.977   4.213
 2847TIP3    H2 8548   2.601   3.088   4.131
 2848TIP3   OH2 8549   1.990   0.476   0.734
 2848TIP3    H1 8550   1.937   0.455   0.811
 2848TIP3    H2 8551   2.029   0.392   0.710
 2849TIP3   OH2 8552   6.117   1.948   4.718
 2849TIP3    H1 8553   6.179   1.934   4.646
 2849TIP3    H2 8554   6.083   1.861   4.738
 2850TIP3   OH2 8555   2.423   1.242   4.110
 2850TIP3    H1 8556   2.440   1.163   4.162
 2850TIP3    H2 8557   2.509   1.270   4.080
 2851TIP3   OH2 8558   3.087   1.586   1.544
 2851TIP3    H1 8559   3.121   1.676   1.543
 2851TIP3    H2 8560   3.103   1.553   1.456
 2852TIP3   OH2 8561   0.119   1.562   2.697
 2852TIP3    H1 8562   0.058   1.543   2.625
 2852TIP3    H2 8563   0.198   1.595   2.654
 2853TIP3   OH2 8564   4.054   0.674   0.004
 2853TIP3    H1 8565   4.061   0.770   0.009
 2853TIP3    H2 8566   4.091   0.643   0.087
 2854TIP3   OH2 8567   6.267   4.493   3.084
 2854TIP3    H1 8568   6.338   4.558   3.088
 2854TIP3    H2 8569   6.301   4.425   3.026
 2855TIP3   OH2 8570   1.428   3.414   3.402
 2855TIP3    H1 8571   1.506   3.406   3.346
 2855TIP3    H2 8572   1.383   3.331   3.392
 2856TIP3   OH2 8573   5.790   3.798   4.638
 2856TIP3    H1 8574   5.878   3.835   4.644
 2856TIP3    H2 8575   5.798   3.725   4.576
 2857TIP3   OH2 8576   1.457   2.098   1.861
 2857TIP3    H1 8577   1.465   2.157   1.937
 2857TIP3    H2 8578   1.507   2.141   1.792
 2858TIP3   OH2 8579   0.177   2.286   3.487
 2858TIP3    H1 8580   0.205   2.332   3.408
 2858TIP3    H2 8581   0.082   2.291   3.486
 2859TIP3   OH2 8582   4.464   0.337   2.464
 2859TIP3    H1 8583   4.509   0.268   2.513
 2859TIP3    H2 8584   4.440   0.295   2.381
 2860TIP3   OH2 8585   6.337   4.073   0.145
 2860TIP3    H1 8586   6.370   4.137   0.081
 2860TIP3    H2 8587   6.252   4.046   0.110
 2861TIP3   OH2 8588   0.214   2.643   2.817
 2861TIP3    H1 8589   0.146   2.582   2.790
 2861TIP3    H2 8590   0.168   2.708   2.871
 2862TIP3   OH2 8591   1.207   3.483   2.664
 2862TIP3    H1 8592   1.296   3.517   2.672
 2862TIP3    H2 8593   1.167   3.502   2.749
 2863TIP3   OH2 8594   4.585   4.559   3.563
 2863TIP3    H1 8595   4.563   4.613   3.488
 2863TIP3    H2 8596   4.501   4.522   3.592
 2864TIP3   OH2 8597   1.631   0.895   0.657
 2864TIP3    H1 8598   1.666   0.936   0.577
 2864TIP3    H2 8599   1.584   0.818   0.625
 2865TIP3   OH2 8600   0.259   3.295   3.950
 2865TIP3    H1 8601   0.211   3.249   4.019
 2865TIP3    H2 8602   0.271   3.230   3.881
 2866TIP3   OH2 8603   1.872   2.390   4.963
 2866TIP3    H1 8604   1.922   2.315   4.930
 2866TIP3    H2 8605   1.825   2.424   4.887
 2867TIP3   OH2 8606   3.788   5.105   2.449
 2867TIP3    H1 8607   3.779   5.033   2.387
 2867TIP3    H2 8608   3.873   5.144   2.430
 2868TIP3   OH2 8609   1.144   0.087   4.756
 2868TIP3    H1 8610   1.189   0.170   4.740
 2868TIP3    H2 8611   1.166   0.033   4.680
 2869TIP3   OH2 8612   5.685   4.833   2.146
 2869TIP3    H1 8613   5.632   4.775   2.201
 2869TIP3    H2 8614   5.644   4.829   2.060
 2870TIP3   OH2 8615   0.456   1.972   2.974
 2870TIP3    H1 8616   0.426   2.063   2.983
 2870TIP3    H2 8617   0.540   1.980   2.929
 2871TIP3   OH2 8618   3.289   0.332   3.132
 2871TIP3    H1 8619   3.371   0.334   3.182
 2871TIP3    H2 8620   3.246   0.415   3.154
 2872TIP3   OH2 8621   0.365   1.217   3.571
 2872TIP3    H1 8622   0.435   1.235   3.634
 2872TIP3    H2 8623   0.307   1.157   3.617
 2873TIP3   OH2 8624   0.202   2.587   4.711
 2873TIP3    H1 8625   0.216   2.680   4.694
 2873TIP3    H2 8626   0.113   2.582   4.747
 2874TIP3   OH2 8627   5.332   0.281   1.070
 2874TIP3    H1 8628   5.334   0.335   0.992
 2874TIP3    H2 8629   5.374   0.199   1.043
 2875TIP3   OH2 8630   4.589   4.144   0.110
 2875TIP3    H1 8631   4.616   4.124   0.021
 2875TIP3    H2 8632   4.623   4.072   0.162
 2876TIP3   OH2 8633   5.916   3.849   0.095
 2876TIP3    H1 8634   5.883   3.773   0.047
 2876TIP3    H2 8635   5.858   3.856   0.170
 2877TIP3   OH2 8636   4.610   2.957   5.058
 2877TIP3    H1 8637   4.532   3.001   5.022
 2877TIP3    H2 8638   4.582   2.867   5.072
 2878TIP3   OH2 8639   1.207   2.324   2.903
 2878TIP3    H1 8640   1.132   2.310   2.845
 2878TIP3    H2 8641   1.188   2.405   2.950
 2879TIP3   OH2 8642   1.074   5.407   0.492
 2879TIP3    H1 8643   1.063   5.386   0.399
 2879TIP3    H2 8644   1.015   5.480   0.508
 2880TIP3   OH2 8645   3.268   2.399   2.051
 2880TIP3    H1 8646   3.341   2.366   1.999
 2880TIP3    H2 8647   3.191   2.389   1.994
 2881TIP3   OH2 8648   0.143   0.949   0.800
 2881TIP3    H1 8649   0.196   1.025   0.823
 2881TIP3    H2 8650   0.203   0.893   0.750
 2882TIP3   OH2 8651   0.241   3.423   3.594
 2882TIP3    H1 8652   0.280   3.397   3.510
 2882TIP3    H2 8653   0.150   3.445   3.573
 2883TIP3   OH2 8654   6.102   4.967   2.218
 2883TIP3    H1 8655   6.055   4.903   2.271
 2883TIP3    H2 8656   6.132   5.033   2.282
 2884TIP3   OH2 8657   1.564   3.274   2.793
 2884TIP3    H1 8658   1.557   3.353   2.740
 2884TIP3    H2 8659   1.481   3.228   2.779
 2885TIP3   OH2 8660   1.434   2.549   2.138
 2885TIP3    H1 8661   1.472   2.556   2.225
 2885TIP3    H2 8662   1.398   2.636   2.120
 2886TIP3   OH2 8663   3.467   1.940   3.582
 2886TIP3    H1 8664   3.526   1.980   3.646
 2886TIP3    H2 8665   3.498   1.850   3.574
 2887TIP3   OH2 8666   2.714   3.594   4.900
 2887TIP3    H1 8667   2.688   3.507   4.868
 2887TIP3    H2 8668   2.667   3.655   4.843
 2888TIP3   OH2 8669   1.057   5.166   0.750
 2888TIP3    H1 8670   1.069   5.259   0.729
 2888TIP3    H2 8671   1.115   5.120   0.689
 2889TIP3   OH2 8672   4.245   0.466   4.573
 2889TIP3    H1 8673   4.335   0.500   4.567
 2889TIP3    H2 8674   4.231   0.452   4.667
 2890TIP3   OH2 8675   6.043   4.276   2.164
 2890TIP3    H1 8676   6.120   4.315   2.206
 2890TIP3    H2 8677   6.079   4.206   2.109
 2891TIP3   OH2 8678   3.034   2.035   3.159
 2891TIP3    H1 8679   3.000   2.112   3.113
 2891TIP3    H2 8680   2.961   2.005   3.213
 2892TIP3   OH2 8681   0.031   3.390   1.744
 2892TIP3    H1 8682   0.025   3.357   1.834
 2892TIP3    H2 8683   0.082   3.471   1.751
 2893TIP3   OH2 8684   1.286   0.328   4.752
 2893TIP3    H1 8685   1.307   0.399   4.812
 2893TIP3    H2 8686   1.300   0.365   4.664
 2894TIP3   OH2 8687   4.458   3.313   0.290
 2894TIP3    H1 8688   4.516   3.282   0.220
 2894TIP3    H2 8689   4.513   3.312   0.368
 2895TIP3   OH2 8690   3.334   0.254   2.592
 2895TIP3    H1 8691   3.369   0.342   2.608
 2895TIP3    H2 8692   3.405   0.207   2.549
 2896TIP3   OH2 8693   3.656   2.327   3.612
 2896TIP3    H1 8694   3.714   2.297   3.541
 2896TIP3    H2 8695   3.656   2.254   3.674
 2897TIP3   OH2 8696   2.593   4.804   5.183
 2897TIP3    H1 8697   2.682   4.827   5.209
 2897TIP3    H2 8698   2.583   4.712   5.209
 2898TIP3   OH2 8699   3.563   0.161   3.098
 2898TIP3    H1 8700   3.545   0.092   3.033
 2898TIP3    H2 8701   3.642   0.204   3.065
 2899TIP3   OH2 8702   1.362   2.548   0.705
 2899TIP3    H1 8703   1.410   2.471   0.673
 2899TIP3    H2 8704   1.394   2.561   0.794
 2900TIP3   OH2 8705   1.720   3.917   3.643
 2900TIP3    H1 8706   1.750   3.873   3.563
 2900TIP3    H2 8707   1.717   4.010   3.619
 2901TIP3   OH2 8708   2.590   4.161   1.009
 2901TIP3    H1 8709   2.539   4.235   1.042
 2901TIP3    H2 8710   2.632   4.193   0.930
 2902TIP3   OH2 8711   4.584   4.299   2.588
 2902TIP3    H1 8712   4.670   4.321   2.552
 2902TIP3    H2 8713   4.569   4.209   2.561
 2903TIP3   OH2 8714   6.243   5.925   2.594
 2903TIP3    H1 8715   6.207   5.851   2.643
 2903TIP3    H2 8716   6.270   5.888   2.510
 2904TIP3   OH2 8717  -0.021   2.847   4.199
 2904TIP3    H1 8718   0.011   2.936   4.212
 2904TIP3    H2 8719  -0.033   2.840   4.104
 2905TIP3   OH2 8720   5.564   5.717   2.708
 2905TIP3    H1 8721   5.510   5.644   2.678
 2905TIP3    H2 8722   5.503   5.777   2.751
 2906TIP3   OH2 8723   2.249   2.809   3.269
 2906TIP3    H1 8724   2.296   2.772   3.194
 2906TIP3    H2 8725   2.157   2.803   3.244
 2907TIP3   OH2 8726   5.553   3.514   5.034
 2907TIP3    H1 8727   5.483   3.567   5.072
 2907TIP3    H2 8728   5.621   3.577   5.010
 2908TIP3   OH2 8729   4.065   2.576   4.176
 2908TIP3    H1 8730   4.138   2.629   4.208
 2908TIP3    H2 8731   4.087   2.557   4.085
 2909TIP3   OH2 8732   3.778   2.571   3.193
 2909TIP3    H1 8733   3.834   2.644   3.166
 2909TIP3    H2 8734   3.745   2.598   3.279
 2910TIP3   OH2 8735   2.636   4.709   3.061
 2910TIP3    H1 8736   2.658   4.793   3.102
 2910TIP3    H2 8737   2.697   4.647   3.099
 2911TIP3   OH2 8738   2.510   4.743   1.158
 2911TIP3    H1 8739   2.544   4.795   1.085
 2911TIP3    H2 8740   2.475   4.806   1.220
 2912TIP3   OH2 8741   2.958   4.154   0.804
 2912TIP3    H1 8742   2.866   4.176   0.812
 2912TIP3    H2 8743   2.998   4.232   0.766
 2913TIP3   OH2 8744   3.681   5.287   4.383
 2913TIP3    H1 8745   3.739   5.245   4.447
 2913TIP3    H2 8746   3.733   5.293   4.303
 2914TIP3   OH2 8747   2.998   0.660   0.470
 2914TIP3    H1 8748   2.935   0.733   0.469
 2914TIP3    H2 8749   3.079   0.699   0.502
 2915TIP3   OH2 8750   3.585   0.696   3.634
 2915TIP3    H1 8751   3.638   0.695   3.554
 2915TIP3    H2 8752   3.588   0.788   3.662
 2916TIP3   OH2 8753   0.220   4.937   0.484
 2916TIP3    H1 8754   0.243   4.939   0.577
 2916TIP3    H2 8755   0.283   4.995   0.442
 2917TIP3   OH2 8756   5.237   4.468   0.697
 2917TIP3    H1 8757   5.310   4.485   0.638
 2917TIP3    H2 8758   5.254   4.380   0.731
 2918TIP3   OH2 8759   0.510   2.936   1.671
 2918TIP3    H1 8760   0.418   2.911   1.665
 2918TIP3    H2 8761   0.547   2.875   1.735
 2919TIP3   OH2 8762   4.839   1.806  -0.010
 2919TIP3    H1 8763   4.840   1.718   0.029
 2919TIP3    H2 8764   4.903   1.855   0.041
 2920TIP3   OH2 8765   4.152   1.227   0.864
 2920TIP3    H1 8766   4.077   1.245   0.807
 2920TIP3    H2 8767   4.184   1.141   0.834
 2921TIP3   OH2 8768   3.520   5.422   2.800
 2921TIP3    H1 8769   3.425   5.413   2.792
 2921TIP3    H2 8770   3.539   5.512   2.773
 2922TIP3   OH2 8771   5.863   4.367   1.737
 2922TIP3    H1 8772   5.839   4.360   1.645
 2922TIP3    H2 8773   5.785   4.339   1.785
 2923TIP3   OH2 8774   5.920   3.619   1.729
 2923TIP3    H1 8775   5.983   3.562   1.685
 2923TIP3    H2 8776   5.946   3.708   1.706
 2924TIP3   OH2 8777   5.812   0.338   0.971
 2924TIP3    H1 8778   5.881   0.283   1.008
 2924TIP3    H2 8779   5.776   0.286   0.898
 2925TIP3   OH2 8780   4.085   3.165   3.216
 2925TIP3    H1 8781   4.041   3.223   3.278
 2925TIP3    H2 8782   4.057   3.077   3.241
 2926TIP3   OH2 8783   3.714   4.513   0.392
 2926TIP3    H1 8784   3.803   4.535   0.419
 2926TIP3    H2 8785   3.715   4.522   0.297
 2927TIP3   OH2 8786   0.246   6.031   2.785
 2927TIP3    H1 8787   0.187   5.988   2.847
 2927TIP3    H2 8788   0.278   5.961   2.728
 2928TIP3   OH2 8789   2.027   4.260   3.288
 2928TIP3    H1 8790   2.097   4.264   3.223
 2928TIP3    H2 8791   2.072   4.268   3.373
 2929TIP3   OH2 8792   3.551   2.267   0.146
 2929TIP3    H1 8793   3.504   2.321   0.209
 2929TIP3    H2 8794   3.600   2.330   0.093
 2930TIP3   OH2 8795   5.172   3.515   1.663
 2930TIP3    H1 8796   5.260   3.553   1.659
 2930TIP3    H2 8797   5.184   3.434   1.713
 2931TIP3   OH2 8798   2.679   5.359   0.370
 2931TIP3    H1 8799   2.615   5.421   0.336
 2931TIP3    H2 8800   2.673   5.284   0.311
 2932TIP3   OH2 8801   3.574   2.437   2.334
 2932TIP3    H1 8802   3.517   2.367   2.300
 2932TIP3    H2 8803   3.563   2.432   2.429
 2933TIP3   OH2 8804   1.673   1.515   4.322
 2933TIP3    H1 8805   1.767   1.507   4.311
 2933TIP3    H2 8806   1.641   1.544   4.236
 2934TIP3   OH2 8807   6.012   5.764   3.798
 2934TIP3    H1 8808   6.021   5.838   3.857
 2934TIP3    H2 8809   6.032   5.687   3.851
 2935TIP3   OH2 8810   0.793   3.671   4.855
 2935TIP3    H1 8811   0.735   3.711   4.919
 2935TIP3    H2 8812   0.881   3.685   4.891
 2936TIP3   OH2 8813   5.118   3.723   4.815
 2936TIP3    H1 8814   5.202   3.760   4.789
 2936TIP3    H2 8815   5.095   3.771   4.895
 2937TIP3   OH2 8816   3.255   1.139   2.573
 2937TIP3    H1 8817   3.305   1.196   2.514
 2937TIP3    H2 8818   3.196   1.199   2.619
 2938TIP3   OH2 8819   0.751   0.407   2.748
 2938TIP3    H1 8820   0.833   0.438   2.710
 2938TIP3    H2 8821   0.777   0.339   2.811
 2939TIP3   OH2 8822   3.502   0.494   3.845
 2939TIP3    H1 8823   3.588   0.451   3.845
 2939TIP3    H2 8824   3.520   0.584   3.871
 2940TIP3   OH2 8825   5.920   0.143   0.670
 2940TIP3    H1 8826   5.979   0.120   0.742
 2940TIP3    H2 8827   5.970   0.122   0.591
 2941TIP3   OH2 8828   1.067   1.244   3.798
 2941TIP3    H1 8829   1.053   1.284   3.884
 2941TIP3    H2 8830   1.062   1.317   3.737
 2942TIP3   OH2 8831   3.743   1.808   3.274
 2942TIP3    H1 8832   3.731   1.834   3.183
 2942TIP3    H2 8833   3.664   1.758   3.295
 2943TIP3   OH2 8834   5.095   3.495   2.658
 2943TIP3    H1 8835   5.014   3.547   2.661
 2943TIP3    H2 8836   5.074   3.416   2.708
 2944TIP3   OH2 8837   1.911   2.820   3.839
 2944TIP3    H1 8838   1.825   2.853   3.863
 2944TIP3    H2 8839   1.933   2.757   3.908
 2945TIP3   OH2 8840   2.893   5.209   4.747
 2945TIP3    H1 8841   2.838   5.280   4.713
 2945TIP3    H2 8842   2.879   5.211   4.842
 2946TIP3   OH2 8843   0.951   5.925   4.815
 2946TIP3    H1 8844   1.032   5.906   4.768
 2946TIP3    H2 8845   0.886   5.866   4.777
 2947TIP3   OH2 8846   5.639   4.225   4.908
 2947TIP3    H1 8847   5.670   4.288   4.972
 2947TIP3    H2 8848   5.555   4.260   4.879
 2948TIP3   OH2 8849   5.057   4.640   0.371
 2948TIP3    H1 8850   5.041   4.660   0.279
 2948TIP3    H2 8851   5.022   4.551   0.383
 2949TIP3   OH2 8852   1.859   5.413   2.910
 2949TIP3    H1 8853   1.807   5.490   2.933
 2949TIP3    H2 8854   1.795   5.352   2.873
 2950TIP3   OH2 8855   5.239   2.946   4.437
 2950TIP3    H1 8856   5.169   3.001   4.402
 2950TIP3    H2 8857   5.272   2.994   4.513
 2951TIP3   OH2 8858   1.519   5.863   4.927
 2951TIP3    H1 8859   1.509   5.947   4.972
 2951TIP3    H2 8860   1.488   5.879   4.838
 2952TIP3   OH2 8861   0.827   0.988   2.502
 2952TIP3    H1 8862   0.908   1.031   2.479
 2952TIP3    H2 8863   0.761   1.028   2.445
 2953TIP3   OH2 8864   2.367   1.868   1.854
 2953TIP3    H1 8865   2.433   1.850   1.921
 2953TIP3    H2 8866   2.413   1.923   1.790
 2954TIP3   OH2 8867   2.197   2.246   2.288
 2954TIP3    H1 8868   2.267   2.296   2.329
 2954TIP3    H2 8869   2.236   2.160   2.269
 2955TIP3   OH2 8870   4.019   4.658   2.592
 2955TIP3    H1 8871   4.042   4.744   2.557
 2955TIP3    H2 8872   3.935   4.671   2.635
 2956TIP3   OH2 8873   1.179   0.579   2.143
 2956TIP3    H1 8874   1.093   0.565   2.181
 2956TIP3    H2 8875   1.162   0.593   2.049
 2957TIP3   OH2 8876   6.044   1.721   0.315
 2957TIP3    H1 8877   6.108   1.774   0.362
 2957TIP3    H2 8878   5.994   1.785   0.263
 2958TIP3   OH2 8879   4.310   0.432   4.862
 2958TIP3    H1 8880   4.372   0.359   4.852
 2958TIP3    H2 8881   4.298   0.440   4.957
 2959TIP3   OH2 8882   0.720   4.897   4.167
 2959TIP3    H1 8883   0.798   4.940   4.130
 2959TIP3    H2 8884   0.700   4.947   4.246
 2960TIP3   OH2 8885   2.408   5.910   4.848
 2960TIP3    H1 8886   2.400   5.832   4.903
 2960TIP3    H2 8887   2.490   5.896   4.800
 2961TIP3   OH2 8888   1.021   2.391   0.423
 2961TIP3    H1 8889   1.110   2.377   0.392
 2961TIP3    H2 8890   1.027   2.386   0.518
 2962TIP3   OH2 8891   4.717   3.275   3.916
 2962TIP3    H1 8892   4.713   3.302   4.008
 2962TIP3    H2 8893   4.644   3.321   3.874
 2963TIP3   OH2 8894   5.985   1.753   1.704
 2963TIP3    H1 8895   5.928   1.815   1.660
 2963TIP3    H2 8896   5.978   1.672   1.653
 2964TIP3   OH2 8897   3.533   0.699   0.967
 2964TIP3    H1 8898   3.568   0.613   0.942
 2964TIP3    H2 8899   3.463   0.716   0.904
 2965TIP3   OH2 8900   6.224   0.637   1.311
 2965TIP3    H1 8901   6.254   0.600   1.228
 2965TIP3    H2 8902   6.138   0.597   1.326
 2966TIP3   OH2 8903   3.584   5.476   3.502
 2966TIP3    H1 8904   3.515   5.516   3.449
 2966TIP3    H2 8905   3.539   5.447   3.581
 2967TIP3   OH2 8906   1.777   1.223   3.197
 2967TIP3    H1 8907   1.752   1.136   3.164
 2967TIP3    H2 8908   1.743   1.226   3.286
 2968TIP3   OH2 8909   5.276   3.982   4.909
 2968TIP3    H1 8910   5.229   4.045   4.855
 2968TIP3    H2 8911   5.261   4.011   4.999
 2969TIP3   OH2 8912   1.909   5.028   0.721
 2969TIP3    H1 8913   1.927   4.934   0.717
 2969TIP3    H2 8914   1.973   5.061   0.784
 2970TIP3   OH2 8915   2.675   2.075   3.687
 2970TIP3    H1 8916   2.662   2.104   3.597
 2970TIP3    H2 8917   2.605   2.119   3.736
 2971TIP3   OH2 8918   2.840   3.817   0.521
 2971TIP3    H1 8919   2.752   3.839   0.490
 2971TIP3    H2 8920   2.835   3.824   0.616
 2972TIP3   OH2 8921   0.416   3.057   4.154
 2972TIP3    H1 8922   0.486   3.119   4.134
 2972TIP3    H2 8923   0.462   2.981   4.189
 2973TIP3   OH2 8924   5.520   0.140   4.394
 2973TIP3    H1 8925   5.602   0.188   4.385
 2973TIP3    H2 8926   5.464   0.174   4.325
 2974TIP3   OH2 8927   0.831   2.312   4.753
 2974TIP3    H1 8928   0.844   2.407   4.764
 2974TIP3    H2 8929   0.890   2.289   4.681
 2975TIP3   OH2 8930   2.135   4.051   4.571
 2975TIP3    H1 8931   2.041   4.047   4.557
 2975TIP3    H2 8932   2.152   4.141   4.600
 2976TIP3   OH2 8933   0.045   5.532   1.439
 2976TIP3    H1 8934   0.075   5.622   1.432
 2976TIP3    H2 8935  -0.015   5.532   1.514
 2977TIP3   OH2 8936   5.703   3.380   1.082
 2977TIP3    H1 8937   5.746   3.310   1.034
 2977TIP3    H2 8938   5.720   3.459   1.030
 2978TIP3   OH2 8939   0.509   4.240   0.526
 2978TIP3    H1 8940   0.466   4.320   0.497
 2978TIP3    H2 8941   0.602   4.262   0.529
 2979TIP3   OH2 8942   4.352   0.102   1.405
 2979TIP3    H1 8943   4.264   0.064   1.410
 2979TIP3    H2 8944   4.402   0.055   1.472
 2980TIP3   OH2 8945   1.948   5.916   3.861
 2980TIP3    H1 8946   2.044   5.916   3.851
 2980TIP3    H2 8947   1.923   5.825   3.850
 2981TIP3   OH2 8948   4.552   3.489   3.525
 2981TIP3    H1 8949   4.570   3.512   3.616
 2981TIP3    H2 8950   4.497   3.560   3.492
 2982TIP3   OH2 8951   5.590   2.646   3.400
 2982TIP3    H1 8952   5.662   2.585   3.380
 2982TIP3    H2 8953   5.619   2.691   3.479
 2983TIP3   OH2 8954   4.586   1.254   3.885
 2983TIP3    H1 8955   4.526   1.226   3.954
 2983TIP3    H2 8956   4.555   1.210   3.806
 2984TIP3   OH2 8957   0.393   4.755   2.418
 2984TIP3    H1 8958   0.347   4.789   2.496
 2984TIP3    H2 8959   0.336   4.779   2.345
 2985TIP3   OH2 8960   4.508   0.039   1.112
 2985TIP3    H1 8961   4.426   0.088   1.101
 2985TIP3    H2 8962   4.496  -0.039   1.057
 2986TIP3   OH2 8963   1.934   4.580   3.000
 2986TIP3    H1 8964   1.938   4.501   2.948
 2986TIP3    H2 8965   1.933   4.652   2.936
 2987TIP3   OH2 8966   0.439   2.345   1.406
 2987TIP3    H1 8967   0.412   2.397   1.331
 2987TIP3    H2 8968   0.447   2.408   1.477
 2988TIP3   OH2 8969   2.640   2.154   1.088
 2988TIP3    H1 8970   2.627   2.063   1.062
 2988TIP3    H2 8971   2.554   2.195   1.077
 2989TIP3   OH2 8972   1.811   1.538   2.238
 2989TIP3    H1 8973   1.761   1.619   2.236
 2989TIP3    H2 8974   1.903   1.565   2.235
 2990TIP3   OH2 8975   3.505   1.561   0.963
 2990TIP3    H1 8976   3.490   1.582   0.871
 2990TIP3    H2 8977   3.445   1.490   0.982
 2991TIP3   OH2 8978   2.803   0.484   2.794
 2991TIP3    H1 8979   2.728   0.542   2.809
 2991TIP3    H2 8980   2.876   0.526   2.838
 2992TIP3   OH2 8981   5.219   5.390   0.546
 2992TIP3    H1 8982   5.168   5.312   0.524
 2992TIP3    H2 8983   5.250   5.423   0.462
 2993TIP3   OH2 8984   6.141   1.336   2.671
 2993TIP3    H1 8985   6.215   1.385   2.636
 2993TIP3    H2 8986   6.116   1.383   2.751
 2994TIP3   OH2 8987   2.299   2.805   2.558
 2994TIP3    H1 8988   2.381   2.854   2.553
 2994TIP3    H2 8989   2.231   2.870   2.544
 2995TIP3   OH2 8990   4.675   4.929   0.793
 2995TIP3    H1 8991   4.608   4.863   0.775
 2995TIP3    H2 8992   4.628   4.999   0.839
 2996TIP3   OH2 8993   1.991   3.619   4.808
 2996TIP3    H1 8994   1.939   3.645   4.732
 2996TIP3    H2 8995   1.932   3.633   4.883
 2997TIP3   OH2 8996   0.056   0.971   0.439
 2997TIP3    H1 8997   0.103   0.963   0.522
 2997TIP3    H2 8998   0.102   0.912   0.379
 2998TIP3   OH2 8999   5.075   3.198   2.636
 2998TIP3    H1 9000   4.997   3.219   2.689
 2998TIP3    H2 9001   5.135   3.156   2.698
 2999TIP3   OH2 9002   1.753   1.190   4.017
 2999TIP3    H1 9003   1.663   1.158   4.008
 2999TIP3    H2 9004   1.801   1.117   4.057
 3000TIP3   OH2 9005   0.297   1.489   1.641
 3000TIP3    H1 9006   0.365   1.553   1.621
 3000TIP3    H2 9007   0.339   1.404   1.625
 3001TIP3   OH2 9008   4.278   2.565   2.042
 3001TIP3    H1 9009   4.243   2.483   2.078
 3001TIP3    H2 9010   4.335   2.599   2.111
 3002TIP3   OH2 9011   1.371   0.528   3.885
 3002TIP3    H1 9012   1.401   0.466   3.952
 3002TIP3    H2 9013   1.317   0.476   3.826
 3003TIP3   OH2 9014   1.154   5.154   2.443
 3003TIP3    H1 9015   1.180   5.062   2.443
 3003TIP3    H2 9016   1.100   5.164   2.365
 3004TIP3   OH2 9017   0.093   5.231   2.706
 3004TIP3    H1 9018   0.160   5.250   2.640
 3004TIP3    H2 9019   0.011   5.232   2.657
 3005TIP3   OH2 9020   1.162   1.644   3.709
 3005TIP3    H1 9021   1.191   1.606   3.792
 3005TIP3    H2 9022   1.112   1.575   3.667
 3006TIP3   OH2 9023   1.955   3.321   1.374
 3006TIP3    H1 9024   2.038   3.327   1.325
 3006TIP3    H2 9025   1.900   3.390   1.337
 3007TIP3   OH2 9026   5.354   4.991   1.600
 3007TIP3    H1 9027   5.269   4.958   1.626
 3007TIP3    H2 9028   5.381   5.049   1.671
 3008TIP3   OH2 9029   1.511   5.817   2.249
 3008TIP3    H1 9030   1.436   5.872   2.271
 3008TIP3    H2 9031   1.487   5.730   2.278
 3009TIP3   OH2 9032   2.031   2.948   1.537
 3009TIP3    H1 9033   2.076   2.962   1.621
 3009TIP3    H2 9034   2.101   2.945   1.472
 3010TIP3   OH2 9035   5.888   5.280   5.122
 3010TIP3    H1 9036   5.943   5.308   5.195
 3010TIP3    H2 9037   5.930   5.318   5.045
 3011TIP3   OH2 9038   0.203   0.235   1.285
 3011TIP3    H1 9039   0.214   0.324   1.251
 3011TIP3    H2 9040   0.126   0.201   1.239
 3012TIP3   OH2 9041   3.216   4.981   3.197
 3012TIP3    H1 9042   3.250   5.069   3.214
 3012TIP3    H2 9043   3.295   4.929   3.178
 3013TIP3   OH2 9044   3.334   1.634   4.749
 3013TIP3    H1 9045   3.312   1.718   4.708
 3013TIP3    H2 9046   3.416   1.608   4.707
 3014TIP3   OH2 9047   0.312   5.759   0.215
 3014TIP3    H1 9048   0.382   5.697   0.197
 3014TIP3    H2 9049   0.239   5.729   0.160
 3015TIP3   OH2 9050   5.914   0.834   1.666
 3015TIP3    H1 9051   5.851   0.818   1.596
 3015TIP3    H2 9052   5.887   0.916   1.705
 3016TIP3   OH2 9053   4.149   3.170   5.217
 3016TIP3    H1 9054   4.054   3.174   5.213
 3016TIP3    H2 9055   4.177   3.161   5.126
 3017TIP3   OH2 9056   2.496   0.182   2.990
 3017TIP3    H1 9057   2.445   0.144   2.919
 3017TIP3    H2 9058   2.453   0.264   3.010
 3018TIP3   OH2 9059   3.819   5.201   4.603
 3018TIP3    H1 9060   3.823   5.118   4.556
 3018TIP3    H2 9061   3.799   5.176   4.693
 3019TIP3   OH2 9062   5.353   0.311   3.197
 3019TIP3    H1 9063   5.357   0.228   3.149
 3019TIP3    H2 9064   5.428   0.361   3.166
 3020TIP3   OH2 9065   3.269   5.023   4.500
 3020TIP3    H1 9066   3.334   5.093   4.497
 3020TIP3    H2 9067   3.192   5.063   4.540
 3021TIP3   OH2 9068   1.289   0.207   3.492
 3021TIP3    H1 9069   1.346   0.130   3.488
 3021TIP3    H2 9070   1.339   0.275   3.446
 3022TIP3   OH2 9071   1.039   2.644   0.353
 3022TIP3    H1 9072   1.062   2.673   0.441
 3022TIP3    H2 9073   1.056   2.549   0.354
 3023TIP3   OH2 9074   3.722   1.545   4.292
 3023TIP3    H1 9075   3.681   1.567   4.376
 3023TIP3    H2 9076   3.673   1.470   4.260
 3024TIP3   OH2 9077   2.122   3.223   0.801
 3024TIP3    H1 9078   2.097   3.307   0.840
 3024TIP3    H2 9079   2.209   3.205   0.837
 3025TIP3   OH2 9080   0.621   4.234   1.751
 3025TIP3    H1 9081   0.586   4.158   1.797
 3025TIP3    H2 9082   0.713   4.211   1.734
 3026TIP3   OH2 9083   2.389   3.865   5.076
 3026TIP3    H1 9084   2.390   3.787   5.021
 3026TIP3    H2 9085   2.313   3.854   5.134
 3027TIP3   OH2 9086   4.650   3.782   1.999
 3027TIP3    H1 9087   4.720   3.720   1.978
 3027TIP3    H2 9088   4.575   3.751   1.948
 3028TIP3   OH2 9089   0.615   5.669   2.473
 3028TIP3    H1 9090   0.562   5.590   2.459
 3028TIP3    H2 9091   0.562   5.740   2.438
 3029TIP3   OH2 9092   2.873   1.868   4.960
 3029TIP3    H1 9093   2.782   1.865   4.931
 3029TIP3    H2 9094   2.871   1.918   5.042
 3030TIP3   OH2 9095   6.040   2.057   3.707
 3030TIP3    H1 9096   6.011   2.137   3.663
 3030TIP3    H2 9097   6.013   2.069   3.799
 3031TIP3   OH2 9098   5.497   4.611   4.547
 3031TIP3    H1 9099   5.444   4.580   4.474
 3031TIP3    H2 9100   5.435   4.624   4.618
 3032TIP3   OH2 9101   5.138   5.534   4.748
 3032TIP3    H1 9102   5.205   5.530   4.816
 3032TIP3    H2 9103   5.173   5.597   4.684
 3033TIP3   OH2 9104   6.158   0.334   4.180
 3033TIP3    H1 9105   6.103   0.262   4.210
 3033TIP3    H2 9106   6.147   0.334   4.085
 3034TIP3   OH2 9107   2.627   2.305   2.549
 3034TIP3    H1 9108   2.646   2.216   2.519
 3034TIP3    H2 9109   2.672   2.313   2.633
 3035TIP3   OH2 9110   4.325   2.809   3.970
 3035TIP3    H1 9111   4.236   2.788   3.939
 3035TIP3    H2 9112   4.377   2.814   3.890
 3036TIP3   OH2 9113   1.798   5.745   2.718
 3036TIP3    H1 9114   1.739   5.814   2.748
 3036TIP3    H2 9115   1.758   5.663   2.748
 3037TIP3   OH2 9116   0.401   3.978   2.858
 3037TIP3    H1 9117   0.472   4.037   2.833
 3037TIP3    H2 9118   0.348   3.967   2.779
 3038TIP3   OH2 9119   0.709   2.711   2.102
 3038TIP3    H1 9120   0.664   2.792   2.079
 3038TIP3    H2 9121   0.638   2.646   2.111
 3039TIP3   OH2 9122   4.142   3.561   4.311
 3039TIP3    H1 9123   4.049   3.542   4.327
 3039TIP3    H2 9124   4.185   3.543   4.394
 3040TIP3   OH2 9125   2.602   0.532   1.358
 3040TIP3    H1 9126   2.566   0.469   1.296
 3040TIP3    H2 9127   2.689   0.552   1.323
 3041TIP3   OH2 9128   1.984   3.899   1.151
 3041TIP3    H1 9129   1.972   3.985   1.112
 3041TIP3    H2 9130   1.936   3.840   1.093
 3042TIP3   OH2 9131   2.462   1.768   2.671
 3042TIP3    H1 9132   2.369   1.747   2.656
 3042TIP3    H2 9133   2.509   1.694   2.633
 3043TIP3   OH2 9134   1.697   2.301   0.418
 3043TIP3    H1 9135   1.651   2.275   0.338
 3043TIP3    H2 9136   1.780   2.253   0.415
 3044TIP3   OH2 9137   5.128   5.325   2.541
 3044TIP3    H1 9138   5.091   5.339   2.454
 3044TIP3    H2 9139   5.189   5.252   2.529
 3045TIP3   OH2 9140   3.619   0.691   2.929
 3045TIP3    H1 9141   3.634   0.699   2.835
 3045TIP3    H2 9142   3.704   0.664   2.964
 3046TIP3   OH2 9143   1.956   4.500   1.112
 3046TIP3    H1 9144   1.887   4.440   1.085
 3046TIP3    H2 9145   2.036   4.466   1.071
 3047TIP3   OH2 9146   3.139   3.596   2.174
 3047TIP3    H1 9147   3.115   3.688   2.187
 3047TIP3    H2 9148   3.231   3.600   2.146
 3048TIP3   OH2 9149   6.216   5.217   1.519
 3048TIP3    H1 9150   6.302   5.183   1.494
 3048TIP3    H2 9151   6.164   5.210   1.439
 3049TIP3   OH2 9152   3.544   3.128   1.203
 3049TIP3    H1 9153   3.533   3.138   1.298
 3049TIP3    H2 9154   3.631   3.164   1.185
 3050TIP3   OH2 9155   2.456   2.551   4.334
 3050TIP3    H1 9156   2.470   2.622   4.271
 3050TIP3    H2 9157   2.427   2.477   4.281
 3051TIP3   OH2 9158   3.546   1.015   4.489
 3051TIP3    H1 9159   3.499   0.935   4.468
 3051TIP3    H2 9160   3.635   1.000   4.458
 3052TIP3   OH2 9161   5.813   3.919   5.116
 3052TIP3    H1 9162   5.742   3.858   5.100
 3052TIP3    H2 9163   5.879   3.897   5.049
 3053TIP3   OH2 9164   4.383   5.728   2.741
 3053TIP3    H1 9165   4.314   5.794   2.738
 3053TIP3    H2 9166   4.445   5.761   2.807
 3054TIP3   OH2 9167   4.956   5.189   1.170
 3054TIP3    H1 9168   4.870   5.203   1.208
 3054TIP3    H2 9169   5.003   5.136   1.235
 3055TIP3   OH2 9170   1.986   5.710   4.556
 3055TIP3    H1 9171   2.010   5.798   4.586
 3055TIP3    H2 9172   2.035   5.651   4.613
 3056TIP3   OH2 9173   5.250   1.592   4.252
 3056TIP3    H1 9174   5.206   1.666   4.293
 3056TIP3    H2 9175   5.178   1.536   4.221
 3057TIP3   OH2 9176   5.725   3.713   4.927
 3057TIP3    H1 9177   5.678   3.762   4.859
 3057TIP3    H2 9178   5.816   3.742   4.918
 3058TIP3   OH2 9179   5.437   5.159   1.792
 3058TIP3    H1 9180   5.473   5.240   1.829
 3058TIP3    H2 9181   5.507   5.095   1.803
 3059TIP3   OH2 9182   5.009   1.242   3.361
 3059TIP3    H1 9183   5.054   1.168   3.321
 3059TIP3    H2 9184   4.966   1.206   3.438
 3060TIP3   OH2 9185   2.852   5.337   2.302
 3060TIP3    H1 9186   2.879   5.360   2.391
 3060TIP3    H2 9187   2.823   5.246   2.309
 3061TIP3   OH2 9188   4.783   0.164   4.897
 3061TIP3    H1 9189   4.846   0.214   4.949
 3061TIP3    H2 9190   4.805   0.186   4.806
 3062TIP3   OH2 9191   4.514   3.653   0.937
 3062TIP3    H1 9192   4.466   3.581   0.980
 3062TIP3    H2 9193   4.527   3.623   0.848
 3063TIP3   OH2 9194   5.983   0.363   3.462
 3063TIP3    H1 9195   6.054   0.304   3.436
 3063TIP3    H2 9196   5.904   0.326   3.422
 3064TIP3   OH2 9197   5.293   5.584   4.994
 3064TIP3    H1 9198   5.291   5.510   5.054
 3064TIP3    H2 9199   5.385   5.592   4.969
 3065TIP3   OH2 9200   6.036   2.135   4.905
 3065TIP3    H1 9201   6.102   2.099   4.847
 3065TIP3    H2 9202   5.954   2.129   4.856
 3066TIP3   OH2 9203   5.358   0.628   0.161
 3066TIP3    H1 9204   5.391   0.717   0.152
 3066TIP3    H2 9205   5.437   0.574   0.170
 3067TIP3   OH2 9206   2.296   3.326   2.522
 3067TIP3    H1 9207   2.266   3.377   2.446
 3067TIP3    H2 9208   2.280   3.383   2.597
 3068TIP3   OH2 9209   4.945   3.523   0.573
 3068TIP3    H1 9210   5.015   3.586   0.589
 3068TIP3    H2 9211   4.939   3.519   0.477
 3069TIP3   OH2 9212   5.675   2.189   0.790
 3069TIP3    H1 9213   5.599   2.133   0.804
 3069TIP3    H2 9214   5.658   2.233   0.707
 3070TIP3   OH2 9215   1.352   0.593   0.818
 3070TIP3    H1 9216   1.354   0.639   0.902
 3070TIP3    H2 9217   1.444   0.585   0.794
 3071TIP3   OH2 9218   3.174   1.052   4.953
 3071TIP3    H1 9219   3.231   1.097   5.016
 3071TIP3    H2 9220   3.228   0.983   4.916
 3072TIP3   OH2 9221   2.361   3.149   3.991
 3072TIP3    H1 9222   2.328   3.135   4.080
 3072TIP3    H2 9223   2.418   3.226   3.998
 3073TIP3   OH2 9224   3.786   4.070   4.383
 3073TIP3    H1 9225   3.857   4.122   4.420
 3073TIP3    H2 9226   3.724   4.134   4.348
 3074TIP3   OH2 9227   1.620   3.929   0.649
 3074TIP3    H1 9228   1.525   3.937   0.658
 3074TIP3    H2 9229   1.653   3.926   0.739
 3075TIP3   OH2 9230   5.797   3.016   3.117
 3075TIP3    H1 9231   5.888   3.000   3.093
 3075TIP3    H2 9232   5.783   3.109   3.098
 3076TIP3   OH2 9233   1.719   1.214   3.460
 3076TIP3    H1 9234   1.667   1.271   3.516
 3076TIP3    H2 9235   1.732   1.135   3.512
 3077TIP3   OH2 9236   5.740   2.841   1.897
 3077TIP3    H1 9237   5.817   2.810   1.945
 3077TIP3    H2 9238   5.691   2.893   1.962
 3078TIP3   OH2 9239   0.849   3.577   2.695
 3078TIP3    H1 9240   0.813   3.643   2.755
 3078TIP3    H2 9241   0.940   3.567   2.723
 3079TIP3   OH2 9242   2.952   3.065   1.966
 3079TIP3    H1 9243   2.974   3.071   2.059
 3079TIP3    H2 9244   3.026   3.106   1.921
 3080TIP3   OH2 9245   6.041   4.217   4.938
 3080TIP3    H1 9246   5.993   4.183   4.862
 3080TIP3    H2 9247   6.100   4.283   4.902
 3081TIP3   OH2 9248   6.015   1.225   0.650
 3081TIP3    H1 9249   5.949   1.155   0.653
 3081TIP3    H2 9250   5.994   1.280   0.726
 3082TIP3   OH2 9251   3.262   0.399   3.748
 3082TIP3    H1 9252   3.348   0.394   3.790
 3082TIP3    H2 9253   3.249   0.492   3.732
 3083TIP3   OH2 9254   5.561   3.383   2.476
 3083TIP3    H1 9255   5.641   3.373   2.425
 3083TIP3    H2 9256   5.552   3.301   2.524
 3084TIP3   OH2 9257   3.360   3.018   3.203
 3084TIP3    H1 9258   3.346   2.926   3.226
 3084TIP3    H2 9259   3.272   3.054   3.195
 3085TIP3   OH2 9260   2.848  -0.058   4.116
 3085TIP3    H1 9261   2.812  -0.012   4.192
 3085TIP3    H2 9262   2.942  -0.057   4.129
 3086TIP3   OH2 9263   6.229   0.879   0.660
 3086TIP3    H1 9264   6.250   0.790   0.689
 3086TIP3    H2 9265   6.292   0.935   0.707
 3087TIP3   OH2 9266   3.995   1.448   0.304
 3087TIP3    H1 9267   4.061   1.401   0.356
 3087TIP3    H2 9268   3.973   1.387   0.233
 3088TIP3   OH2 9269   0.005   0.329   2.938
 3088TIP3    H1 9270  -0.004   0.411   2.888
 3088TIP3    H2 9271   0.075   0.347   3.001
 3089TIP3   OH2 9272   5.600   3.135   2.601
 3089TIP3    H1 9273   5.593   3.081   2.522
 3089TIP3    H2 9274   5.680   3.104   2.644
 3090TIP3   OH2 9275   4.194   0.320   2.739
 3090TIP3    H1 9276   4.237   0.320   2.654
 3090TIP3    H2 9277   4.266   0.320   2.803
 3091TIP3   OH2 9278   1.835   3.409   4.142
 3091TIP3    H1 9279   1.927   3.390   4.160
 3091TIP3    H2 9280   1.834   3.502   4.117
 3092TIP3   OH2 9281   5.879   1.025   4.554
 3092TIP3    H1 9282   5.846   1.098   4.607
 3092TIP3    H2 9283   5.913   1.068   4.475
 3093TIP3   OH2 9284   4.706   5.434   2.536
 3093TIP3    H1 9285   4.751   5.351   2.517
 3093TIP3    H2 9286   4.656   5.416   2.615
 3094TIP3   OH2 9287   1.567   4.479   3.968
 3094TIP3    H1 9288   1.546   4.546   4.033
 3094TIP3    H2 9289   1.488   4.426   3.962
 3095TIP3   OH2 9290   4.295   2.552   2.405
 3095TIP3    H1 9291   4.364   2.489   2.423
 3095TIP3    H2 9292   4.340   2.635   2.392
 3096TIP3   OH2 9293   6.163   0.148   0.857
 3096TIP3    H1 9294   6.242   0.202   0.863
 3096TIP3    H2 9295   6.105   0.184   0.924
 3097TIP3   OH2 9296   4.604   4.468   1.043
 3097TIP3    H1 9297   4.581   4.550   1.087
 3097TIP3    H2 9298   4.606   4.491   0.950
 3098TIP3   OH2 9299   3.013   0.088   2.671
 3098TIP3    H1 9300   2.984   0.078   2.580
 3098TIP3    H2 9301   2.938   0.060   2.724
 3099TIP3   OH2 9302   1.902   3.062   0.062
 3099TIP3    H1 9303   1.828   3.033   0.008
 3099TIP3    H2 9304   1.907   2.997   0.132
 3100TIP3   OH2 9305   5.709   0.895   2.369
 3100TIP3    H1 9306   5.718   0.923   2.278
 3100TIP3    H2 9307   5.797   0.903   2.405
 3101TIP3   OH2 9308   1.526   1.574   1.733
 3101TIP3    H1 9309   1.528   1.577   1.637
 3101TIP3    H2 9310   1.501   1.662   1.759
 3102TIP3   OH2 9311   1.090   1.558   0.548
 3102TIP3    H1 9312   1.073   1.507   0.627
 3102TIP3    H2 9313   1.084   1.649   0.576
 3103TIP3   OH2 9314   2.979   0.610   2.940
 3103TIP3    H1 9315   3.056   0.577   2.987
 3103TIP3    H2 9316   2.906   0.590   2.997
 3104TIP3   OH2 9317   5.304   0.169   3.449
 3104TIP3    H1 9318   5.334   0.227   3.379
 3104TIP3    H2 9319   5.238   0.221   3.496
 3105TIP3   OH2 9320   4.313   2.503   1.767
 3105TIP3    H1 9321   4.291   2.548   1.849
 3105TIP3    H2 9322   4.358   2.423   1.795
 3106TIP3   OH2 9323   1.730   3.940   3.915
 3106TIP3    H1 9324   1.722   3.893   3.832
 3106TIP3    H2 9325   1.641   3.969   3.935
 3107TIP3   OH2 9326   0.875   2.851   2.681
 3107TIP3    H1 9327   0.844   2.912   2.747
 3107TIP3    H2 9328   0.796   2.822   2.636
 3108TIP3   OH2 9329   3.028   4.343   2.627
 3108TIP3    H1 9330   2.949   4.377   2.667
 3108TIP3    H2 9331   3.076   4.420   2.596
 3109TIP3   OH2 9332   5.445   1.496   1.987
 3109TIP3    H1 9333   5.488   1.554   2.050
 3109TIP3    H2 9334   5.510   1.427   1.970
 3110TIP3   OH2 9335   2.704   4.447   3.167
 3110TIP3    H1 9336   2.693   4.452   3.262
 3110TIP3    H2 9337   2.710   4.353   3.149
 3111TIP3   OH2 9338   5.444   0.715   0.983
 3111TIP3    H1 9339   5.371   0.777   0.979
 3111TIP3    H2 9340   5.402   0.629   0.988
 3112TIP3   OH2 9341   5.051   3.162   3.595
 3112TIP3    H1 9342   4.974   3.207   3.560
 3112TIP3    H2 9343   5.046   3.073   3.559
 3113TIP3   OH2 9344   2.303   1.754   0.326
 3113TIP3    H1 9345   2.378   1.798   0.287
 3113TIP3    H2 9346   2.325   1.661   0.325
 3114TIP3   OH2 9347   5.932   0.663   0.090
 3114TIP3    H1 9348   5.863   0.684   0.153
 3114TIP3    H2 9349   5.926   0.731   0.023
 3115TIP3   OH2 9350   4.289   1.514   4.265
 3115TIP3    H1 9351   4.280   1.420   4.247
 3115TIP3    H2 9352   4.200   1.549   4.253
 3116TIP3   OH2 9353   6.150   0.744   2.785
 3116TIP3    H1 9354   6.205   0.789   2.850
 3116TIP3    H2 9355   6.062   0.779   2.799
 3117TIP3   OH2 9356   5.079   1.585   2.406
 3117TIP3    H1 9357   5.132   1.572   2.327
 3117TIP3    H2 9358   5.085   1.679   2.423
 3118TIP3   OH2 9359   6.245   1.112   0.096
 3118TIP3    H1 9360   6.307   1.184   0.082
 3118TIP3    H2 9361   6.235   1.107   0.191
 3119TIP3   OH2 9362   3.374   1.874   0.930
 3119TIP3    H1 9363   3.440   1.899   0.865
 3119TIP3    H2 9364   3.377   1.943   0.996
 3120TIP3   OH2 9365   3.212   3.095   0.341
 3120TIP3    H1 9366   3.154   3.091   0.265
 3120TIP3    H2 9367   3.300   3.082   0.305
 3121TIP3   OH2 9368   0.196   4.189   3.618
 3121TIP3    H1 9369   0.194   4.183   3.714
 3121TIP3    H2 9370   0.108   4.218   3.594
 3122TIP3   OH2 9371   4.272   3.433   1.963
 3122TIP3    H1 9372   4.255   3.389   1.879
 3122TIP3    H2 9373   4.328   3.372   2.011
 3123TIP3   OH2 9374   5.238   3.260   3.332
 3123TIP3    H1 9375   5.221   3.218   3.416
 3123TIP3    H2 9376   5.333   3.260   3.324
 3124TIP3   OH2 9377   2.903   3.851   1.886
 3124TIP3    H1 9378   2.943   3.780   1.834
 3124TIP3    H2 9379   2.886   3.811   1.971
 3125TIP3   OH2 9380   4.433   0.395   2.875
 3125TIP3    H1 9381   4.451   0.404   2.968
 3125TIP3    H2 9382   4.466   0.476   2.836
 3126TIP3   OH2 9383   5.513   4.397   2.407
 3126TIP3    H1 9384   5.436   4.425   2.357
 3126TIP3    H2 9385   5.560   4.339   2.348
 3127TIP3   OH2 9386   3.149   4.773   2.828
 3127TIP3    H1 9387   3.177   4.708   2.763
 3127TIP3    H2 9388   3.141   4.855   2.779
 3128TIP3   OH2 9389   5.465   1.468   2.295
 3128TIP3    H1 9390   5.543   1.522   2.285
 3128TIP3    H2 9391   5.455   1.423   2.211
 3129TIP3   OH2 9392   2.671   5.045   1.411
 3129TIP3    H1 9393   2.753   5.020   1.453
 3129TIP3    H2 9394   2.689   5.131   1.372
 3130TIP3   OH2 9395   1.520   1.077   4.596
 3130TIP3    H1 9396   1.561   1.163   4.584
 3130TIP3    H2 9397   1.588   1.024   4.639
 3131TIP3   OH2 9398   1.328   4.185   0.129
 3131TIP3    H1 9399   1.330   4.114   0.193
 3131TIP3    H2 9400   1.329   4.141   0.044
 3132TIP3   OH2 9401   4.588   4.874   0.228
 3132TIP3    H1 9402   4.595   4.779   0.213
 3132TIP3    H2 9403   4.677   4.907   0.218
 3133TIP3   OH2 9404   0.362   0.466   0.367
 3133TIP3    H1 9405   0.436   0.466   0.429
 3133TIP3    H2 9406   0.396   0.511   0.290
 3134TIP3   OH2 9407   4.053   0.839   0.746
 3134TIP3    H1 9408   4.001   0.904   0.793
 3134TIP3    H2 9409   4.017   0.755   0.773
 3135TIP3   OH2 9410   1.179   3.327   1.052
 3135TIP3    H1 9411   1.236   3.250   1.056
 3135TIP3    H2 9412   1.191   3.362   0.964
 3136TIP3   OH2 9413   1.162   2.501   4.978
 3136TIP3    H1 9414   1.190   2.410   4.990
 3136TIP3    H2 9415   1.195   2.526   4.892
 3137TIP3   OH2 9416   4.798   3.598   1.607
 3137TIP3    H1 9417   4.720   3.544   1.610
 3137TIP3    H2 9418   4.865   3.542   1.568
 3138TIP3   OH2 9419   3.810   1.619   2.453
 3138TIP3    H1 9420   3.901   1.604   2.425
 3138TIP3    H2 9421   3.761   1.627   2.371
 3139TIP3   OH2 9422   5.387   5.035   4.961
 3139TIP3    H1 9423   5.306   5.086   4.971
 3139TIP3    H2 9424   5.400   4.994   5.046
 3140TIP3   OH2 9425   0.938   1.972   3.461
 3140TIP3    H1 9426   0.937   2.002   3.371
 3140TIP3    H2 9427   1.030   1.962   3.483
 3141TIP3   OH2 9428   3.136   4.828   0.200
 3141TIP3    H1 9429   3.180   4.887   0.261
 3141TIP3    H2 9430   3.054   4.804   0.243
 3142TIP3   OH2 9431   3.014   4.498   3.302
 3142TIP3    H1 9432   2.938   4.448   3.332
 3142TIP3    H2 9433   3.070   4.505   3.379
 3143TIP3   OH2 9434   6.376   2.252   2.087
 3143TIP3    H1 9435   6.318   2.186   2.049
 3143TIP3    H2 9436   6.342   2.266   2.175
 3144TIP3   OH2 9437   2.746   4.638   1.333
 3144TIP3    H1 9438   2.677   4.689   1.291
 3144TIP3    H2 9439   2.809   4.622   1.263
 3145TIP3   OH2 9440   3.355   3.944   1.412
 3145TIP3    H1 9441   3.285   3.924   1.349
 3145TIP3    H2 9442   3.399   3.860   1.426
 3146TIP3   OH2 9443   5.049   0.735   2.605
 3146TIP3    H1 9444   5.113   0.803   2.585
 3146TIP3    H2 9445   4.978   0.750   2.542
 3147TIP3   OH2 9446   1.653   4.195   4.269
 3147TIP3    H1 9447   1.647   4.168   4.361
 3147TIP3    H2 9448   1.576   4.251   4.255
 3148TIP3   OH2 9449   1.812   5.478   1.007
 3148TIP3    H1 9450   1.888   5.454   0.954
 3148TIP3    H2 9451   1.773   5.552   0.962
 3149TIP3   OH2 9452   3.923   1.208   1.208
 3149TIP3    H1 9453   3.995   1.266   1.186
 3149TIP3    H2 9454   3.953   1.121   1.181
 3150TIP3   OH2 9455   2.999   4.360   4.902
 3150TIP3    H1 9456   2.951   4.389   4.980
 3150TIP3    H2 9457   2.969   4.418   4.832
 3151TIP3   OH2 9458   5.065   5.376   2.288
 3151TIP3    H1 9459   5.135   5.397   2.226
 3151TIP3    H2 9460   4.985   5.376   2.235
 3152TIP3   OH2 9461   4.147   0.723   4.781
 3152TIP3    H1 9462   4.234   0.704   4.745
 3152TIP3    H2 9463   4.155   0.701   4.874
 3153TIP3   OH2 9464   5.115   0.354   3.546
 3153TIP3    H1 9465   5.122   0.408   3.625
 3153TIP3    H2 9466   5.116   0.416   3.474
 3154TIP3   OH2 9467   0.370   1.829   1.605
 3154TIP3    H1 9468   0.368   1.796   1.516
 3154TIP3    H2 9469   0.294   1.789   1.648
 3155TIP3   OH2 9470   2.469   4.704   2.595
 3155TIP3    H1 9471   2.495   4.642   2.664
 3155TIP3    H2 9472   2.461   4.650   2.517
 3156TIP3   OH2 9473   3.421   0.534   1.210
 3156TIP3    H1 9474   3.353   0.512   1.146
 3156TIP3    H2 9475   3.399   0.482   1.287
 3157TIP3   OH2 9476   2.223   4.336   4.620
 3157TIP3    H1 9477   2.141   4.384   4.636
 3157TIP3    H2 9478   2.283   4.368   4.688
 3158TIP3   OH2 9479   4.865   5.900   3.544
 3158TIP3    H1 9480   4.892   5.931   3.457
 3158TIP3    H2 9481   4.896   5.967   3.604
 3159TIP3   OH2 9482   4.622   5.476   2.861
 3159TIP3    H1 9483   4.589   5.393   2.827
 3159TIP3    H2 9484   4.571   5.491   2.941
 3160TIP3   OH2 9485   0.299   1.907   0.798
 3160TIP3    H1 9486   0.338   1.900   0.710
 3160TIP3    H2 9487   0.359   1.859   0.854
 3161TIP3   OH2 9488   4.240   3.333   0.080
 3161TIP3    H1 9489   4.172   3.274   0.112
 3161TIP3    H2 9490   4.319   3.309   0.129
 3162TIP3   OH2 9491   4.870   5.829   3.840
 3162TIP3    H1 9492   4.819   5.802   3.764
 3162TIP3    H2 9493   4.805   5.864   3.902
 3163TIP3   OH2 9494   1.898   0.715   0.825
 3163TIP3    H1 9495   1.969   0.776   0.807
 3163TIP3    H2 9496   1.910   0.644   0.762
 3164TIP3   OH2 9497   6.109   1.224   3.726
 3164TIP3    H1 9498   6.024   1.265   3.711
 3164TIP3    H2 9499   6.115   1.213   3.820
 3165TIP3   OH2 9500   0.792   5.569   1.017
 3165TIP3    H1 9501   0.776   5.479   1.046
 3165TIP3    H2 9502   0.777   5.622   1.095
 3166TIP3   OH2 9503   6.083   2.078   0.514
 3166TIP3    H1 9504   6.040   2.122   0.588
 3166TIP3    H2 9505   6.171   2.059   0.545
 3167TIP3   OH2 9506   4.886   5.502   1.714
 3167TIP3    H1 9507   4.863   5.520   1.805
 3167TIP3    H2 9508   4.890   5.588   1.672
 3168TIP3   OH2 9509   0.716   2.083   2.890
 3168TIP3    H1 9510   0.709   2.169   2.848
 3168TIP3    H2 9511   0.753   2.026   2.822
 3169TIP3   OH2 9512   5.705   0.237   2.558
 3169TIP3    H1 9513   5.650   0.292   2.501
 3169TIP3    H2 9514   5.672   0.148   2.544
 3170TIP3   OH2 9515   3.116   0.062   0.544
 3170TIP3    H1 9516   3.040   0.117   0.563
 3170TIP3    H2 9517   3.080  -0.025   0.529
 3171TIP3   OH2 9518   0.989   4.788   3.775
 3171TIP3    H1 9519   1.046   4.716   3.805
 3171TIP3    H2 9520   0.940   4.750   3.703
 3172TIP3   OH2 9521   3.719   5.802   0.894
 3172TIP3    H1 9522   3.681   5.784   0.980
 3172TIP3    H2 9523   3.700   5.895   0.878
 3173TIP3   OH2 9524   4.179   5.979   3.824
 3173TIP3    H1 9525   4.187   5.888   3.795
 3173TIP3    H2 9526   4.085   5.994   3.829
 3174TIP3   OH2 9527   6.145   3.819   2.520
 3174TIP3    H1 9528   6.137   3.752   2.452
 3174TIP3    H2 9529   6.055   3.848   2.535
 3175TIP3   OH2 9530   4.820   0.741   3.596
 3175TIP3    H1 9531   4.896   0.718   3.542
 3175TIP3    H2 9532   4.846   0.722   3.685
 3176TIP3   OH2 9533   0.400   1.441   0.746
 3176TIP3    H1 9534   0.460   1.415   0.677
 3176TIP3    H2 9535   0.450   1.431   0.827
 3177TIP3   OH2 9536   4.437   1.382   1.149
 3177TIP3    H1 9537   4.426   1.445   1.077
 3177TIP3    H2 9538   4.510   1.327   1.122
 3178TIP3   OH2 9539   0.574   1.239   4.679
 3178TIP3    H1 9540   0.544   1.250   4.588
 3178TIP3    H2 9541   0.655   1.291   4.683
 3179TIP3   OH2 9542   0.956   4.962   1.149
 3179TIP3    H1 9543   0.988   5.026   1.086
 3179TIP3    H2 9544   0.997   4.879   1.122
 3180TIP3   OH2 9545   4.311   4.956   0.095
 3180TIP3    H1 9546   4.350   5.042   0.079
 3180TIP3    H2 9547   4.384   4.902   0.126
 3181TIP3   OH2 9548   1.595   3.824   5.089
 3181TIP3    H1 9549   1.629   3.905   5.128
 3181TIP3    H2 9550   1.507   3.848   5.059
 3182TIP3   OH2 9551   4.909   1.976   1.913
 3182TIP3    H1 9552   4.851   2.052   1.911
 3182TIP3    H2 9553   4.852   1.901   1.899
 3183TIP3   OH2 9554   1.102   1.095   2.441
 3183TIP3    H1 9555   1.142   1.171   2.483
 3183TIP3    H2 9556   1.171   1.058   2.386
 3184TIP3   OH2 9557   1.871   4.916   0.438
 3184TIP3    H1 9558   1.863   4.917   0.534
 3184TIP3    H2 9559   1.945   4.858   0.422
 3185TIP3   OH2 9560   5.279   0.922   2.655
 3185TIP3    H1 9561   5.293   0.962   2.569
 3185TIP3    H2 9562   5.367   0.913   2.691
 3186TIP3   OH2 9563   0.231   2.681   2.529
 3186TIP3    H1 9564   0.208   2.644   2.614
 3186TIP3    H2 9565   0.225   2.607   2.468
 3187TIP3   OH2 9566   0.897   1.226   2.824
 3187TIP3    H1 9567   0.879   1.251   2.734
 3187TIP3    H2 9568   0.859   1.296   2.877
 3188TIP3   OH2 9569   0.893   0.077   4.828
 3188TIP3    H1 9570   0.854   0.144   4.771
 3188TIP3    H2 9571   0.983   0.069   4.797
 3189TIP3   OH2 9572   1.830   5.183   3.960
 3189TIP3    H1 9573   1.908   5.229   3.991
 3189TIP3    H2 9574   1.799   5.235   3.886
 3190TIP3   OH2 9575   3.403   4.066   2.308
 3190TIP3    H1 9576   3.392   4.080   2.214
 3190TIP3    H2 9577   3.322   4.024   2.336
 3191TIP3   OH2 9578   3.120   3.477   4.246
 3191TIP3    H1 9579   3.080   3.395   4.218
 3191TIP3    H2 9580   3.056   3.544   4.222
 3192TIP3   OH2 9581   4.574   2.163   4.378
 3192TIP3    H1 9582   4.620   2.217   4.443
 3192TIP3    H2 9583   4.496   2.131   4.424
 3193TIP3   OH2 9584   3.197   2.035   3.568
 3193TIP3    H1 9585   3.290   2.049   3.586
 3193TIP3    H2 9586   3.196   1.985   3.487
 3194TIP3   OH2 9587   4.521   2.410   0.638
 3194TIP3    H1 9588   4.569   2.488   0.668
 3194TIP3    H2 9589   4.449   2.401   0.700
 3195TIP3   OH2 9590   0.345   5.562   1.324
 3195TIP3    H1 9591   0.342   5.555   1.420
 3195TIP3    H2 9592   0.404   5.491   1.298
 3196TIP3   OH2 9593   2.822   5.178   3.924
 3196TIP3    H1 9594   2.793   5.121   3.853
 3196TIP3    H2 9595   2.764   5.254   3.921
 3197TIP3   OH2 9596   3.582   2.984   1.990
 3197TIP3    H1 9597   3.592   2.948   2.079
 3197TIP3    H2 9598   3.583   2.907   1.933
 3198TIP3   OH2 9599   3.813   4.917   1.460
 3198TIP3    H1 9600   3.854   4.998   1.491
 3198TIP3    H2 9601   3.863   4.848   1.502
 3199TIP3   OH2 9602   3.548   4.553   1.551
 3199TIP3    H1 9603   3.523   4.485   1.489
 3199TIP3    H2 9604   3.487   4.542   1.625
 3200TIP3   OH2 9605   2.810   1.995   3.295
 3200TIP3    H1 9606   2.742   2.042   3.343
 3200TIP3    H2 9607   2.847   1.935   3.360
 3201TIP3   OH2 9608   1.521   0.749   1.679
 3201TIP3    H1 9609   1.471   0.672   1.706
 3201TIP3    H2 9610   1.508   0.812   1.749
 3202TIP3   OH2 9611   6.365   5.653   0.269
 3202TIP3    H1 9612   6.332   5.612   0.349
 3202TIP3    H2 9613   6.393   5.740   0.297
 3203TIP3   OH2 9614   1.575   1.308   1.501
 3203TIP3    H1 9615   1.500   1.280   1.449
 3203TIP3    H2 9616   1.627   1.228   1.514
 3204TIP3   OH2 9617   4.495   3.125   3.840
 3204TIP3    H1 9618   4.573   3.096   3.793
 3204TIP3    H2 9619   4.525   3.198   3.894
 3205TIP3   OH2 9620   1.040   4.951   2.703
 3205TIP3    H1 9621   0.979   5.024   2.711
 3205TIP3    H2 9622   1.098   4.975   2.631
 3206TIP3   OH2 9623   3.996   3.586   0.203
 3206TIP3    H1 9624   3.909   3.625   0.193
 3206TIP3    H2 9625   4.020   3.557   0.115
 3207TIP3   OH2 9626   5.200   1.165   3.748
 3207TIP3    H1 9627   5.155   1.085   3.775
 3207TIP3    H2 9628   5.285   1.136   3.715
 3208TIP3   OH2 9629   5.361   1.883   3.008
 3208TIP3    H1 9630   5.402   1.901   3.092
 3208TIP3    H2 9631   5.297   1.814   3.027
 3209TIP3   OH2 9632   2.752   0.987   4.626
 3209TIP3    H1 9633   2.809   0.979   4.703
 3209TIP3    H2 9634   2.809   1.019   4.557
 3210TIP3   OH2 9635   3.920   0.235   2.817
 3210TIP3    H1 9636   3.989   0.192   2.767
 3210TIP3    H2 9637   3.921   0.326   2.785
 3211TIP3   OH2 9638   4.881   5.564   4.627
 3211TIP3    H1 9639   4.961   5.567   4.679
 3211TIP3    H2 9640   4.911   5.562   4.536
 3212TIP3   OH2 9641   5.236   5.393   4.353
 3212TIP3    H1 9642   5.319   5.408   4.308
 3212TIP3    H2 9643   5.223   5.299   4.349
 3213TIP3   OH2 9644   4.731   2.158   1.508
 3213TIP3    H1 9645   4.715   2.113   1.591
 3213TIP3    H2 9646   4.656   2.136   1.453
 3214TIP3   OH2 9647   6.083   0.433   0.912
 3214TIP3    H1 9648   6.080   0.461   0.821
 3214TIP3    H2 9649   6.019   0.362   0.918
 3215TIP3   OH2 9650   5.563   4.109   0.521
 3215TIP3    H1 9651   5.536   4.074   0.606
 3215TIP3    H2 9652   5.554   4.035   0.461
 3216TIP3   OH2 9653   5.810   5.878   1.469
 3216TIP3    H1 9654   5.759   5.959   1.474
 3216TIP3    H2 9655   5.835   5.859   1.559
 3217TIP3   OH2 9656   4.183   5.507   0.788
 3217TIP3    H1 9657   4.158   5.591   0.826
 3217TIP3    H2 9658   4.218   5.456   0.861
 3218TIP3   OH2 9659   1.326   4.008   1.138
 3218TIP3    H1 9660   1.244   4.008   1.088
 3218TIP3    H2 9661   1.389   3.967   1.079
 3219TIP3   OH2 9662   2.260   1.561   4.766
 3219TIP3    H1 9663   2.309   1.610   4.832
 3219TIP3    H2 9664   2.261   1.616   4.688
 3220TIP3   OH2 9665   4.410   3.148   2.588
 3220TIP3    H1 9666   4.483   3.088   2.576
 3220TIP3    H2 9667   4.429   3.191   2.672
 3221TIP3   OH2 9668   2.368   4.089   2.856
 3221TIP3    H1 9669   2.368   4.075   2.950
 3221TIP3    H2 9670   2.401   4.008   2.819
 3222TIP3   OH2 9671   4.661   0.822   3.068
 3222TIP3    H1 9672   4.658   0.803   3.161
 3222TIP3    H2 9673   4.753   0.814   3.043
 3223TIP3   OH2 9674   1.584   4.028   3.116
 3223TIP3    H1 9675   1.533   3.963   3.164
 3223TIP3    H2 9676   1.639   4.070   3.183
 3224TIP3   OH2 9677   4.241   4.973   1.723
 3224TIP3    H1 9678   4.236   5.026   1.802
 3224TIP3    H2 9679   4.152   4.975   1.687
 3225TIP3   OH2 9680   3.453   2.586   4.079
 3225TIP3    H1 9681   3.504   2.531   4.019
 3225TIP3    H2 9682   3.519   2.621   4.139
 3226TIP3   OH2 9683   5.051   5.536   1.202
 3226TIP3    H1 9684   5.027   5.525   1.294
 3226TIP3    H2 9685   5.106   5.461   1.183
 3227TIP3   OH2 9686   0.321   5.261   3.998
 3227TIP3    H1 9687   0.308   5.343   4.046
 3227TIP3    H2 9688   0.380   5.285   3.926
 3228TIP3   OH2 9689   5.952   1.818   2.477
 3228TIP3    H1 9690   5.967   1.911   2.496
 3228TIP3    H2 9691   6.040   1.781   2.468
 3229TIP3   OH2 9692   3.603   5.516   3.971
 3229TIP3    H1 9693   3.635   5.537   4.059
 3229TIP3    H2 9694   3.555   5.594   3.944
 3230TIP3   OH2 9695   2.845   2.205   1.822
 3230TIP3    H1 9696   2.868   2.270   1.755
 3230TIP3    H2 9697   2.836   2.256   1.903
 3231TIP3   OH2 9698   5.484   2.394   3.530
 3231TIP3    H1 9699   5.479   2.300   3.516
 3231TIP3    H2 9700   5.560   2.422   3.479
 3232TIP3   OH2 9701   2.712   0.101   2.486
 3232TIP3    H1 9702   2.688   0.162   2.556
 3232TIP3    H2 9703   2.698   0.150   2.405
 3233TIP3   OH2 9704   1.328   5.358   5.135
 3233TIP3    H1 9705   1.395   5.298   5.168
 3233TIP3    H2 9706   1.362   5.387   5.050
 3234TIP3   OH2 9707   5.804   1.075   1.741
 3234TIP3    H1 9708   5.853   1.156   1.751
 3234TIP3    H2 9709   5.728   1.085   1.798
 3235TIP3   OH2 9710   3.877   5.627   3.090
 3235TIP3    H1 9711   3.782   5.614   3.081
 3235TIP3    H2 9712   3.895   5.609   3.183
 3236TIP3   OH2 9713   4.146   4.607   3.172
 3236TIP3    H1 9714   4.089   4.673   3.134
 3236TIP3    H2 9715   4.224   4.608   3.117
 3237TIP3   OH2 9716   4.274   5.696   0.981
 3237TIP3    H1 9717   4.288   5.790   0.990
 3237TIP3    H2 9718   4.192   5.679   1.027
 3238TIP3   OH2 9719   5.067   2.373   2.358
 3238TIP3    H1 9720   5.146   2.416   2.326
 3238TIP3    H2 9721   5.046   2.419   2.439
 3239TIP3   OH2 9722   2.756   4.960   4.888
 3239TIP3    H1 9723   2.703   5.019   4.941
 3239TIP3    H2 9724   2.833   4.942   4.941
 3240TIP3   OH2 9725   1.165   5.428   3.721
 3240TIP3    H1 9726   1.139   5.451   3.632
 3240TIP3    H2 9727   1.200   5.339   3.714
 3241TIP3   OH2 9728   5.612   4.903   1.105
 3241TIP3    H1 9729   5.689   4.958   1.088
 3241TIP3    H2 9730   5.545   4.939   1.047
 3242TIP3   OH2 9731   5.347   4.557   4.340
 3242TIP3    H1 9732   5.414   4.509   4.292
 3242TIP3    H2 9733   5.264   4.524   4.305
 3243TIP3   OH2 9734   2.577   3.091   0.247
 3243TIP3    H1 9735   2.514   3.164   0.244
 3243TIP3    H2 9736   2.587   3.064   0.156
 3244TIP3   OH2 9737   5.605   3.445   0.665
 3244TIP3    H1 9738   5.578   3.372   0.720
 3244TIP3    H2 9739   5.567   3.523   0.707
 3245TIP3   OH2 9740   5.390   1.592   3.750
 3245TIP3    H1 9741   5.333   1.525   3.788
 3245TIP3    H2 9742   5.466   1.595   3.809
 3246TIP3   OH2 9743   4.854   4.695   4.086
 3246TIP3    H1 9744   4.812   4.621   4.042
 3246TIP3    H2 9745   4.782   4.749   4.118
 3247TIP3   OH2 9746   6.274   3.077   4.650
 3247TIP3    H1 9747   6.247   3.148   4.709
 3247TIP3    H2 9748   6.263   3.113   4.562
 3248TIP3   OH2 9749   6.096   5.843   0.397
 3248TIP3    H1 9750   6.165   5.862   0.334
 3248TIP3    H2 9751   6.039   5.779   0.353
 3249TIP3   OH2 9752   3.023   1.209   1.459
 3249TIP3    H1 9753   3.098   1.167   1.502
 3249TIP3    H2 9754   2.961   1.138   1.443
 3250TIP3   OH2 9755   0.786   2.185   0.069
 3250TIP3    H1 9756   0.764   2.263   0.120
 3250TIP3    H2 9757   0.824   2.125   0.134
 3251TIP3   OH2 9758   5.250   5.885   1.642
 3251TIP3    H1 9759   5.193   5.903   1.568
 3251TIP3    H2 9760   5.337   5.914   1.613
 3252TIP3   OH2 9761   5.146   5.960   0.133
 3252TIP3    H1 9762   5.080   5.911   0.085
 3252TIP3    H2 9763   5.201   5.999   0.065
 3253TIP3   OH2 9764   3.224   1.491   1.766
 3253TIP3    H1 9765   3.182   1.408   1.791
 3253TIP3    H2 9766   3.182   1.515   1.684
 3254TIP3   OH2 9767   4.386   0.426   1.028
 3254TIP3    H1 9768   4.303   0.447   0.986
 3254TIP3    H2 9769   4.444   0.399   0.957
 3255TIP3   OH2 9770   4.694   3.900   0.893
 3255TIP3    H1 9771   4.600   3.902   0.877
 3255TIP3    H2 9772   4.730   3.845   0.824
 3256TIP3   OH2 9773   1.655   3.501   1.379
 3256TIP3    H1 9774   1.622   3.585   1.344
 3256TIP3    H2 9775   1.701   3.461   1.305
 3257TIP3   OH2 9776   4.561   5.231   2.243
 3257TIP3    H1 9777   4.581   5.139   2.263
 3257TIP3    H2 9778   4.511   5.261   2.319
 3258TIP3   OH2 9779   0.499   5.065   3.172
 3258TIP3    H1 9780   0.446   5.008   3.116
 3258TIP3    H2 9781   0.471   5.154   3.151
 3259TIP3   OH2 9782   3.519   2.926   3.986
 3259TIP3    H1 9783   3.486   3.007   3.946
 3259TIP3    H2 9784   3.495   2.934   4.079
 3260TIP3   OH2 9785   3.143   4.722   1.259
 3260TIP3    H1 9786   3.225   4.699   1.215
 3260TIP3    H2 9787   3.168   4.793   1.318
 3261TIP3   OH2 9788   0.505   2.771   1.885
 3261TIP3    H1 9789   0.526   2.687   1.926
 3261TIP3    H2 9790   0.418   2.759   1.848
 3262TIP3   OH2 9791   4.850   1.202   5.014
 3262TIP3    H1 9792   4.769   1.177   4.969
 3262TIP3    H2 9793   4.861   1.137   5.082
 3263TIP3   OH2 9794   1.499   4.362   4.686
 3263TIP3    H1 9795   1.417   4.358   4.735
 3263TIP3    H2 9796   1.567   4.350   4.751
 3264TIP3   OH2 9797   2.273   5.685   3.889
 3264TIP3    H1 9798   2.236   5.647   3.968
 3264TIP3    H2 9799   2.269   5.615   3.824
 3265TIP3   OH2 9800   1.477   5.733   1.763
 3265TIP3    H1 9801   1.547   5.797   1.754
 3265TIP3    H2 9802   1.400   5.776   1.725
 3266TIP3   OH2 9803   0.607   0.360   2.269
 3266TIP3    H1 9804   0.681   0.302   2.250
 3266TIP3    H2 9805   0.634   0.411   2.345
 3267TIP3   OH2 9806   1.840   3.756   3.456
 3267TIP3    H1 9807   1.824   3.768   3.362
 3267TIP3    H2 9808   1.900   3.827   3.479
 3268TIP3   OH2 9809   0.376   3.354   3.377
 3268TIP3    H1 9810   0.328   3.397   3.307
 3268TIP3    H2 9811   0.467   3.383   3.365
 3269TIP3   OH2 9812   1.596   4.880   4.591
 3269TIP3    H1 9813   1.591   4.808   4.653
 3269TIP3    H2 9814   1.563   4.844   4.509
 3270TIP3   OH2 9815   6.104   0.321   4.710
 3270TIP3    H1 9816   6.118   0.227   4.704
 3270TIP3    H2 9817   6.098   0.351   4.619
 3271TIP3   OH2 9818   0.213   3.930   0.157
 3271TIP3    H1 9819   0.273   3.996   0.191
 3271TIP3    H2 9820   0.129   3.975   0.149
 3272TIP3   OH2 9821   2.078   4.131   2.959
 3272TIP3    H1 9822   2.014   4.192   2.921
 3272TIP3    H2 9823   2.137   4.187   3.009
 3273TIP3   OH2 9824   0.164   5.252   1.561
 3273TIP3    H1 9825   0.108   5.318   1.521
 3273TIP3    H2 9826   0.225   5.302   1.616
 3274TIP3   OH2 9827   1.239   5.405   2.513
 3274TIP3    H1 9828   1.264   5.402   2.605
 3274TIP3    H2 9829   1.199   5.320   2.497
 3275TIP3   OH2 9830   1.082   2.305   2.200
 3275TIP3    H1 9831   1.041   2.380   2.158
 3275TIP3    H2 9832   1.046   2.229   2.154
 3276TIP3   OH2 9833   0.966   4.614   2.545
 3276TIP3    H1 9834   0.899   4.680   2.560
 3276TIP3    H2 9835   1.019   4.615   2.625
 3277TIP3   OH2 9836   3.142   1.748   4.417
 3277TIP3    H1 9837   3.175   1.790   4.496
 3277TIP3    H2 9838   3.219   1.707   4.377
 3278TIP3   OH2 9839   4.575   1.884   2.000
 3278TIP3    H1 9840   4.627   1.814   1.960
 3278TIP3    H2 9841   4.601   1.884   2.092
 3279TIP3   OH2 9842   3.819   4.438   3.036
 3279TIP3    H1 9843   3.791   4.467   3.123
 3279TIP3    H2 9844   3.760   4.485   2.976
 3280TIP3   OH2 9845   2.358   3.279   0.201
 3280TIP3    H1 9846   2.323   3.270   0.112
 3280TIP3    H2 9847   2.391   3.369   0.205
 3281TIP3   OH2 9848   2.149   1.342   4.670
 3281TIP3    H1 9849   2.207   1.414   4.694
 3281TIP3    H2 9850   2.170   1.272   4.731
 3282TIP3   OH2 9851   3.581   5.324   4.976
 3282TIP3    H1 9852   3.546   5.412   4.993
 3282TIP3    H2 9853   3.669   5.340   4.942
 3283TIP3   OH2 9854   4.204   2.081   3.357
 3283TIP3    H1 9855   4.262   2.114   3.288
 3283TIP3    H2 9856   4.155   2.010   3.316
 3284TIP3   OH2 9857   6.292   5.458   3.340
 3284TIP3    H1 9858   6.303   5.421   3.427
 3284TIP3    H2 9859   6.207   5.502   3.342
 3285TIP3   OH2 9860   3.827   2.145   3.011
 3285TIP3    H1 9861   3.868   2.145   2.924
 3285TIP3    H2 9862   3.774   2.225   3.012
 3286TIP3   OH2 9863   6.178   2.030   2.563
 3286TIP3    H1 9864   6.119   2.078   2.506
 3286TIP3    H2 9865   6.265   2.041   2.523
 3287TIP3   OH2 9866   4.984   0.484   1.768
 3287TIP3    H1 9867   5.017   0.492   1.679
 3287TIP3    H2 9868   5.048   0.531   1.822
 3288TIP3   OH2 9869   0.093   0.027   4.350
 3288TIP3    H1 9870   0.127   0.038   4.439
 3288TIP3    H2 9871   0.009  -0.016   4.361
 3289TIP3   OH2 9872   5.469   3.204   3.124
 3289TIP3    H1 9873   5.403   3.155   3.174
 3289TIP3    H2 9874   5.433   3.207   3.035
 3290TIP3   OH2 9875   4.339   0.179   0.807
 3290TIP3    H1 9876   4.369   0.202   0.719
 3290TIP3    H2 9877   4.255   0.225   0.816
 3291TIP3   OH2 9878   4.376   0.111   4.155
 3291TIP3    H1 9879   4.364   0.077   4.067
 3291TIP3    H2 9880   4.418   0.196   4.142
 3292TIP3   OH2 9881   3.137   4.900   4.268
 3292TIP3    H1 9882   3.202   4.925   4.202
 3292TIP3    H2 9883   3.157   4.955   4.344
 3293TIP3   OH2 9884   5.127   0.093   4.872
 3293TIP3    H1 9885   5.095   0.061   4.956
 3293TIP3    H2 9886   5.074   0.046   4.807
 3294TIP3   OH2 9887   4.515   1.725   2.837
 3294TIP3    H1 9888   4.602   1.748   2.868
 3294TIP3    H2 9889   4.459   1.797   2.867
 3295TIP3   OH2 9890   2.942   1.356   2.377
 3295TIP3    H1 9891   3.000   1.282   2.360
 3295TIP3    H2 9892   2.935   1.402   2.294
 3296TIP3   OH2 9893   4.883   4.432   0.462
 3296TIP3    H1 9894   4.910   4.426   0.554
 3296TIP3    H2 9895   4.865   4.342   0.437
 3297TIP3   OH2 9896   4.703   0.440   4.746
 3297TIP3    H1 9897   4.682   0.401   4.831
 3297TIP3    H2 9898   4.779   0.495   4.763
 3298TIP3   OH2 9899   1.141   5.324   1.783
 3298TIP3    H1 9900   1.116   5.411   1.815
 3298TIP3    H2 9901   1.113   5.264   1.853
 3299TIP3   OH2 9902   3.851   1.328   5.085
 3299TIP3    H1 9903   3.790   1.360   5.151
 3299TIP3    H2 9904   3.872   1.239   5.113
 3300TIP3   OH2 9905   3.984   1.360   1.925
 3300TIP3    H1 9906   3.969   1.427   1.858
 3300TIP3    H2 9907   4.027   1.406   1.997
 3301TIP3   OH2 9908   1.815   1.357   1.763
 3301TIP3    H1 9909   1.858   1.399   1.837
 3301TIP3    H2 9910   1.856   1.270   1.758
 3302TIP3   OH2 9911   4.266   0.991   0.379
 3302TIP3    H1 9912   4.349   1.026   0.346
 3302TIP3    H2 9913   4.291   0.931   0.449
 3303TIP3   OH2 9914   2.074   0.355   3.823
 3303TIP3    H1 9915   2.066   0.448   3.842
 3303TIP3    H2 9916   2.018   0.313   3.889
 3304TIP3   OH2 9917   2.921   1.779   0.963
 3304TIP3    H1 9918   2.976   1.737   1.029
 3304TIP3    H2 9919   2.942   1.873   0.970
 3305TIP3   OH2 9920   1.787   5.735   0.838
 3305TIP3    H1 9921   1.858   5.797   0.851
 3305TIP3    H2 9922   1.780   5.724   0.743
 3306TIP3   OH2 9923   3.810   4.239   1.037
 3306TIP3    H1 9924   3.805   4.303   0.966
 3306TIP3    H2 9925   3.757   4.165   1.007
 3307TIP3   OH2 9926   3.689   3.197   1.487
 3307TIP3    H1 9927   3.740   3.278   1.493
 3307TIP3    H2 9928   3.655   3.184   1.576
 3308TIP3   OH2 9929   0.265   3.064   1.873
 3308TIP3    H1 9930   0.229   3.116   1.801
 3308TIP3    H2 9931   0.234   2.975   1.855
 3309TIP3   OH2 9932   4.180   2.156   1.853
 3309TIP3    H1 9933   4.218   2.070   1.869
 3309TIP3    H2 9934   4.235   2.216   1.903
 3310TIP3   OH2 9935   4.660   0.281   4.254
 3310TIP3    H1 9936   4.606   0.272   4.333
 3310TIP3    H2 9937   4.694   0.370   4.257
 3311TIP3   OH2 9938   1.037   1.327   1.002
 3311TIP3    H1 9939   0.966   1.371   1.049
 3311TIP3    H2 9940   1.005   1.237   0.989
 3312TIP3   OH2 9941   2.012   5.369   0.858
 3312TIP3    H1 9942   2.080   5.434   0.842
 3312TIP3    H2 9943   2.058   5.285   0.858
 3313TIP3   OH2 9944   3.518   3.182   2.566
 3313TIP3    H1 9945   3.596   3.198   2.619
 3313TIP3    H2 9946   3.483   3.100   2.599
 3314TIP3   OH2 9947   4.331   3.821   0.574
 3314TIP3    H1 9948   4.316   3.870   0.494
 3314TIP3    H2 9949   4.342   3.887   0.642
 3315TIP3   OH2 9950   3.648   3.572   4.901
 3315TIP3    H1 9951   3.621   3.509   4.834
 3315TIP3    H2 9952   3.705   3.634   4.854
 3316TIP3   OH2 9953   2.023   3.123   4.573
 3316TIP3    H1 9954   1.929   3.126   4.591
 3316TIP3    H2 9955   2.049   3.034   4.597
 3317TIP3   OH2 9956   4.851   0.733   1.426
 3317TIP3    H1 9957   4.931   0.698   1.466
 3317TIP3    H2 9958   4.780   0.688   1.473
 3318TIP3   OH2 9959   4.760   1.941   4.603
 3318TIP3    H1 9960   4.685   1.945   4.663
 3318TIP3    H2 9961   4.810   1.865   4.633
 3319TIP3   OH2 9962   1.623   5.921   1.622
 3319TIP3    H1 9963   1.641   6.013   1.639
 3319TIP3    H2 9964   1.605   5.917   1.528
 3320TIP3   OH2 9965   5.357   4.979   3.257
 3320TIP3    H1 9966   5.372   4.965   3.163
 3320TIP3    H2 9967   5.441   5.011   3.290
 3321TIP3   OH2 9968   3.144   5.310   4.948
 3321TIP3    H1 9969   3.155   5.388   4.894
 3321TIP3    H2 9970   3.052   5.288   4.941
 3322TIP3   OH2 9971   1.005   5.869   4.142
 3322TIP3    H1 9972   1.054   5.791   4.168
 3322TIP3    H2 9973   1.072   5.931   4.113
 3323TIP3   OH2 9974   1.408   1.338   5.150
 3323TIP3    H1 9975   1.471   1.306   5.086
 3323TIP3    H2 9976   1.418   1.279   5.225
 3324TIP3   OH2 9977   0.439   3.983   0.609
 3324TIP3    H1 9978   0.459   4.065   0.565
 3324TIP3    H2 9979   0.344   3.974   0.602
 3325TIP3   OH2 9980   2.840   1.936   1.696
 3325TIP3    H1 9981   2.882   1.933   1.609
 3325TIP3    H2 9982   2.851   2.027   1.724
 3326TIP3   OH2 9983   6.179   2.160   4.063
 3326TIP3    H1 9984   6.213   2.077   4.097
 3326TIP3    H2 9985   6.137   2.201   4.138
 3327TIP3   OH2 9986   5.592   2.104   4.565
 3327TIP3    H1 9987   5.506   2.064   4.572
 3327TIP3    H2 9988   5.653   2.030   4.555
 3328TIP3   OH2 9989   5.404   3.011   3.653
 3328TIP3    H1 9990   5.499   3.007   3.661
 3328TIP3    H2 9991   5.380   3.094   3.695
 3329TIP3   OH2 9992   4.543   4.607   4.128
 3329TIP3    H1 9993   4.545   4.696   4.163
 3329TIP3    H2 9994   4.474   4.563   4.179
 3330TIP3   OH2 9995   5.040   1.839   1.715
 3330TIP3    H1 9996   5.034   1.894   1.636
 3330TIP3    H2 9997   5.006   1.894   1.785
 3331TIP3   OH2 9998   4.617   0.402   5.043
 3331TIP3    H1 9999   4.692   0.360   5.085
 3331TIP3    H210000   4.609   0.486   5.089
 3332TIP3   OH210001   5.938   2.125   3.940
 3332TIP3    H110002   5.921   2.215   3.911
 3332TIP3    H210003   6.017   2.132   3.992
 3333TIP3   OH210004   1.756   2.713   1.292
 3333TIP3    H110005   1.777   2.734   1.383
 3333TIP3    H210006   1.806   2.775   1.240
 3334TIP3   OH210007   2.351   3.280   3.519
 3334TIP3    H110008   2.341   3.227   3.439
 3334TIP3    H210009   2.289   3.241   3.581
 3335TIP3   OH210010   5.733   3.258   2.998
 3335TIP3    H110011   5.696   3.312   2.928
 3335TIP3    H210012   5.657   3.223   3.044
 3336TIP3   OH210013   1.756   4.721   2.013
 3336TIP3    H110014   1.798   4.802   2.041
 3336TIP3    H210015   1.686   4.750   1.954
 3337TIP3   OH210016   2.156   0.684   3.659
 3337TIP3    H110017   2.123   0.672   3.748
 3337TIP3    H210018   2.118   0.767   3.630
 3338TIP3   OH210019   1.449   1.464   1.213
 3338TIP3    H110020   1.465   1.513   1.132
 3338TIP3    H210021   1.401   1.386   1.184
 3339TIP3   OH210022   0.237   0.048   1.545
 3339TIP3    H110023   0.232  -0.045   1.568
 3339TIP3    H210024   0.283   0.050   1.461
 3340TIP3   OH210025   2.382   4.526   4.788
 3340TIP3    H110026   2.462   4.488   4.751
 3340TIP3    H210027   2.392   4.620   4.776
 3341TIP3   OH210028   1.677   4.600   0.542
 3341TIP3    H110029   1.606   4.567   0.487
 3341TIP3    H210030   1.752   4.607   0.483
 3342TIP3   OH210031   3.991   3.830   0.720
 3342TIP3    H110032   3.964   3.767   0.786
 3342TIP3    H210033   3.925   3.899   0.725
 3343TIP3   OH210034   6.115   3.217   5.095
 3343TIP3    H110035   6.201   3.202   5.134
 3343TIP3    H210036   6.063   3.142   5.122
 3344TIP3   OH210037   0.672   1.504   4.448
 3344TIP3    H110038   0.737   1.508   4.378
 3344TIP3    H210039   0.716   1.459   4.520
 3345TIP3   OH210040   0.097   0.328   4.583
 3345TIP3    H110041   0.114   0.233   4.581
 3345TIP3    H210042   0.070   0.349   4.494
 3346TIP3   OH210043   1.774   3.111   2.865
 3346TIP3    H110044   1.708   3.069   2.919
 3346TIP3    H210045   1.737   3.196   2.842
 3347TIP3   OH210046   5.851   3.834   2.582
 3347TIP3    H110047   5.795   3.909   2.601
 3347TIP3    H210048   5.816   3.764   2.637
 3348TIP3   OH210049  -0.050   4.032   1.129
 3348TIP3    H110050  -0.083   4.056   1.043
 3348TIP3    H210051  -0.127   4.033   1.186
 3349TIP3   OH210052   4.860   2.556   4.158
 3349TIP3    H110053   4.807   2.573   4.080
 3349TIP3    H210054   4.941   2.603   4.144
 3350TIP3   OH210055   5.942   4.197   0.810
 3350TIP3    H110056   5.928   4.107   0.781
 3350TIP3    H210057   5.865   4.218   0.862
 3351TIP3   OH210058   1.870   3.022   0.455
 3351TIP3    H110059   1.792   3.077   0.463
 3351TIP3    H210060   1.941   3.076   0.488
 3352TIP3   OH210061   1.651   1.737   3.026
 3352TIP3    H110062   1.564   1.718   2.990
 3352TIP3    H210063   1.686   1.652   3.052
 3353TIP3   OH210064   3.179   4.452   0.473
 3353TIP3    H110065   3.256   4.398   0.456
 3353TIP3    H210066   3.108   4.390   0.488
 3354TIP3   OH210067   1.002   0.606   4.930
 3354TIP3    H110068   0.983   0.515   4.907
 3354TIP3    H210069   0.937   0.657   4.881
 3355TIP3   OH210070   3.655   0.484   1.692
 3355TIP3    H110071   3.694   0.544   1.756
 3355TIP3    H210072   3.714   0.487   1.618
 3356TIP3   OH210073   5.737   5.103   1.952
 3356TIP3    H110074   5.781   5.037   1.898
 3356TIP3    H210075   5.716   5.174   1.890
 3357TIP3   OH210076   0.362   0.195   4.920
 3357TIP3    H110077   0.325   0.282   4.904
 3357TIP3    H210078   0.403   0.202   5.006
 3358TIP3   OH210079   2.666   0.776   2.434
 3358TIP3    H110080   2.687   0.819   2.517
 3358TIP3    H210081   2.570   0.770   2.434
 3359TIP3   OH210082   2.392   0.192   4.992
 3359TIP3    H110083   2.328   0.122   4.985
 3359TIP3    H210084   2.441   0.189   4.909
 3360TIP3   OH210085   1.816   0.874   3.935
 3360TIP3    H110086   1.874   0.811   3.892
 3360TIP3    H210087   1.867   0.907   4.009
 3361TIP3   OH210088   2.684   3.522   4.179
 3361TIP3    H110089   2.701   3.599   4.125
 3361TIP3    H210090   2.600   3.540   4.220
 3362TIP3   OH210091   0.426   2.529   3.194
 3362TIP3    H110092   0.358   2.537   3.261
 3362TIP3    H210093   0.413   2.605   3.137
 3363TIP3   OH210094   3.108   3.877   2.160
 3363TIP3    H110095   3.027   3.896   2.113
 3363TIP3    H210096   3.087   3.897   2.252
 3364TIP3   OH210097   0.404   4.595   1.662
 3364TIP3    H110098   0.459   4.673   1.661
 3364TIP3    H210099   0.429   4.548   1.741
 3365TIP3   OH210100   5.501   3.620   1.906
 3365TIP3    H110101   5.579   3.621   1.962
 3365TIP3    H210102   5.532   3.585   1.822
 3366TIP3   OH210103   1.154   2.681   2.274
 3366TIP3    H110104   1.137   2.671   2.367
 3366TIP3    H210105   1.091   2.621   2.232
 3367TIP3   OH210106   5.803   1.918   1.620
 3367TIP3    H110107   5.728   1.940   1.675
 3367TIP3    H210108   5.773   1.935   1.531
 3368TIP3   OH210109   5.753   0.470   4.134
 3368TIP3    H110110   5.764   0.387   4.088
 3368TIP3    H210111   5.798   0.534   4.078
 3369TIP3   OH210112   3.118   5.424   3.418
 3369TIP3    H110113   3.103   5.331   3.401
 3369TIP3    H210114   3.133   5.429   3.512
 3370TIP3   OH210115   5.433   0.652   1.891
 3370TIP3    H110116   5.481   0.573   1.914
 3370TIP3    H210117   5.342   0.631   1.911
 3371TIP3   OH210118   1.426   3.917   2.921
 3371TIP3    H110119   1.436   3.982   2.851
 3371TIP3    H210120   1.490   3.942   2.987
 3372TIP3   OH210121   4.663   3.954   4.888
 3372TIP3    H110122   4.602   4.024   4.907
 3372TIP3    H210123   4.735   3.967   4.951
 3373TIP3   OH210124   2.027   4.959  -0.041
 3373TIP3    H110125   1.952   5.002  -0.001
 3373TIP3    H210126   2.008   4.865  -0.033
 3374TIP3   OH210127   0.480   0.319  -0.046
 3374TIP3    H110128   0.533   0.398  -0.038
 3374TIP3    H210129   0.490   0.275   0.038
 3375TIP3   OH210130   2.671   5.135   1.053
 3375TIP3    H110131   2.668   5.229   1.068
 3375TIP3    H210132   2.602   5.119   0.988
 3376TIP3   OH210133   0.514   5.562   0.932
 3376TIP3    H110134   0.508   5.509   0.852
 3376TIP3    H210135   0.607   5.581   0.942
 3377TIP3   OH210136   5.408   3.272   0.869
 3377TIP3    H110137   5.327   3.246   0.914
 3377TIP3    H210138   5.397   3.366   0.855
 3378TIP3   OH210139   5.921   3.813   0.802
 3378TIP3    H110140   5.873   3.878   0.751
 3378TIP3    H210141   6.012   3.822   0.773
 3379TIP3   OH210142   4.699   4.445   4.313
 3379TIP3    H110143   4.625   4.384   4.313
 3379TIP3    H210144   4.757   4.412   4.244
 3380TIP3   OH210145   3.056   4.633   2.501
 3380TIP3    H110146   3.121   4.597   2.440
 3380TIP3    H210147   3.105   4.694   2.555
 3381TIP3   OH210148   4.935   2.608   1.070
 3381TIP3    H110149   4.997   2.550   1.026
 3381TIP3    H210150   4.850   2.569   1.053
 3382TIP3   OH210151   0.890   0.470   1.750
 3382TIP3    H110152   0.920   0.504   1.666
 3382TIP3    H210153   0.928   0.529   1.815
 3383TIP3   OH210154   2.806   4.248   0.147
 3383TIP3    H110155   2.879   4.282   0.094
 3383TIP3    H210156   2.775   4.324   0.195
 3384TIP3   OH210157   6.122   5.416   0.159
 3384TIP3    H110158   6.149   5.419   0.251
 3384TIP3    H210159   6.172   5.486   0.117
 3385TIP3   OH210160   3.868   4.627   3.891
 3385TIP3    H110161   3.778   4.635   3.862
 3385TIP3    H210162   3.906   4.714   3.877
 3386TIP3   OH210163   0.867   4.522   1.794
 3386TIP3    H110164   0.826   4.546   1.711
 3386TIP3    H210165   0.950   4.482   1.769
 3387TIP3   OH210166   0.795   0.111   1.003
 3387TIP3    H110167   0.857   0.095   1.074
 3387TIP3    H210168   0.842   0.084   0.924
 3388TIP3   OH210169   0.338   2.088   1.156
 3388TIP3    H110170   0.409   2.122   1.102
 3388TIP3    H210171   0.380   2.025   1.214
 3389TIP3   OH210172   5.613   2.678   0.208
 3389TIP3    H110173   5.560   2.756   0.224
 3389TIP3    H210174   5.673   2.704   0.139
 3390TIP3   OH210175   3.180   2.155   4.864
 3390TIP3    H110176   3.088   2.179   4.850
 3390TIP3    H210177   3.228   2.209   4.802
 3391TIP3   OH210178   5.727   5.322   3.737
 3391TIP3    H110179   5.636   5.299   3.717
 3391TIP3    H210180   5.734   5.305   3.831
 3392TIP3   OH210181   3.482   3.113   3.504
 3392TIP3    H110182   3.548   3.104   3.573
 3392TIP3    H210183   3.533   3.114   3.422
 3393TIP3   OH210184   5.511   1.753   4.384
 3393TIP3    H110185   5.451   1.826   4.404
 3393TIP3    H210186   5.500   1.738   4.290
 3394TIP3   OH210187   0.472   0.996   0.761
 3394TIP3    H110188   0.440   1.081   0.731
 3394TIP3    H210189   0.501   0.952   0.681
 3395TIP3   OH210190   1.420   2.258   2.769
 3395TIP3    H110191   1.348   2.306   2.810
 3395TIP3    H210192   1.480   2.239   2.842
 3396TIP3   OH210193   2.203   2.688   3.522
 3396TIP3    H110194   2.228   2.730   3.440
 3396TIP3    H210195   2.150   2.612   3.495
 3397TIP3   OH210196   4.878   3.235   2.451
 3397TIP3    H110197   4.961   3.225   2.498
 3397TIP3    H210198   4.811   3.223   2.518
 3398TIP3   OH210199   3.210   4.236   1.250
 3398TIP3    H110200   3.192   4.297   1.321
 3398TIP3    H210201   3.147   4.260   1.181
 3399TIP3   OH210202   5.155   4.785   3.313
 3399TIP3    H110203   5.124   4.805   3.401
 3399TIP3    H210204   5.186   4.869   3.279
 3400TIP3   OH210205   3.487   1.680   0.288
 3400TIP3    H110206   3.553   1.628   0.244
 3400TIP3    H210207   3.535   1.725   0.358
 3401TIP3   OH210208   4.746   4.675   0.535
 3401TIP3    H110209   4.830   4.632   0.517
 3401TIP3    H210210   4.762   4.768   0.516
 3402TIP3   OH210211   0.135   5.135   0.740
 3402TIP3    H110212   0.089   5.057   0.711
 3402TIP3    H210213   0.066   5.200   0.753
 3403TIP3   OH210214   5.060   4.055   4.626
 3403TIP3    H110215   5.148   4.029   4.599
 3403TIP3    H210216   5.036   4.126   4.567
 3404TIP3   OH210217   4.645   2.062   1.760
 3404TIP3    H110218   4.681   2.140   1.802
 3404TIP3    H210219   4.607   2.012   1.831
 3405TIP3   OH210220   2.676   1.504   4.648
 3405TIP3    H110221   2.688   1.593   4.616
 3405TIP3    H210222   2.629   1.459   4.578
 3406TIP3   OH210223   1.808   1.406   0.369
 3406TIP3    H110224   1.844   1.355   0.441
 3406TIP3    H210225   1.861   1.382   0.293
 3407TIP3   OH210226   3.983   1.467   4.284
 3407TIP3    H110227   3.900   1.505   4.257
 3407TIP3    H210228   4.000   1.503   4.371
 3408TIP3   OH210229   0.532   2.186   0.958
 3408TIP3    H110230   0.540   2.248   0.885
 3408TIP3    H210231   0.597   2.118   0.939
 3409TIP3   OH210232   3.688   1.202   2.583
 3409TIP3    H110233   3.627   1.228   2.515
 3409TIP3    H210234   3.640   1.140   2.637
 3410TIP3   OH210235   2.680   2.892   2.595
 3410TIP3    H110236   2.658   2.881   2.687
 3410TIP3    H210237   2.622   2.961   2.564
 3411TIP3   OH210238   5.709   3.851   3.592
 3411TIP3    H110239   5.645   3.866   3.661
 3411TIP3    H210240   5.763   3.929   3.591
 3412TIP3   OH210241   5.959   4.232   2.528
 3412TIP3    H110242   5.908   4.311   2.549
 3412TIP3    H210243   5.931   4.208   2.440
 3413TIP3   OH210244   5.197   2.861   1.594
 3413TIP3    H110245   5.171   2.775   1.560
 3413TIP3    H210246   5.243   2.842   1.675
 3414TIP3   OH210247   3.343   2.199   0.769
 3414TIP3    H110248   3.265   2.147   0.748
 3414TIP3    H210249   3.341   2.207   0.864
 3415TIP3   OH210250   2.867   2.744   0.081
 3415TIP3    H110251   2.801   2.761   0.148
 3415TIP3    H210252   2.932   2.813   0.093
 3416TIP3   OH210253   0.311   0.884   2.405
 3416TIP3    H110254   0.269   0.880   2.319
 3416TIP3    H210255   0.240   0.914   2.463
 3417TIP3   OH210256   0.956   5.175   1.647
 3417TIP3    H110257   0.892   5.193   1.717
 3417TIP3    H210258   1.033   5.225   1.673
 3418TIP3   OH210259   2.074   1.981   3.279
 3418TIP3    H110260   2.013   1.988   3.352
 3418TIP3    H210261   2.024   2.010   3.202
 3419TIP3   OH210262   2.005   1.864   2.083
 3419TIP3    H110263   1.996   1.773   2.112
 3419TIP3    H210264   1.915   1.892   2.063
 3420TIP3   OH210265   1.433   4.090   1.943
 3420TIP3    H110266   1.362   4.152   1.961
 3420TIP3    H210267   1.476   4.125   1.865
 3421TIP3   OH210268   1.615   1.051   1.695
 3421TIP3    H110269   1.601   1.143   1.717
 3421TIP3    H210270   1.555   1.003   1.752
 3422TIP3   OH210271   2.518   0.191   4.279
 3422TIP3    H110272   2.431   0.227   4.296
 3422TIP3    H210273   2.578   0.260   4.305
 3423TIP3   OH210274   1.694   3.319   2.111
 3423TIP3    H110275   1.707   3.366   2.029
 3423TIP3    H210276   1.767   3.347   2.167
 3424TIP3   OH210277   1.313   2.456   0.397
 3424TIP3    H110278   1.303   2.551   0.401
 3424TIP3    H210279   1.382   2.437   0.462
 3425TIP3   OH210280   4.060   1.015   2.229
 3425TIP3    H110281   4.067   0.925   2.198
 3425TIP3    H210282   4.048   1.067   2.150
 3426TIP3   OH210283   0.147   2.130   4.594
 3426TIP3    H110284   0.085   2.169   4.533
 3426TIP3    H210285   0.160   2.041   4.562
 3427TIP3   OH210286   2.854   3.975   0.180
 3427TIP3    H110287   2.800   3.924   0.240
 3427TIP3    H210288   2.825   4.065   0.193
 3428TIP3   OH210289   3.499   2.354   2.614
 3428TIP3    H110290   3.447   2.316   2.685
 3428TIP3    H210291   3.590   2.339   2.641
 3429TIP3   OH210292   1.104   2.487   2.660
 3429TIP3    H110293   1.044   2.414   2.679
 3429TIP3    H210294   1.148   2.461   2.578
 3430TIP3   OH210295   2.857   4.469   3.795
 3430TIP3    H110296   2.763   4.463   3.814
 3430TIP3    H210297   2.884   4.380   3.775
 3431TIP3   OH210298   0.630   4.141   2.759
 3431TIP3    H110299   0.566   4.187   2.704
 3431TIP3    H210300   0.709   4.138   2.706
 3432TIP3   OH210301   6.213   4.685   4.243
 3432TIP3    H110302   6.201   4.655   4.153
 3432TIP3    H210303   6.128   4.723   4.267
 3433TIP3   OH210304   4.103   1.675   1.748
 3433TIP3    H110305   4.092   1.717   1.834
 3433TIP3    H210306   4.019   1.633   1.730
 3434TIP3   OH210307   1.579   4.380   0.699
 3434TIP3    H110308   1.634   4.458   0.693
 3434TIP3    H210309   1.576   4.345   0.610
 3435TIP3   OH210310   0.982   5.698   2.674
 3435TIP3    H110311   0.928   5.738   2.742
 3435TIP3    H210312   1.061   5.752   2.672
 3436TIP3   OH210313   5.235   5.508   1.420
 3436TIP3    H110314   5.168   5.455   1.463
 3436TIP3    H210315   5.309   5.506   1.480
 3437TIP3   OH210316   4.701   2.468   3.946
 3437TIP3    H110317   4.681   2.418   4.025
 3437TIP3    H210318   4.629   2.447   3.886
 3438TIP3   OH210319   5.019   0.356   4.916
 3438TIP3    H110320   5.054   0.267   4.914
 3438TIP3    H210321   5.039   0.392   4.830
 3439TIP3   OH210322   4.813   4.958   0.548
 3439TIP3    H110323   4.770   4.977   0.631
 3439TIP3    H210324   4.788   5.031   0.491
 3440TIP3   OH210325   3.313   0.968   3.184
 3440TIP3    H110326   3.238   1.015   3.149
 3440TIP3    H210327   3.325   1.003   3.272
 3441TIP3   OH210328   5.354   2.316   3.779
 3441TIP3    H110329   5.448   2.300   3.788
 3441TIP3    H210330   5.314   2.229   3.779
 3442TIP3   OH210331   2.920   2.908   4.443
 3442TIP3    H110332   2.923   2.813   4.429
 3442TIP3    H210333   3.012   2.933   4.453
 3443TIP3   OH210334   0.098   4.544   4.634
 3443TIP3    H110335   0.090   4.461   4.682
 3443TIP3    H210336   0.050   4.607   4.687
 3444TIP3   OH210337   3.329   5.507   2.342
 3444TIP3    H110338   3.344   5.598   2.316
 3444TIP3    H210339   3.236   5.503   2.363
 3445TIP3   OH210340   3.642   0.464   0.905
 3445TIP3    H110341   3.705   0.392   0.905
 3445TIP3    H210342   3.559   0.423   0.885
 3446TIP3   OH210343   5.050   2.202   0.631
 3446TIP3    H110344   5.022   2.292   0.617
 3446TIP3    H210345   4.982   2.148   0.589
 3447TIP3   OH210346   0.927   1.107   0.706
 3447TIP3    H110347   0.963   1.196   0.704
 3447TIP3    H210348   0.923   1.086   0.799
 3448TIP3   OH210349   5.403   4.216   1.865
 3448TIP3    H110350   5.460   4.221   1.789
 3448TIP3    H210351   5.344   4.290   1.856
 3449TIP3   OH210352   2.676   0.467   2.476
 3449TIP3    H110353   2.694   0.561   2.479
 3449TIP3    H210354   2.628   0.449   2.557
 3450TIP3   OH210355   2.731   3.540   0.756
 3450TIP3    H110356   2.813   3.496   0.731
 3450TIP3    H210357   2.696   3.486   0.827
 3451TIP3   OH210358   5.759   5.583   1.524
 3451TIP3    H110359   5.677   5.607   1.481
 3451TIP3    H210360   5.790   5.665   1.563
 3452TIP3   OH210361   6.144   0.899   4.559
 3452TIP3    H110362   6.180   0.844   4.489
 3452TIP3    H210363   6.060   0.929   4.525
 3453TIP3   OH210364   3.018   2.673   2.699
 3453TIP3    H110365   2.957   2.659   2.626
 3453TIP3    H210366   3.105   2.664   2.659
 3454TIP3   OH210367   4.876   1.785   3.625
 3454TIP3    H110368   4.898   1.700   3.588
 3454TIP3    H210369   4.780   1.784   3.633
 3455TIP3   OH210370   1.429   1.940   4.104
 3455TIP3    H110371   1.353   1.997   4.098
 3455TIP3    H210372   1.504   1.999   4.094
 3456TIP3   OH210373   0.021   0.258   3.857
 3456TIP3    H110374  -0.034   0.198   3.807
 3456TIP3    H210375   0.072   0.202   3.915
 3457TIP3   OH210376   4.355   5.347   1.959
 3457TIP3    H110377   4.415   5.352   1.885
 3457TIP3    H210378   4.410   5.358   2.036
 3458TIP3   OH210379   5.648   1.994   0.473
 3458TIP3    H110380   5.602   2.026   0.396
 3458TIP3    H210381   5.596   2.025   0.547
 3459TIP3   OH210382   2.914   3.422   2.196
 3459TIP3    H110383   2.926   3.427   2.291
 3459TIP3    H210384   2.982   3.479   2.161
 3460TIP3   OH210385   5.250   3.988   0.108
 3460TIP3    H110386   5.223   3.896   0.101
 3460TIP3    H210387   5.343   3.987   0.088
 3461TIP3   OH210388   5.042   2.540   5.049
 3461TIP3    H110389   5.079   2.584   4.972
 3461TIP3    H210390   4.949   2.533   5.029
 3462TIP3   OH210391   1.424   1.895   1.668
 3462TIP3    H110392   1.405   1.987   1.687
 3462TIP3    H210393   1.339   1.852   1.667
 3463TIP3   OH210394   5.862   5.573   4.096
 3463TIP3    H110395   5.805   5.637   4.054
 3463TIP3    H210396   5.875   5.607   4.184
 3464TIP3   OH210397   0.407   0.184   3.738
 3464TIP3    H110398   0.361   0.218   3.662
 3464TIP3    H210399   0.364   0.100   3.756
 3465TIP3   OH210400   4.874   0.917   3.307
 3465TIP3    H110401   4.795   0.865   3.315
 3465TIP3    H210402   4.905   0.901   3.218
 3466TIP3   OH210403   0.246   5.121   2.930
 3466TIP3    H110404   0.296   5.203   2.933
 3466TIP3    H210405   0.176   5.139   2.867
 3467TIP3   OH210406   0.851   1.185   4.979
 3467TIP3    H110407   0.861   1.242   5.055
 3467TIP3    H210408   0.904   1.226   4.911
 3468TIP3   OH210409   2.811   3.702   1.065
 3468TIP3    H110410   2.841   3.690   1.155
 3468TIP3    H210411   2.716   3.708   1.072
 3469TIP3   OH210412   1.098   4.652   4.977
 3469TIP3    H110413   1.056   4.722   5.027
 3469TIP3    H210414   1.044   4.642   4.899
 3470TIP3   OH210415   3.183   4.719   0.587
 3470TIP3    H110416   3.176   4.637   0.538
 3470TIP3    H210417   3.194   4.691   0.678
 3471TIP3   OH210418   4.520   3.408   4.461
 3471TIP3    H110419   4.526   3.401   4.556
 3471TIP3    H210420   4.528   3.317   4.430
 3472TIP3   OH210421   2.384   0.593   3.526
 3472TIP3    H110422   2.327   0.623   3.596
 3472TIP3    H210423   2.357   0.643   3.449
 3473TIP3   OH210424   1.344   3.863   4.469
 3473TIP3    H110425   1.350   3.918   4.547
 3473TIP3    H210426   1.435   3.837   4.452
 3474TIP3   OH210427   1.203   5.594   2.066
 3474TIP3    H110428   1.169   5.569   2.152
 3474TIP3    H210429   1.298   5.600   2.078
 3475TIP3   OH210430   3.007   1.775   2.436
 3475TIP3    H110431   2.989   1.847   2.496
 3475TIP3    H210432   3.062   1.814   2.368
 3476TIP3   OH210433   0.713   0.455   3.100
 3476TIP3    H110434   0.740   0.384   3.041
 3476TIP3    H210435   0.760   0.437   3.182
 3477TIP3   OH210436   0.839   3.863   0.796
 3477TIP3    H110437   0.866   3.916   0.721
 3477TIP3    H210438   0.744   3.878   0.803
 3478TIP3   OH210439   0.678   3.082   2.441
 3478TIP3    H110440   0.628   3.039   2.510
 3478TIP3    H210441   0.731   3.013   2.403
 3479TIP3   OH210442   1.472   2.886   5.165
 3479TIP3    H110443   1.426   2.970   5.168
 3479TIP3    H210444   1.527   2.892   5.087
 3480TIP3   OH210445   5.062   3.249   4.601
 3480TIP3    H110446   5.138   3.267   4.657
 3480TIP3    H210447   5.028   3.166   4.632
 3481TIP3   OH210448   3.389   5.480   3.323
 3481TIP3    H110449   3.303   5.490   3.365
 3481TIP3    H210450   3.393   5.553   3.261
 3482TIP3   OH210451   2.524   4.458   1.079
 3482TIP3    H110452   2.545   4.494   0.992
 3482TIP3    H210453   2.508   4.535   1.133
 3483TIP3   OH210454   5.481   3.313   3.655
 3483TIP3    H110455   5.559   3.268   3.623
 3483TIP3    H210456   5.490   3.403   3.625
 3484TIP3   OH210457   2.663   2.104   0.215
 3484TIP3    H110458   2.591   2.148   0.261
 3484TIP3    H210459   2.633   2.013   0.208
 3485TIP3   OH210460   1.775   4.335   1.746
 3485TIP3    H110461   1.688   4.340   1.785
 3485TIP3    H210462   1.780   4.247   1.708
 3486TIP3   OH210463   3.082   0.750   4.622
 3486TIP3    H110464   3.107   0.754   4.530
 3486TIP3    H210465   3.159   0.714   4.667
 3487TIP3   OH210466   3.912   2.231   4.551
 3487TIP3    H110467   3.854   2.203   4.621
 3487TIP3    H210468   3.937   2.149   4.507
 3488TIP3   OH210469   2.297   4.992   1.576
 3488TIP3    H110470   2.279   5.020   1.666
 3488TIP3    H210471   2.282   4.898   1.577
 3489TIP3   OH210472   2.071   4.868   1.756
 3489TIP3    H110473   2.073   4.806   1.830
 3489TIP3    H210474   2.005   4.933   1.782
 3490TIP3   OH210475   5.613   4.211   1.684
 3490TIP3    H110476   5.644   4.233   1.596
 3490TIP3    H210477   5.628   4.117   1.692
 3491TIP3   OH210478   3.915   0.617   1.846
 3491TIP3    H110479   3.835   0.665   1.827
 3491TIP3    H210480   3.982   0.661   1.793
 3492TIP3   OH210481   1.097   1.194   2.998
 3492TIP3    H110482   1.056   1.140   3.066
 3492TIP3    H210483   1.025   1.213   2.937
 3493TIP3   OH210484   2.871   4.831   3.868
 3493TIP3    H110485   2.939   4.875   3.816
 3493TIP3    H210486   2.919   4.782   3.934
 3494TIP3   OH210487   5.340   0.704   5.031
 3494TIP3    H110488   5.359   0.678   5.121
 3494TIP3    H210489   5.352   0.625   4.980
 3495TIP3   OH210490   5.374   4.467   0.295
 3495TIP3    H110491   5.401   4.461   0.386
 3495TIP3    H210492   5.280   4.454   0.297
 3496TIP3   OH210493   1.178   5.655   4.203
 3496TIP3    H110494   1.183   5.594   4.129
 3496TIP3    H210495   1.269   5.684   4.215
 3497TIP3   OH210496   6.067   1.006   0.878
 3497TIP3    H110497   6.076   0.968   0.790
 3497TIP3    H210498   6.003   1.076   0.868
 3498TIP3   OH210499   0.497   0.319   0.691
 3498TIP3    H110500   0.469   0.235   0.728
 3498TIP3    H210501   0.551   0.294   0.615
 3499TIP3   OH210502   0.239   3.574   2.528
 3499TIP3    H110503   0.214   3.483   2.546
 3499TIP3    H210504   0.314   3.566   2.469
 3500TIP3   OH210505   5.565   3.102   1.411
 3500TIP3    H110506   5.657   3.127   1.422
 3500TIP3    H210507   5.526   3.175   1.363
 3501TIP3   OH210508   4.479   2.252   3.828
 3501TIP3    H110509   4.388   2.256   3.856
 3501TIP3    H210510   4.495   2.160   3.809
 3502TIP3   OH210511   6.105   5.123   3.204
 3502TIP3    H110512   6.068   5.039   3.229
 3502TIP3    H210513   6.199   5.106   3.197
 3503TIP3   OH210514   0.084   5.926   5.002
 3503TIP3    H110515   0.167   5.900   5.042
 3503TIP3    H210516   0.034   5.845   4.996
 3504TIP3   OH210517   3.235   3.173   3.442
 3504TIP3    H110518   3.199   3.113   3.378
 3504TIP3    H210519   3.325   3.143   3.455
 3505TIP3   OH210520   4.919   2.723   0.368
 3505TIP3    H110521   4.975   2.725   0.289
 3505TIP3    H210522   4.958   2.789   0.425
 3506TIP3   OH210523   1.489   0.031   5.222
 3506TIP3    H110524   1.574  -0.007   5.204
 3506TIP3    H210525   1.436   0.011   5.145
 3507TIP3   OH210526   3.062   5.850   4.125
 3507TIP3    H110527   3.017   5.919   4.174
 3507TIP3    H210528   3.106   5.798   4.192
 3508TIP3   OH210529   2.114   4.719   4.808
 3508TIP3    H110530   2.163   4.784   4.858
 3508TIP3    H210531   2.112   4.641   4.864
 3509TIP3   OH210532   0.555   1.300   4.964
 3509TIP3    H110533   0.650   1.294   4.973
 3509TIP3    H210534   0.534   1.241   4.891
 3510TIP3   OH210535   0.851   0.703   3.111
 3510TIP3    H110536   0.806   0.619   3.117
 3510TIP3    H210537   0.937   0.687   3.150
 3511TIP3   OH210538   1.605   2.970   1.452
 3511TIP3    H110539   1.613   3.028   1.529
 3511TIP3    H210540   1.688   2.980   1.406
 3512TIP3   OH210541   4.153   3.762   0.338
 3512TIP3    H110542   4.226   3.700   0.332
 3512TIP3    H210543   4.078   3.714   0.305
 3513TIP3   OH210544   1.097   4.029   2.258
 3513TIP3    H110545   1.047   4.109   2.242
 3513TIP3    H210546   1.169   4.032   2.194
 3514TIP3   OH210547   4.985   0.357   0.214
 3514TIP3    H110548   5.004   0.391   0.301
 3514TIP3    H210549   5.027   0.419   0.154
 3515TIP3   OH210550   1.928   3.852   2.642
 3515TIP3    H110551   1.846   3.802   2.649
 3515TIP3    H210552   1.926   3.887   2.553
 3516TIP3   OH210553   2.889   4.649   4.826
 3516TIP3    H110554   2.983   4.644   4.842
 3516TIP3    H210555   2.873   4.742   4.808
 3517TIP3   OH210556   4.650   4.221   3.870
 3517TIP3    H110557   4.723   4.180   3.823
 3517TIP3    H210558   4.574   4.165   3.849
 3518TIP3   OH210559   1.285   5.803   0.971
 3518TIP3    H110560   1.377   5.776   0.973
 3518TIP3    H210561   1.268   5.821   0.878
 3519TIP3   OH210562   0.497   4.468   2.208
 3519TIP3    H110563   0.571   4.446   2.152
 3519TIP3    H210564   0.536   4.509   2.285
 3520TIP3   OH210565   2.716   3.555   5.188
 3520TIP3    H110566   2.719   3.601   5.104
 3520TIP3    H210567   2.807   3.557   5.219
 3521TIP3   OH210568   3.719   1.341   1.479
 3521TIP3    H110569   3.758   1.409   1.424
 3521TIP3    H210570   3.785   1.272   1.483
 3522TIP3   OH210571   2.305   0.252   2.529
 3522TIP3    H110572   2.299   0.266   2.434
 3522TIP3    H210573   2.320   0.158   2.538
 3523TIP3   OH210574   6.108   1.073   2.719
 3523TIP3    H110575   6.109   1.163   2.685
 3523TIP3    H210576   6.059   1.080   2.801
 3524TIP3   OH210577   4.532   5.131   3.343
 3524TIP3    H110578   4.474   5.114   3.269
 3524TIP3    H210579   4.613   5.085   3.321
 3525TIP3   OH210580   3.120   2.995   2.648
 3525TIP3    H110581   3.111   2.901   2.634
 3525TIP3    H210582   3.198   3.004   2.702
 3526TIP3   OH210583   0.786   2.736   0.330
 3526TIP3    H110584   0.878   2.709   0.332
 3526TIP3    H210585   0.780   2.808   0.394
 3527TIP3   OH210586   3.534   3.316   5.013
 3527TIP3    H110587   3.598   3.245   5.012
 3527TIP3    H210588   3.450   3.272   5.026
 3528TIP3   OH210589   2.969   3.409   2.465
 3528TIP3    H110590   3.048   3.355   2.466
 3528TIP3    H210591   2.924   3.388   2.547
 3529TIP3   OH210592   1.260   5.844   0.709
 3529TIP3    H110593   1.310   5.766   0.683
 3529TIP3    H210594   1.313   5.918   0.678
 3530TIP3   OH210595   3.529   4.231   4.608
 3530TIP3    H110596   3.453   4.173   4.596
 3530TIP3    H210597   3.505   4.288   4.681
 3531TIP3   OH210598   3.571   0.191   0.655
 3531TIP3    H110599   3.574   0.220   0.564
 3531TIP3    H210600   3.659   0.208   0.689
 3532TIP3   OH210601   3.180   2.978   4.717
 3532TIP3    H110602   3.253   2.946   4.770
 3532TIP3    H210603   3.103   2.964   4.772
 3533TIP3   OH210604   2.689   0.946   0.004
 3533TIP3    H110605   2.738   1.020   0.041
 3533TIP3    H210606   2.598   0.976   0.001
 3534TIP3   OH210607   1.108   0.643   5.189
 3534TIP3    H110608   1.081   0.623   5.099
 3534TIP3    H210609   1.040   0.701   5.223
 3535TIP3   OH210610   4.400   2.918   0.550
 3535TIP3    H110611   4.451   2.970   0.613
 3535TIP3    H210612   4.329   2.881   0.602
 3536TIP3   OH210613   1.399   3.337   1.470
 3536TIP3    H110614   1.344   3.376   1.402
 3536TIP3    H210615   1.364   3.248   1.480
 3537TIP3   OH210616   3.178   2.915   5.093
 3537TIP3    H110617   3.086   2.911   5.067
 3537TIP3    H210618   3.199   2.826   5.121
 3538TIP3   OH210619   3.187   2.292   5.165
 3538TIP3    H110620   3.157   2.318   5.078
 3538TIP3    H210621   3.210   2.200   5.155
 3539TIP3   OH210622   0.292   0.350   1.882
 3539TIP3    H110623   0.258   0.262   1.893
 3539TIP3    H210624   0.305   0.383   1.971
 3540TIP3   OH210625   0.454   4.626   0.673
 3540TIP3    H110626   0.543   4.640   0.707
 3540TIP3    H210627   0.464   4.559   0.605
 3541TIP3   OH210628   1.837   1.739   1.254
 3541TIP3    H110629   1.744   1.731   1.275
 3541TIP3    H210630   1.881   1.685   1.320
 3542TIP3   OH210631   2.639   2.947   3.729
 3542TIP3    H110632   2.556   2.989   3.706
 3542TIP3    H210633   2.613   2.867   3.775
 3543TIP3   OH210634   3.212   5.646   3.041
 3543TIP3    H110635   3.174   5.570   2.998
 3543TIP3    H210636   3.143   5.679   3.097
 3544TIP3   OH210637   4.079   2.988   1.104
 3544TIP3    H110638   4.133   2.986   1.025
 3544TIP3    H210639   4.141   2.981   1.176
 3545TIP3   OH210640   2.278   0.128   1.334
 3545TIP3    H110641   2.193   0.085   1.342
 3545TIP3    H210642   2.257   0.219   1.312
 3546TIP3   OH210643   0.189   4.067   3.288
 3546TIP3    H110644   0.164   3.999   3.352
 3546TIP3    H210645   0.105   4.102   3.257
 3547TIP3   OH210646   4.630   5.681   4.552
 3547TIP3    H110647   4.695   5.618   4.581
 3547TIP3    H210648   4.657   5.764   4.593
 3548TIP3   OH210649   2.970   2.849   1.075
 3548TIP3    H110650   2.913   2.917   1.040
 3548TIP3    H210651   2.986   2.790   1.001
 3549TIP3   OH210652   4.076   3.496   1.292
 3549TIP3    H110653   4.023   3.574   1.304
 3549TIP3    H210654   4.076   3.481   1.197
 3550TIP3   OH210655   0.141   4.277   1.373
 3550TIP3    H110656   0.190   4.331   1.435
 3550TIP3    H210657   0.139   4.190   1.413
 3551TIP3   OH210658   5.918   5.392   4.639
 3551TIP3    H110659   5.875   5.382   4.554
 3551TIP3    H210660   6.005   5.354   4.626
 3552TIP3   OH210661   0.975   1.388   1.801
 3552TIP3    H110662   0.891   1.343   1.805
 3552TIP3    H210663   1.032   1.339   1.860
 3553TIP3   OH210664   0.192   2.821   0.693
 3553TIP3    H110665   0.243   2.847   0.770
 3553TIP3    H210666   0.251   2.832   0.619
 3554TIP3   OH210667   3.795   3.254   4.593
 3554TIP3    H110668   3.816   3.207   4.674
 3554TIP3    H210669   3.737   3.195   4.545
 3555TIP3   OH210670   3.726   0.340   5.113
 3555TIP3    H110671   3.636   0.369   5.128
 3555TIP3    H210672   3.779   0.419   5.124
 3556TIP3   OH210673   0.045   0.574   2.521
 3556TIP3    H110674   0.027   0.659   2.481
 3556TIP3    H210675   0.035   0.511   2.449
 3557TIP3   OH210676   1.245   4.691   3.722
 3557TIP3    H110677   1.281   4.686   3.810
 3557TIP3    H210678   1.321   4.705   3.666
 3558TIP3   OH210679   0.496   4.257   1.526
 3558TIP3    H110680   0.547   4.247   1.606
 3558TIP3    H210681   0.419   4.308   1.552
 3559TIP3   OH210682   6.262   5.114   4.642
 3559TIP3    H110683   6.215   5.044   4.597
 3559TIP3    H210684   6.206   5.191   4.632
 3560TIP3   OH210685   3.324   0.288   4.983
 3560TIP3    H110686   3.285   0.204   5.007
 3560TIP3    H210687   3.249   0.347   4.973
 3561TIP3   OH210688   4.881   0.783   5.013
 3561TIP3    H110689   4.811   0.832   5.056
 3561TIP3    H210690   4.956   0.791   5.072
 3562TIP3   OH210691   4.619   2.934   2.432
 3562TIP3    H110692   4.709   2.908   2.415
 3562TIP3    H210693   4.568   2.888   2.365
 3563TIP3   OH210694   2.103   1.956   1.845
 3563TIP3    H110695   2.173   1.898   1.813
 3563TIP3    H210696   2.056   1.904   1.910
 3564TIP3   OH210697   3.935   1.192   1.578
 3564TIP3    H110698   3.968   1.268   1.529
 3564TIP3    H210699   4.013   1.153   1.618
 3565TIP3   OH210700   5.738   5.503   3.448
 3565TIP3    H110701   5.737   5.438   3.519
 3565TIP3    H210702   5.729   5.452   3.368
 3566TIP3   OH210703   4.553   3.431   1.799
 3566TIP3    H110704   4.514   3.398   1.880
 3566TIP3    H210705   4.510   3.515   1.785
 3567TIP3   OH210706   0.847   5.668   0.769
 3567TIP3    H110707   0.848   5.626   0.855
 3567TIP3    H210708   0.767   5.720   0.769
 3568TIP3   OH210709   0.593   5.905   5.221
 3568TIP3    H110710   0.630   5.861   5.144
 3568TIP3    H210711   0.570   5.833   5.281
 3569TIP3   OH210712   5.786   3.015   1.187
 3569TIP3    H110713   5.804   2.937   1.135
 3569TIP3    H210714   5.712   3.057   1.143
 3570TIP3   OH210715   4.630   3.266   0.537
 3570TIP3    H110716   4.725   3.267   0.541
 3570TIP3    H210717   4.603   3.212   0.611
 3571TIP3   OH210718   0.672   2.523   3.352
 3571TIP3    H110719   0.698   2.593   3.292
 3571TIP3    H210720   0.601   2.479   3.307
 3572TIP3   OH210721   2.995   4.908   4.720
 3572TIP3    H110722   3.061   4.974   4.738
 3572TIP3    H210723   2.925   4.927   4.782
 3573TIP3   OH210724   5.805   1.872   4.946
 3573TIP3    H110725   5.863   1.881   5.021
 3573TIP3    H210726   5.757   1.954   4.943
 3574TIP3   OH210727   4.647   0.231   0.122
 3574TIP3    H110728   4.596   0.154   0.097
 3574TIP3    H210729   4.591   0.305   0.100
 3575TIP3   OH210730   3.978   4.169   0.093
 3575TIP3    H110731   3.947   4.115   0.020
 3575TIP3    H210732   4.054   4.215   0.058
 3576TIP3   OH210733   1.876   1.952   0.144
 3576TIP3    H110734   1.793   1.905   0.149
 3576TIP3    H210735   1.925   1.908   0.075
 3577TIP3   OH210736   0.888   1.178   2.076
 3577TIP3    H110737   0.831   1.123   2.022
 3577TIP3    H210738   0.976   1.164   2.041
 3578TIP3   OH210739   0.189   2.309   3.209
 3578TIP3    H110740   0.231   2.314   3.123
 3578TIP3    H210741   0.177   2.215   3.224
 3579TIP3   OH210742   1.790   1.082   4.410
 3579TIP3    H110743   1.766   1.031   4.487
 3579TIP3    H210744   1.818   1.167   4.446
 3580TIP3   OH210745   5.509   0.042   4.913
 3580TIP3    H110746   5.472  -0.029   4.965
 3580TIP3    H210747   5.455   0.047   4.835
 3581TIP3   OH210748   0.442   5.363   2.120
 3581TIP3    H110749   0.449   5.269   2.101
 3581TIP3    H210750   0.351   5.375   2.147
 3582TIP3   OH210751   4.615   4.695   2.018
 3582TIP3    H110752   4.550   4.676   2.086
 3582TIP3    H210753   4.565   4.695   1.936
 3583TIP3   OH210754   3.044   1.555   2.632
 3583TIP3    H110755   2.994   1.596   2.561
 3583TIP3    H210756   3.055   1.625   2.697
 3584TIP3   OH210757   3.185   4.247   2.847
 3584TIP3    H110758   3.249   4.191   2.802
 3584TIP3    H210759   3.124   4.274   2.778
 3585TIP3   OH210760   0.991   1.669   1.756
 3585TIP3    H110761   0.976   1.575   1.766
 3585TIP3    H210762   0.913   1.710   1.793
 3586TIP3   OH210763   5.175   1.156   1.915
 3586TIP3    H110764   5.164   1.086   1.852
 3586TIP3    H210765   5.234   1.121   1.981
 3587TIP3   OH210766   2.662   4.035   2.289
 3587TIP3    H110767   2.577   3.992   2.304
 3587TIP3    H210768   2.684   4.071   2.375
 3588TIP3   OH210769   1.865   3.552   0.352
 3588TIP3    H110770   1.937   3.584   0.298
 3588TIP3    H210771   1.847   3.464   0.320
 3589TIP3   OH210772   5.739   4.268   1.005
 3589TIP3    H110773   5.646   4.246   0.997
 3589TIP3    H210774   5.748   4.309   1.091
 3590TIP3   OH210775   2.586   5.111   5.008
 3590TIP3    H110776   2.611   5.203   4.999
 3590TIP3    H210777   2.548   5.105   5.095
 3591TIP3   OH210778   2.071   5.760   0.628
 3591TIP3    H110779   2.128   5.704   0.681
 3591TIP3    H210780   1.997   5.704   0.606
 3592TIP3   OH210781   2.469   3.755   4.004
 3592TIP3    H110782   2.503   3.667   4.016
 3592TIP3    H210783   2.376   3.743   3.985
 3593TIP3   OH210784   2.209   5.243   2.709
 3593TIP3    H110785   2.215   5.270   2.801
 3593TIP3    H210786   2.182   5.322   2.662
 3594TIP3   OH210787   3.183   4.790   2.190
 3594TIP3    H110788   3.261   4.759   2.236
 3594TIP3    H210789   3.193   4.885   2.188
 3595TIP3   OH210790   3.228   5.738   0.982
 3595TIP3    H110791   3.290   5.685   1.034
 3595TIP3    H210792   3.172   5.674   0.939
 3596TIP3   OH210793   5.496   3.600   3.593
 3596TIP3    H110794   5.473   3.667   3.529
 3596TIP3    H210795   5.485   3.644   3.678
 3597TIP3   OH210796   2.549   2.944   0.867
 3597TIP3    H110797   2.598   3.021   0.838
 3597TIP3    H210798   2.534   2.960   0.961
 3598TIP3   OH210799   4.125   1.859   1.543
 3598TIP3    H110800   4.121   1.801   1.619
 3598TIP3    H210801   4.179   1.812   1.479
 3599TIP3   OH210802   2.254   4.945   2.993
 3599TIP3    H110803   2.200   4.866   3.004
 3599TIP3    H210804   2.190   5.015   2.977
 3600TIP3   OH210805   5.869   1.798   2.781
 3600TIP3    H110806   5.896   1.800   2.689
 3600TIP3    H210807   5.945   1.831   2.829
 3601TIP3   OH210808   5.238   3.189   3.783
 3601TIP3    H110809   5.181   3.185   3.706
 3601TIP3    H210810   5.178   3.208   3.856
 3602TIP3   OH210811   4.552   2.561   3.303
 3602TIP3    H110812   4.522   2.613   3.229
 3602TIP3    H210813   4.563   2.624   3.374
 3603TIP3   OH210814   5.038   5.754   1.952
 3603TIP3    H110815   4.994   5.785   2.031
 3603TIP3    H210816   4.994   5.800   1.880
 3604TIP3   OH210817   0.264   0.312   3.510
 3604TIP3    H110818   0.205   0.388   3.512
 3604TIP3    H210819   0.207   0.237   3.525
 3605TIP3   OH210820   6.175   2.275   0.232
 3605TIP3    H110821   6.097   2.313   0.193
 3605TIP3    H210822   6.159   2.277   0.327
 3606TIP3   OH210823   1.356   5.407   2.786
 3606TIP3    H110824   1.397   5.321   2.774
 3606TIP3    H210825   1.302   5.397   2.864
 3607TIP3   OH210826   3.315   4.082   4.215
 3607TIP3    H110827   3.370   4.160   4.219
 3607TIP3    H210828   3.330   4.037   4.298
 3608TIP3   OH210829   1.689   3.650   4.239
 3608TIP3    H110830   1.655   3.590   4.172
 3608TIP3    H210831   1.637   3.730   4.227
 3609TIP3   OH210832   5.760   5.705   3.684
 3609TIP3    H110833   5.744   5.677   3.594
 3609TIP3    H210834   5.844   5.665   3.707
 3610TIP3   OH210835   2.749   1.364   1.227
 3610TIP3    H110836   2.690   1.433   1.255
 3610TIP3    H210837   2.692   1.292   1.201
 3611TIP3   OH210838   3.781   2.519   4.765
 3611TIP3    H110839   3.822   2.436   4.787
 3611TIP3    H210840   3.711   2.496   4.704
 3612TIP3   OH210841   5.451   2.944   2.996
 3612TIP3    H110842   5.365   2.902   3.003
 3612TIP3    H210843   5.490   2.932   3.082
 3613TIP3   OH210844   3.796   4.751   2.727
 3613TIP3    H110845   3.773   4.843   2.720
 3613TIP3    H210846   3.723   4.711   2.774
 3614TIP3   OH210847   3.279   4.040   0.911
 3614TIP3    H110848   3.336   4.054   0.987
 3614TIP3    H210849   3.334   4.060   0.835
 3615TIP3   OH210850   3.463   5.940   2.468
 3615TIP3    H110851   3.369   5.959   2.462
 3615TIP3    H210852   3.481   5.881   2.395
 3616TIP3   OH210853   1.838   5.236   4.510
 3616TIP3    H110854   1.922   5.197   4.534
 3616TIP3    H210855   1.817   5.295   4.583
 3617TIP3   OH210856   1.003   0.979   0.487
 3617TIP3    H110857   1.045   1.058   0.453
 3617TIP3    H210858   0.988   0.998   0.580
 3618TIP3   OH210859   2.214   3.949   2.619
 3618TIP3    H110860   2.225   3.942   2.714
 3618TIP3    H210861   2.120   3.938   2.604
 3619TIP3   OH210862   0.210   0.725   4.337
 3619TIP3    H110863   0.287   0.669   4.329
 3619TIP3    H210864   0.212   0.778   4.257
 3620TIP3   OH210865   2.395   5.463   0.072
 3620TIP3    H110866   2.436   5.531   0.019
 3620TIP3    H210867   2.393   5.499   0.160
 3621TIP3   OH210868   2.436   0.353   3.343
 3621TIP3    H110869   2.351   0.371   3.384
 3621TIP3    H210870   2.476   0.285   3.398
 3622TIP3   OH210871   1.084   0.323   0.468
 3622TIP3    H110872   1.089   0.360   0.556
 3622TIP3    H210873   1.164   0.354   0.424
 3623TIP3   OH210874   1.769   5.326   0.713
 3623TIP3    H110875   1.852   5.332   0.761
 3623TIP3    H210876   1.789   5.273   0.637
 3624TIP3   OH210877   5.099   2.509   0.487
 3624TIP3    H110878   5.092   2.603   0.501
 3624TIP3    H210879   5.011   2.475   0.504
 3625TIP3   OH210880   1.705   4.793   1.004
 3625TIP3    H110881   1.674   4.728   1.067
 3625TIP3    H210882   1.648   4.782   0.928
 3626TIP3   OH210883   6.040   2.533   4.400
 3626TIP3    H110884   5.951   2.506   4.381
 3626TIP3    H210885   6.037   2.566   4.490
 3627TIP3   OH210886   4.379   0.177   0.372
 3627TIP3    H110887   4.332   0.120   0.432
 3627TIP3    H210888   4.327   0.257   0.368
 3628TIP3   OH210889   0.322   1.335   2.869
 3628TIP3    H110890   0.412   1.367   2.874
 3628TIP3    H210891   0.276   1.403   2.819
 3629TIP3   OH210892   1.394   4.353   1.316
 3629TIP3    H110893   1.424   4.403   1.240
 3629TIP3    H210894   1.300   4.340   1.302
 3630TIP3   OH210895   3.035   5.311   0.151
 3630TIP3    H110896   3.055   5.239   0.211
 3630TIP3    H210897   3.119   5.331   0.109
 3631TIP3   OH210898   1.051   2.077   0.214
 3631TIP3    H110899   1.099   2.158   0.195
 3631TIP3    H210900   1.084   2.049   0.299
 3632TIP3   OH210901   5.553   2.052   5.125
 3632TIP3    H110902   5.565   2.084   5.036
 3632TIP3    H210903   5.641   2.056   5.164
 3633TIP3   OH210904   1.920   3.422   2.280
 3633TIP3    H110905   1.857   3.478   2.326
 3633TIP3    H210906   2.005   3.457   2.305
 3634TIP3   OH210907   1.022   0.064   0.450
 3634TIP3    H110908   0.961   0.060   0.377
 3634TIP3    H210909   1.050   0.156   0.454
 3635TIP3   OH210910   4.471   4.858   1.647
 3635TIP3    H110911   4.389   4.906   1.663
 3635TIP3    H210912   4.465   4.781   1.703
 3636TIP3   OH210913   1.103   4.431   4.232
 3636TIP3    H110914   1.146   4.360   4.184
 3636TIP3    H210915   1.023   4.392   4.268
 3637TIP3   OH210916   5.721   2.987   4.659
 3637TIP3    H110917   5.771   2.957   4.735
 3637TIP3    H210918   5.786   2.994   4.589
 3638TIP3   OH210919   3.328   3.234   4.153
 3638TIP3    H110920   3.289   3.304   4.100
 3638TIP3    H210921   3.346   3.164   4.091
 3639TIP3   OH210922   0.294   3.994   4.144
 3639TIP3    H110923   0.284   3.899   4.136
 3639TIP3    H210924   0.205   4.026   4.161
 3640TIP3   OH210925   3.546   0.774   1.320
 3640TIP3    H110926   3.640   0.757   1.308
 3640TIP3    H210927   3.503   0.704   1.272
 3641TIP3   OH210928   1.172   1.804   0.164
 3641TIP3    H110929   1.095   1.755   0.192
 3641TIP3    H210930   1.151   1.895   0.182
 3642TIP3   OH210931   1.430   4.118   2.724
 3642TIP3    H110932   1.400   4.209   2.722
 3642TIP3    H210933   1.448   4.097   2.632
 3643TIP3   OH210934   2.458   5.118   3.296
 3643TIP3    H110935   2.471   5.037   3.246
 3643TIP3    H210936   2.490   5.097   3.384
 3644TIP3   OH210937   0.854   2.415   3.764
 3644TIP3    H110938   0.760   2.417   3.781
 3644TIP3    H210939   0.876   2.322   3.763
 3645TIP3   OH210940   3.597   4.805   4.098
 3645TIP3    H110941   3.596   4.743   4.025
 3645TIP3    H210942   3.556   4.757   4.170
 3646TIP3   OH210943   5.178   0.194   0.545
 3646TIP3    H110944   5.244   0.249   0.587
 3646TIP3    H210945   5.141   0.142   0.616
 3647TIP3   OH210946   0.280   1.046   5.004
 3647TIP3    H110947   0.328   1.056   5.086
 3647TIP3    H210948   0.347   1.043   4.936
 3648TIP3   OH210949   0.192   4.728   1.748
 3648TIP3    H110950   0.216   4.810   1.704
 3648TIP3    H210951   0.253   4.663   1.714
 3649TIP3   OH210952   0.663   0.853   3.222
 3649TIP3    H110953   0.745   0.816   3.188
 3649TIP3    H210954   0.594   0.809   3.173
 3650TIP3   OH210955   5.516   0.587   3.856
 3650TIP3    H110956   5.444   0.578   3.793
 3650TIP3    H210957   5.536   0.497   3.882
 3651TIP3   OH210958   1.538   0.785   4.776
 3651TIP3    H110959   1.498   0.791   4.689
 3651TIP3    H210960   1.627   0.756   4.760
 3652TIP3   OH210961   1.262   3.703   2.926
 3652TIP3    H110962   1.315   3.782   2.941
 3652TIP3    H210963   1.204   3.727   2.854
 3653TIP3   OH210964   2.844   2.832   0.528
 3653TIP3    H110965   2.908   2.767   0.501
 3653TIP3    H210966   2.789   2.847   0.451
 3654TIP3   OH210967   4.160   4.858   0.524
 3654TIP3    H110968   4.224   4.812   0.471
 3654TIP3    H210969   4.097   4.893   0.461
 3655TIP3   OH210970   4.252   3.974   1.937
 3655TIP3    H110971   4.196   4.045   1.968
 3655TIP3    H210972   4.257   3.988   1.842
 3656TIP3   OH210973   0.779   5.960   3.837
 3656TIP3    H110974   0.749   5.937   3.925
 3656TIP3    H210975   0.827   6.042   3.849
 3657TIP3   OH210976   3.382   3.333   0.406
 3657TIP3    H110977   3.405   3.256   0.353
 3657TIP3    H210978   3.347   3.396   0.343
 3658TIP3   OH210979   5.814   3.550   4.532
 3658TIP3    H110980   5.802   3.455   4.524
 3658TIP3    H210981   5.881   3.560   4.598
 3659TIP3   OH210982   3.595   3.440   4.659
 3659TIP3    H110983   3.672   3.384   4.670
 3659TIP3    H210984   3.586   3.448   4.564
 3660TIP3   OH210985   2.377   2.382   2.883
 3660TIP3    H110986   2.341   2.443   2.819
 3660TIP3    H210987   2.310   2.377   2.952
 3661TIP3   OH210988   4.029   3.104   3.852
 3661TIP3    H110989   4.040   3.015   3.886
 3661TIP3    H210990   4.104   3.116   3.793
 3662TIP3   OH210991   1.262   1.880   3.323
 3662TIP3    H110992   1.181   1.863   3.275
 3662TIP3    H210993   1.290   1.794   3.353
 3663TIP3   OH210994   3.071   4.463   1.334
 3663TIP3    H110995   3.028   4.439   1.252
 3663TIP3    H210996   3.107   4.550   1.318
 3664TIP3   OH210997   4.519   3.476   0.733
 3664TIP3    H110998   4.530   3.534   0.658
 3664TIP3    H210999   4.474   3.399   0.697
 3665TIP3   OH211000   4.428   2.814   2.606
 3665TIP3    H111001   4.493   2.858   2.551
 3665TIP3    H211002   4.466   2.729   2.626
 3666TIP3   OH211003   1.425   1.600   0.502
 3666TIP3    H111004   1.474   1.585   0.421
 3666TIP3    H211005   1.336   1.569   0.483
 3667TIP3   OH211006   1.615   2.158   3.449
 3667TIP3    H111007   1.524   2.133   3.466
 3667TIP3    H211008   1.630   2.235   3.504
 3668TIP3   OH211009   4.232   0.950   4.448
 3668TIP3    H111010   4.140   0.962   4.424
 3668TIP3    H211011   4.235   0.970   4.542
 3669TIP3   OH211012   6.314   4.176   1.987
 3669TIP3    H111013   6.253   4.114   2.027
 3669TIP3    H211014   6.261   4.225   1.924
 3670TIP3   OH211015   3.239   5.139   1.288
 3670TIP3    H111016   3.222   5.131   1.381
 3670TIP3    H211017   3.152   5.142   1.247
 3671TIP3   OH211018   5.663   5.525   0.461
 3671TIP3    H111019   5.752   5.552   0.486
 3671TIP3    H211020   5.661   5.537   0.366
 3672TIP3   OH211021   2.991   3.718   4.770
 3672TIP3    H111022   2.970   3.689   4.858
 3672TIP3    H211023   3.031   3.641   4.728
 3673TIP3   OH211024   0.481   4.839   3.821
 3673TIP3    H111025   0.475   4.752   3.783
 3673TIP3    H211026   0.562   4.876   3.786
 3674TIP3   OH211027   4.660   1.493   0.629
 3674TIP3    H111028   4.648   1.432   0.701
 3674TIP3    H211029   4.691   1.439   0.556
 3675TIP3   OH211030   6.048   2.270   3.414
 3675TIP3    H111031   6.118   2.248   3.352
 3675TIP3    H211032   6.093   2.306   3.490
 3676TIP3   OH211033   1.517   0.494   3.643
 3676TIP3    H111034   1.505   0.564   3.579
 3676TIP3    H211035   1.495   0.534   3.727
 3677TIP3   OH211036   4.517   2.360   5.005
 3677TIP3    H111037   4.552   2.306   5.076
 3677TIP3    H211038   4.422   2.353   5.013
 3678TIP3   OH211039   2.012   4.490   4.643
 3678TIP3    H111040   1.958   4.489   4.564
 3678TIP3    H211041   1.952   4.520   4.712
 3679TIP3   OH211042   0.533   3.958   1.837
 3679TIP3    H111043   0.440   3.942   1.855
 3679TIP3    H211044   0.579   3.911   1.906
 3680TIP3   OH211045   4.573   0.011   4.352
 3680TIP3    H111046   4.505   0.055   4.403
 3680TIP3    H211047   4.594   0.072   4.281
 3681TIP3   OH211048   1.183   0.272   2.092
 3681TIP3    H111049   1.227   0.350   2.056
 3681TIP3    H211050   1.200   0.277   2.186
 3682TIP3   OH211051   3.176   2.444   1.808
 3682TIP3    H111052   3.261   2.459   1.766
 3682TIP3    H211053   3.119   2.511   1.772
 3683TIP3   OH211054   2.640   0.793   3.384
 3683TIP3    H111055   2.556   0.759   3.354
 3683TIP3    H211056   2.649   0.878   3.340
 3684TIP3   OH211057   5.791   2.423   3.397
 3684TIP3    H111058   5.862   2.423   3.334
 3684TIP3    H211059   5.832   2.450   3.479
 3685TIP3   OH211060   0.382   4.677   4.064
 3685TIP3    H111061   0.306   4.708   4.115
 3685TIP3    H211062   0.416   4.756   4.022
 3686TIP3   OH211063   5.916   5.675   4.364
 3686TIP3    H111064   6.011   5.672   4.355
 3686TIP3    H211065   5.893   5.767   4.354
 3687TIP3   OH211066   3.200   5.540   1.906
 3687TIP3    H111067   3.129   5.494   1.951
 3687TIP3    H211068   3.208   5.624   1.951
 3688TIP3   OH211069   2.279   4.136   1.365
 3688TIP3    H111070   2.245   4.115   1.278
 3688TIP3    H211071   2.322   4.056   1.394
 3689TIP3   OH211072   3.852   5.403   4.978
 3689TIP3    H111073   3.937   5.409   4.936
 3689TIP3    H211074   3.868   5.351   5.057
 3690TIP3   OH211075   4.516   1.243   4.479
 3690TIP3    H111076   4.439   1.297   4.494
 3690TIP3    H211077   4.503   1.204   4.393
 3691TIP3   OH211078   4.870   0.695   0.606
 3691TIP3    H111079   4.885   0.720   0.697
 3691TIP3    H211080   4.812   0.619   0.612
 3692TIP3   OH211081   0.367   1.456   4.805
 3692TIP3    H111082   0.411   1.478   4.723
 3692TIP3    H211083   0.435   1.412   4.857
 3693TIP3   OH211084   3.919   4.579   5.079
 3693TIP3    H111085   3.854   4.558   5.013
 3693TIP3    H211086   3.873   4.635   5.142
 3694TIP3   OH211087   0.886   3.280   3.724
 3694TIP3    H111088   0.955   3.285   3.657
 3694TIP3    H211089   0.933   3.260   3.805
 3695TIP3   OH211090   2.501   1.969   5.088
 3695TIP3    H111091   2.555   1.939   5.161
 3695TIP3    H211092   2.560   2.024   5.037
 3696TIP3   OH211093   4.787   1.562   3.300
 3696TIP3    H111094   4.854   1.630   3.302
 3696TIP3    H211095   4.799   1.514   3.382
 3697TIP3   OH211096   0.441   3.089   3.416
 3697TIP3    H111097   0.399   3.175   3.412
 3697TIP3    H211098   0.531   3.107   3.443
 3698TIP3   OH211099   4.164   0.632   2.414
 3698TIP3    H111100   4.253   0.611   2.384
 3698TIP3    H211101   4.177   0.689   2.489
 3699TIP3   OH211102   1.616   5.001   0.764
 3699TIP3    H111103   1.699   5.043   0.786
 3699TIP3    H211104   1.638   4.908   0.755
 3700TIP3   OH211105   1.120   1.105   0.053
 3700TIP3    H111106   1.199   1.051   0.064
 3700TIP3    H211107   1.143   1.189   0.092
 3701TIP3   OH211108   3.390   5.716   0.402
 3701TIP3    H111109   3.424   5.706   0.313
 3701TIP3    H211110   3.405   5.631   0.443
 3702TIP3   OH211111   2.884   2.932   3.620
 3702TIP3    H111112   2.931   3.014   3.608
 3702TIP3    H211113   2.805   2.956   3.668
 3703TIP3   OH211114   4.570   5.804   2.166
 3703TIP3    H111115   4.508   5.770   2.102
 3703TIP3    H211116   4.571   5.738   2.236
 3704TIP3   OH211117   1.795   1.990   5.093
 3704TIP3    H111118   1.829   1.960   5.008
 3704TIP3    H211119   1.701   1.971   5.088
 3705TIP3   OH211120   1.938   2.408   3.178
 3705TIP3    H111121   1.921   2.412   3.272
 3705TIP3    H211122   1.891   2.483   3.142
 3706TIP3   OH211123   5.156   4.329   2.408
 3706TIP3    H111124   5.194   4.353   2.323
 3706TIP3    H211125   5.147   4.412   2.454
 3707TIP3   OH211126   2.031   1.391   3.245
 3707TIP3    H111127   2.082   1.409   3.325
 3707TIP3    H211128   1.977   1.469   3.234
 3708TIP3   OH211129   4.649   5.021   2.982
 3708TIP3    H111130   4.570   5.040   3.033
 3708TIP3    H211131   4.624   4.948   2.926
 3709TIP3   OH211132   1.796  -0.006   2.186
 3709TIP3    H111133   1.784  -0.089   2.232
 3709TIP3    H211134   1.803   0.060   2.255
 3710TIP3   OH211135   2.867   0.832   1.130
 3710TIP3    H111136   2.815   0.762   1.169
 3710TIP3    H211137   2.811   0.870   1.062
 3711TIP3   OH211138   6.040   5.003   4.252
 3711TIP3    H111139   5.949   4.974   4.240
 3711TIP3    H211140   6.046   5.084   4.201
 3712TIP3   OH211141   0.205   2.656   4.288
 3712TIP3    H111142   0.132   2.710   4.259
 3712TIP3    H211143   0.166   2.589   4.344
 3713TIP3   OH211144   5.963   1.940   2.185
 3713TIP3    H111145   5.941   1.906   2.098
 3713TIP3    H211146   6.032   1.883   2.217
 3714TIP3   OH211147   5.274   4.483   2.224
 3714TIP3    H111148   5.295   4.393   2.199
 3714TIP3    H211149   5.304   4.536   2.150
 3715TIP3   OH211150   6.129   5.297   3.789
 3715TIP3    H111151   6.207   5.343   3.820
 3715TIP3    H211152   6.158   5.250   3.711
 3716TIP3   OH211153   4.654   6.013   4.004
 3716TIP3    H111154   4.612   5.928   3.994
 3716TIP3    H211155   4.723   5.998   4.069
 3717TIP3   OH211156   5.046   3.303   3.959
 3717TIP3    H111157   5.034   3.344   4.044
 3717TIP3    H211158   5.003   3.362   3.897
 3718TIP3   OH211159   4.373   2.789   2.868
 3718TIP3    H111160   4.401   2.816   2.780
 3718TIP3    H211161   4.290   2.742   2.853
 3719TIP3   OH211162   6.094   5.917   0.657
 3719TIP3    H111163   6.034   5.849   0.689
 3719TIP3    H211164   6.108   5.895   0.565
 3720TIP3   OH211165   3.083   5.286   3.685
 3720TIP3    H111166   3.150   5.290   3.754
 3720TIP3    H211167   3.103   5.206   3.637
 3721TIP3   OH211168   5.616   5.510   1.203
 3721TIP3    H111169   5.683   5.579   1.205
 3721TIP3    H211170   5.533   5.557   1.200
 3722TIP3   OH211171   2.861   3.704   3.194
 3722TIP3    H111172   2.825   3.638   3.136
 3722TIP3    H211173   2.904   3.654   3.264
 3723TIP3   OH211174   0.155   1.230   3.863
 3723TIP3    H111175   0.250   1.225   3.859
 3723TIP3    H211176   0.126   1.177   3.788
 3724TIP3   OH211177   6.122   0.420   2.652
 3724TIP3    H111178   6.035   0.417   2.692
 3724TIP3    H211179   6.159   0.503   2.682
 3725TIP3   OH211180   2.869   5.710   3.868
 3725TIP3    H111181   2.910   5.786   3.910
 3725TIP3    H211182   2.925   5.636   3.891
 3726TIP3   OH211183   3.410   3.363   3.728
 3726TIP3    H111184   3.329   3.408   3.705
 3726TIP3    H211185   3.476   3.433   3.733
 3727TIP3   OH211186   0.805   0.543   4.727
 3727TIP3    H111187   0.817   0.453   4.696
 3727TIP3    H211188   0.710   0.553   4.734
 3728TIP3   OH211189   0.350   4.277   3.355
 3728TIP3    H111190   0.314   4.335   3.288
 3728TIP3    H211191   0.292   4.201   3.353
 3729TIP3   OH211192   0.933   0.714   3.697
 3729TIP3    H111193   0.979   0.648   3.645
 3729TIP3    H211194   0.848   0.674   3.716
 3730TIP3   OH211195   2.279   5.138   3.557
 3730TIP3    H111196   2.196   5.152   3.601
 3730TIP3    H211197   2.290   5.216   3.502
 3731TIP3   OH211198   3.633   2.910   3.048
 3731TIP3    H111199   3.542   2.884   3.060
 3731TIP3    H211200   3.630   2.986   2.990
 3732TIP3   OH211201   0.348   1.888   1.868
 3732TIP3    H111202   0.298   1.822   1.819
 3732TIP3    H211203   0.321   1.874   1.959
 3733TIP3   OH211204  -0.028   5.368   4.146
 3733TIP3    H111205   0.000   5.458   4.127
 3733TIP3    H211206  -0.026   5.324   4.061
 3734TIP3   OH211207   6.003   5.353   3.126
 3734TIP3    H111208   6.047   5.272   3.152
 3734TIP3    H211209   5.913   5.342   3.159
 3735TIP3   OH211210   5.805   0.289   1.279
 3735TIP3    H111211   5.732   0.233   1.253
 3735TIP3    H211212   5.861   0.232   1.331
 3736TIP3   OH211213   5.589   1.453   3.024
 3736TIP3    H111214   5.672   1.482   3.060
 3736TIP3    H211215   5.568   1.517   2.956
 3737TIP3   OH211216   2.975   5.142   1.114
 3737TIP3    H111217   3.001   5.050   1.107
 3737TIP3    H211218   2.881   5.142   1.095
 3738TIP3   OH211219   5.075   4.107   3.415
 3738TIP3    H111220   5.063   4.012   3.410
 3738TIP3    H211221   5.154   4.123   3.364
 3739TIP3   OH211222   2.461   0.208   1.527
 3739TIP3    H111223   2.490   0.300   1.528
 3739TIP3    H211224   2.391   0.206   1.461
 3740TIP3   OH211225   2.363   2.362   3.303
 3740TIP3    H111226   2.313   2.357   3.222
 3740TIP3    H211227   2.314   2.310   3.366
 3741TIP3   OH211228   3.911   2.762   1.067
 3741TIP3    H111229   3.990   2.709   1.066
 3741TIP3    H211230   3.941   2.850   1.091
 3742TIP3   OH211231   4.619   1.372   3.483
 3742TIP3    H111232   4.545   1.372   3.422
 3742TIP3    H211233   4.642   1.280   3.491
 3743TIP3   OH211234   2.603   5.233   4.219
 3743TIP3    H111235   2.571   5.165   4.160
 3743TIP3    H211236   2.673   5.277   4.170
 3744TIP3   OH211237   1.532   4.718   2.589
 3744TIP3    H111238   1.508   4.628   2.567
 3744TIP3    H211239   1.550   4.759   2.504
 3745TIP3   OH211240   1.067   0.519   3.546
 3745TIP3    H111241   1.114   0.546   3.467
 3745TIP3    H211242   1.020   0.441   3.520
 3746TIP3   OH211243   1.493   3.526   1.041
 3746TIP3    H111244   1.483   3.493   0.952
 3746TIP3    H211245   1.563   3.474   1.079
 3747TIP3   OH211246   6.300   4.918   2.892
 3747TIP3    H111247   6.233   4.871   2.942
 3747TIP3    H211248   6.300   4.876   2.806
 3748TIP3   OH211249   1.435   4.491   1.069
 3748TIP3    H111250   1.511   4.544   1.045
 3748TIP3    H211251   1.447   4.409   1.020
 3749TIP3   OH211252   0.103   5.171   2.106
 3749TIP3    H111253   0.046   5.192   2.180
 3749TIP3    H211254   0.116   5.254   2.061
 3750TIP3   OH211255   1.959   0.156   1.647
 3750TIP3    H111256   1.936   0.236   1.601
 3750TIP3    H211257   1.900   0.152   1.722
 3751TIP3   OH211258   5.853   2.675   0.021
 3751TIP3    H111259   5.813   2.701  -0.062
 3751TIP3    H211260   5.942   2.710   0.017
 3752TIP3   OH211261   6.221   1.823   2.273
 3752TIP3    H111262   6.225   1.784   2.186
 3752TIP3    H211263   6.313   1.841   2.296
 3753TIP3   OH211264   3.789   3.739   4.771
 3753TIP3    H111265   3.775   3.758   4.679
 3753TIP3    H211266   3.856   3.801   4.799
 3754TIP3   OH211267   1.658   5.629   2.938
 3754TIP3    H111268   1.641   5.611   3.030
 3754TIP3    H211269   1.575   5.664   2.905
 3755TIP3   OH211270   5.555   5.966   0.881
 3755TIP3    H111271   5.615   5.898   0.912
 3755TIP3    H211272   5.514   5.927   0.803
 3756TIP3   OH211273   3.780   0.691   1.228
 3756TIP3    H111274   3.866   0.730   1.217
 3756TIP3    H211275   3.754   0.665   1.139
 3757TIP3   OH211276   5.302   5.737   0.199
 3757TIP3    H111277   5.252   5.802   0.149
 3757TIP3    H211278   5.336   5.677   0.133
 3758TIP3   OH211279   3.614   4.461   2.585
 3758TIP3    H111280   3.600   4.552   2.561
 3758TIP3    H211281   3.532   4.417   2.560
 3759TIP3   OH211282   4.913   2.922   2.367
 3759TIP3    H111283   4.936   2.940   2.458
 3759TIP3    H211284   4.991   2.884   2.329
 3760TIP3   OH211285   5.434   1.018   0.937
 3760TIP3    H111286   5.397   1.095   0.981
 3760TIP3    H211287   5.512   0.996   0.986
 3761TIP3   OH211288   3.237   0.387   1.018
 3761TIP3    H111289   3.164   0.367   0.961
 3761TIP3    H211290   3.314   0.382   0.962
 3762TIP3   OH211291   6.342   3.024   3.960
 3762TIP3    H111292   6.360   3.074   4.039
 3762TIP3    H211293   6.255   3.054   3.932
 3763TIP3   OH211294   3.021   5.779   1.908
 3763TIP3    H111295   3.041   5.718   1.837
 3763TIP3    H211296   2.989   5.857   1.864
 3764TIP3   OH211297   0.207   1.859   2.946
 3764TIP3    H111298   0.294   1.897   2.957
 3764TIP3    H211299   0.180   1.834   3.034
 3765TIP3   OH211300   3.952   2.466   4.424
 3765TIP3    H111301   4.021   2.464   4.358
 3765TIP3    H211302   3.955   2.380   4.465
 3766TIP3   OH211303   1.913   5.816   1.677
 3766TIP3    H111304   1.845   5.760   1.639
 3766TIP3    H211305   1.972   5.754   1.720
 3767TIP3   OH211306   0.159   0.502   1.269
 3767TIP3    H111307   0.194   0.582   1.228
 3767TIP3    H211308   0.071   0.493   1.232
 3768TIP3   OH211309   1.224   3.922   1.993
 3768TIP3    H111310   1.300   3.973   1.967
 3768TIP3    H211311   1.259   3.854   2.051
 3769TIP3   OH211312   5.474   2.439   1.167
 3769TIP3    H111313   5.390   2.413   1.205
 3769TIP3    H211314   5.484   2.531   1.193
 3770TIP3   OH211315   1.400   4.908   2.753
 3770TIP3    H111316   1.447   4.926   2.834
 3770TIP3    H211317   1.456   4.848   2.705
 3771TIP3   OH211318   3.451   5.689   0.128
 3771TIP3    H111319   3.480   5.604   0.093
 3771TIP3    H211320   3.506   5.753   0.084
 3772TIP3   OH211321   1.234   1.766   1.838
 3772TIP3    H111322   1.150   1.741   1.800
 3772TIP3    H211323   1.278   1.682   1.854
 3773TIP3   OH211324   2.422   3.993   4.110
 3773TIP3    H111325   2.420   3.952   4.197
 3773TIP3    H211326   2.425   3.919   4.049
 3774TIP3   OH211327   0.248   2.387   0.560
 3774TIP3    H111328   0.183   2.323   0.588
 3774TIP3    H211329   0.205   2.471   0.569
 3775TIP3   OH211330   1.302   0.909   0.165
 3775TIP3    H111331   1.317   0.964   0.241
 3775TIP3    H211332   1.281   0.823   0.201
 3776TIP3   OH211333   6.356   0.252   4.853
 3776TIP3    H111334   6.268   0.262   4.816
 3776TIP3    H211335   6.412   0.300   4.792
 3777TIP3   OH211336   5.372   0.312   1.663
 3777TIP3    H111337   5.289   0.304   1.614
 3777TIP3    H211338   5.373   0.235   1.720
 3778TIP3   OH211339   2.036   2.840   3.127
 3778TIP3    H111340   1.950   2.856   3.165
 3778TIP3    H211341   2.020   2.832   3.033
 3779TIP3   OH211342   4.563   0.246   2.698
 3779TIP3    H111343   4.496   0.282   2.757
 3779TIP3    H211344   4.645   0.280   2.732
 3780TIP3   OH211345   2.338   4.915   2.235
 3780TIP3    H111346   2.418   4.864   2.247
 3780TIP3    H211347   2.348   4.956   2.149
 3781TIP3   OH211348   4.000   1.410   0.734
 3781TIP3    H111349   3.926   1.446   0.782
 3781TIP3    H211350   3.970   1.324   0.703
 3782TIP3   OH211351   4.132   1.634   0.965
 3782TIP3    H111352   4.164   1.678   1.043
 3782TIP3    H211353   4.066   1.572   0.997
 3783TIP3   OH211354   0.750   5.652   0.203
 3783TIP3    H111355   0.764   5.592   0.275
 3783TIP3    H211356   0.796   5.732   0.228
 3784TIP3   OH211357   0.505   5.306   3.778
 3784TIP3    H111358   0.478   5.364   3.707
 3784TIP3    H211359   0.600   5.312   3.781
 3785TIP3   OH211360   3.909   2.313   5.112
 3785TIP3    H111361   3.924   2.349   5.200
 3785TIP3    H211362   3.841   2.248   5.125
 3786TIP3   OH211363   3.649   0.690   4.265
 3786TIP3    H111364   3.599   0.620   4.307
 3786TIP3    H211365   3.586   0.760   4.251
 3787TIP3   OH211366   4.314   4.674  -0.058
 3787TIP3    H111367   4.305   4.657   0.036
 3787TIP3    H211368   4.308   4.769  -0.066
 3788TIP3   OH211369   0.639   0.413   1.885
 3788TIP3    H111370   0.661   0.369   1.967
 3788TIP3    H211371   0.724   0.438   1.848
 3789TIP3   OH211372   4.909   5.707   0.428
 3789TIP3    H111373   4.909   5.799   0.455
 3789TIP3    H211374   4.997   5.676   0.450
 3790TIP3   OH211375   0.345   3.693   4.864
 3790TIP3    H111376   0.401   3.719   4.792
 3790TIP3    H211377   0.293   3.771   4.885
 3791TIP3   OH211378   1.239   0.865   3.207
 3791TIP3    H111379   1.174   0.928   3.174
 3791TIP3    H211380   1.316   0.919   3.225
 3792TIP3   OH211381   0.224   5.014   1.718
 3792TIP3    H111382   0.283   5.040   1.789
 3792TIP3    H211383   0.191   5.097   1.683
 3793TIP3   OH211384   0.042   5.047   3.161
 3793TIP3    H111385   0.016   5.007   3.078
 3793TIP3    H211386   0.115   5.104   3.139
 3794TIP3   OH211387   2.804   5.159   0.215
 3794TIP3    H111388   2.873   5.158   0.280
 3794TIP3    H211389   2.845   5.196   0.137
 3795TIP3   OH211390   1.973   2.687   4.829
 3795TIP3    H111391   2.065   2.682   4.806
 3795TIP3    H211392   1.936   2.605   4.796
 3796TIP3   OH211393   3.289   5.793   1.283
 3796TIP3    H111394   3.236   5.728   1.237
 3796TIP3    H211395   3.226   5.858   1.314
 3797TIP3   OH211396   0.781   5.399   3.532
 3797TIP3    H111397   0.704   5.348   3.509
 3797TIP3    H211398   0.753   5.454   3.605
 3798TIP3   OH211399   1.992   5.718   2.976
 3798TIP3    H111400   1.960   5.803   2.949
 3798TIP3    H211401   1.919   5.678   3.023
 3799TIP3   OH211402   5.617   4.663   3.902
 3799TIP3    H111403   5.621   4.677   3.807
 3799TIP3    H211404   5.690   4.606   3.921
 3800TIP3   OH211405   6.339   0.144   1.167
 3800TIP3    H111406   6.267   0.082   1.179
 3800TIP3    H211407   6.325   0.181   1.079
 3801TIP3   OH211408   2.339   2.940   4.209
 3801TIP3    H111409   2.430   2.968   4.207
 3801TIP3    H211410   2.334   2.876   4.279
 3802TIP3   OH211411   2.862   1.322   4.770
 3802TIP3    H111412   2.944   1.352   4.730
 3802TIP3    H211413   2.798   1.388   4.744
 3803TIP3   OH211414   2.038   1.003   2.359
 3803TIP3    H111415   2.126   0.992   2.395
 3803TIP3    H211416   1.982   0.956   2.420
 3804TIP3   OH211417   1.673   4.252   4.983
 3804TIP3    H111418   1.740   4.226   5.046
 3804TIP3    H211419   1.595   4.268   5.037
 3805TIP3   OH211420   4.363   0.626   4.191
 3805TIP3    H111421   4.336   0.542   4.153
 3805TIP3    H211422   4.284   0.680   4.187
 3806TIP3   OH211423   3.042   1.863   1.868
 3806TIP3    H111424   2.968   1.881   1.809
 3806TIP3    H211425   3.102   1.936   1.853
 3807TIP3   OH211426   4.825   5.008   1.922
 3807TIP3    H111427   4.840   4.929   1.973
 3807TIP3    H211428   4.866   5.078   1.973
 3808TIP3   OH211429   4.072   5.162   2.850
 3808TIP3    H111430   4.042   5.126   2.933
 3808TIP3    H211431   4.014   5.124   2.784
 3809TIP3   OH211432   0.660   1.950   4.720
 3809TIP3    H111433   0.749   1.984   4.706
 3809TIP3    H211434   0.604   2.012   4.672
 3810TIP3   OH211435   4.151   1.375   1.128
 3810TIP3    H111436   4.240   1.361   1.159
 3810TIP3    H211437   4.151   1.345   1.037
 3811TIP3   OH211438   3.636   4.865   3.346
 3811TIP3    H111439   3.642   4.914   3.264
 3811TIP3    H211440   3.562   4.806   3.333
 3812TIP3   OH211441   4.845   4.395   2.548
 3812TIP3    H111442   4.889   4.419   2.467
 3812TIP3    H211443   4.906   4.335   2.591
 3813TIP3   OH211444   1.882   1.669   0.312
 3813TIP3    H111445   1.961   1.627   0.278
 3813TIP3    H211446   1.845   1.604   0.372
 3814TIP3   OH211447   0.313   1.505   2.393
 3814TIP3    H111448   0.270   1.451   2.327
 3814TIP3    H211449   0.278   1.593   2.378
 3815TIP3   OH211450   2.080   2.828   0.576
 3815TIP3    H111451   2.141   2.862   0.641
 3815TIP3    H211452   2.067   2.900   0.515
 3816TIP3   OH211453   1.884   2.825   5.057
 3816TIP3    H111454   1.908   2.791   4.971
 3816TIP3    H211455   1.918   2.760   5.119
 3817TIP3   OH211456   2.036   3.600   2.636
 3817TIP3    H111457   2.030   3.696   2.640
 3817TIP3    H211458   1.964   3.570   2.691
 3818TIP3   OH211459   4.795   4.264   1.113
 3818TIP3    H111460   4.778   4.219   1.030
 3818TIP3    H211461   4.743   4.344   1.107
 3819TIP3   OH211462   2.966   3.722   2.438
 3819TIP3    H111463   2.916   3.674   2.505
 3819TIP3    H211464   2.959   3.814   2.465
 3820TIP3   OH211465   1.253   1.047   4.312
 3820TIP3    H111466   1.255   1.058   4.407
 3820TIP3    H211467   1.276   0.955   4.299
 3821TIP3   OH211468   5.328   4.608   1.416
 3821TIP3    H111469   5.415   4.633   1.447
 3821TIP3    H211470   5.295   4.686   1.370
 3822TIP3   OH211471   4.257   4.259   1.880
 3822TIP3    H111472   4.196   4.256   1.806
 3822TIP3    H211473   4.343   4.263   1.839
 3823TIP3   OH211474   5.886   2.674   0.336
 3823TIP3    H111475   5.872   2.687   0.242
 3823TIP3    H211476   5.980   2.685   0.347
 3824TIP3   OH211477   2.309   3.061   3.338
 3824TIP3    H111478   2.273   2.972   3.337
 3824TIP3    H211479   2.272   3.103   3.261
 3825TIP3   OH211480   6.067   4.588   0.035
 3825TIP3    H111481   6.035   4.498   0.043
 3825TIP3    H211482   6.156   4.579   0.003
 3826TIP3   OH211483   0.135   5.367   1.915
 3826TIP3    H111484   0.148   5.461   1.914
 3826TIP3    H211485   0.196   5.334   1.849
 3827TIP3   OH211486   2.929   4.266   2.385
 3827TIP3    H111487   2.991   4.290   2.454
 3827TIP3    H211488   2.849   4.241   2.432
 3828TIP3   OH211489   4.369   3.412   3.174
 3828TIP3    H111490   4.462   3.423   3.155
 3828TIP3    H211491   4.364   3.332   3.225
 3829TIP3   OH211492   3.063   5.641   1.253
 3829TIP3    H111493   2.977   5.624   1.290
 3829TIP3    H211494   3.096   5.556   1.225
 3830TIP3   OH211495   0.161   4.814   0.955
 3830TIP3    H111496   0.204   4.877   0.896
 3830TIP3    H211497   0.152   4.734   0.903
 3831TIP3   OH211498   4.967   0.981   0.365
 3831TIP3    H111499   4.997   1.064   0.327
 3831TIP3    H211500   5.045   0.925   0.365
 3832TIP3   OH211501   3.899   0.449   0.079
 3832TIP3    H111502   3.939   0.512   0.019
 3832TIP3    H211503   3.925   0.363   0.044
 3833TIP3   OH211504   0.573   3.511   0.579
 3833TIP3    H111505   0.547   3.455   0.652
 3833TIP3    H211506   0.515   3.586   0.584
 3834TIP3   OH211507   0.117   5.364   3.144
 3834TIP3    H111508   0.078   5.330   3.064
 3834TIP3    H211509   0.046   5.359   3.209
 3835TIP3   OH211510   5.618   1.108   0.191
 3835TIP3    H111511   5.540   1.127   0.242
 3835TIP3    H211512   5.671   1.188   0.198
 3836TIP3   OH211513   6.350   5.788   4.582
 3836TIP3    H111514   6.337   5.842   4.661
 3836TIP3    H211515   6.263   5.753   4.563
 3837TIP3   OH211516   0.162   4.186   3.918
 3837TIP3    H111517   0.099   4.169   3.988
 3837TIP3    H211518   0.217   4.256   3.952
 3838TIP3   OH211519   1.665   3.340   2.485
 3838TIP3    H111520   1.685   3.421   2.437
 3838TIP3    H211521   1.728   3.338   2.557
 3839TIP3   OH211522   3.424   2.247   3.940
 3839TIP3    H111523   3.473   2.329   3.946
 3839TIP3    H211524   3.490   2.179   3.953
 3840TIP3   OH211525   2.771   1.697   0.226
 3840TIP3    H111526   2.852   1.664   0.265
 3840TIP3    H211527   2.784   1.685   0.132
 3841TIP3   OH211528   1.034   3.371   3.250
 3841TIP3    H111529   1.111   3.379   3.195
 3841TIP3    H211530   0.986   3.297   3.212
 3842TIP3   OH211531   5.799   4.053   1.378
 3842TIP3    H111532   5.842   3.986   1.431
 3842TIP3    H211533   5.709   4.023   1.369
 3843TIP3   OH211534   1.805   2.507   1.628
 3843TIP3    H111535   1.896   2.479   1.640
 3843TIP3    H211536   1.812   2.592   1.584
 3844TIP3   OH211537   1.067   2.505   3.052
 3844TIP3    H111538   0.981   2.548   3.047
 3844TIP3    H211539   1.077   2.483   3.145
 3845TIP3   OH211540   0.419   2.295   3.042
 3845TIP3    H111541   0.501   2.312   2.995
 3845TIP3    H211542   0.425   2.352   3.120
 3846TIP3   OH211543   4.912   3.854   1.718
 3846TIP3    H111544   4.852   3.789   1.753
 3846TIP3    H211545   4.988   3.850   1.776
 3847TIP3   OH211546   4.727   3.849   3.632
 3847TIP3    H111547   4.720   3.942   3.652
 3847TIP3    H211548   4.816   3.825   3.658
 3848TIP3   OH211549   5.139   4.084   3.733
 3848TIP3    H111550   5.171   4.034   3.658
 3848TIP3    H211551   5.171   4.173   3.719
 3849TIP3   OH211552   1.589   2.952   2.316
 3849TIP3    H111553   1.544   3.033   2.292
 3849TIP3    H211554   1.676   2.961   2.277
 3850TIP3   OH211555   3.784   1.519   0.919
 3850TIP3    H111556   3.804   1.599   0.967
 3850TIP3    H211557   3.690   1.523   0.904
 3851TIP3   OH211558   3.375   0.669   1.935
 3851TIP3    H111559   3.397   0.576   1.945
 3851TIP3    H211560   3.280   0.672   1.949
 3852TIP3   OH211561   4.292   0.817   2.627
 3852TIP3    H111562   4.217   0.805   2.686
 3852TIP3    H211563   4.303   0.912   2.622
 3853TIP3   OH211564   3.635   5.869   1.660
 3853TIP3    H111565   3.597   5.934   1.601
 3853TIP3    H211566   3.722   5.851   1.623
 3854TIP3   OH211567   4.535   1.451   2.596
 3854TIP3    H111568   4.564   1.360   2.608
 3854TIP3    H211569   4.556   1.494   2.679
 3855TIP3   OH211570   2.622   4.405   0.338
 3855TIP3    H111571   2.696   4.427   0.394
 3855TIP3    H211572   2.610   4.482   0.283
 3856TIP3   OH211573   3.490   4.223   4.895
 3856TIP3    H111574   3.413   4.165   4.896
 3856TIP3    H211575   3.562   4.167   4.867
 3857TIP3   OH211576   6.334   2.899   1.733
 3857TIP3    H111577   6.276   2.968   1.700
 3857TIP3    H211578   6.343   2.837   1.661
 3858TIP3   OH211579   0.590   4.990   0.537
 3858TIP3    H111580   0.629   4.999   0.624
 3858TIP3    H211581   0.637   4.917   0.497
 3859TIP3   OH211582   1.656   3.582   3.384
 3859TIP3    H111583   1.738   3.611   3.424
 3859TIP3    H211584   1.607   3.540   3.454
 3860TIP3   OH211585   1.107   3.231   4.377
 3860TIP3    H111586   1.188   3.226   4.327
 3860TIP3    H211587   1.068   3.314   4.352
 3861TIP3   OH211588   0.760   0.922   0.929
 3861TIP3    H111589   0.677   0.964   0.907
 3861TIP3    H211590   0.760   0.841   0.878
 3862TIP3   OH211591   5.249   5.064   0.787
 3862TIP3    H111592   5.289   5.058   0.700
 3862TIP3    H211593   5.246   4.973   0.818
 3863TIP3   OH211594   3.398   2.803   2.947
 3863TIP3    H111595   3.321   2.789   3.002
 3863TIP3    H211596   3.432   2.715   2.929
 3864TIP3   OH211597   2.220   5.501   2.308
 3864TIP3    H111598   2.142   5.501   2.364
 3864TIP3    H211599   2.186   5.484   2.220
 3865TIP3   OH211600   2.432   2.097   3.027
 3865TIP3    H111601   2.484   2.030   2.983
 3865TIP3    H211602   2.385   2.142   2.957
 3866TIP3   OH211603   1.877   4.750   4.656
 3866TIP3    H111604   1.948   4.752   4.720
 3866TIP3    H211605   1.797   4.751   4.710
 3867TIP3   OH211606   0.730   0.382   1.069
 3867TIP3    H111607   0.733   0.290   1.044
 3867TIP3    H211608   0.778   0.428   1.001
 3868TIP3   OH211609   4.618   2.448   2.714
 3868TIP3    H111610   4.701   2.408   2.739
 3868TIP3    H211611   4.567   2.450   2.794
 3869TIP3   OH211612   5.566   3.644   4.359
 3869TIP3    H111613   5.582   3.737   4.346
 3869TIP3    H211614   5.617   3.622   4.437
 3870TIP3   OH211615   4.630   5.824   4.300
 3870TIP3    H111616   4.569   5.897   4.307
 3870TIP3    H211617   4.620   5.776   4.383
 3871TIP3   OH211618   3.867   0.567   5.130
 3871TIP3    H111619   3.948   0.526   5.161
 3871TIP3    H211620   3.885   0.591   5.040
 3872TIP3   OH211621   4.504   4.026   2.081
 3872TIP3    H111622   4.557   3.963   2.034
 3872TIP3    H211623   4.421   4.028   2.034
 3873TIP3   OH211624   4.243   5.121   0.526
 3873TIP3    H111625   4.194   5.040   0.529
 3873TIP3    H211626   4.326   5.098   0.484
 3874TIP3   OH211627   4.681   0.048   3.412
 3874TIP3    H111628   4.667   0.043   3.318
 3874TIP3    H211629   4.647  -0.034   3.446
 3875TIP3   OH211630   5.295   2.051   2.398
 3875TIP3    H111631   5.254   1.965   2.407
 3875TIP3    H211632   5.325   2.073   2.487
 3876TIP3   OH211633   5.195   2.095   3.700
 3876TIP3    H111634   5.115   2.096   3.648
 3876TIP3    H211635   5.202   2.005   3.732
 3877TIP3   OH211636   3.935   3.649   0.948
 3877TIP3    H111637   4.012   3.595   0.931
 3877TIP3    H211638   3.964   3.712   1.013
 3878TIP3   OH211639   6.175   5.398   2.647
 3878TIP3    H111640   6.208   5.341   2.578
 3878TIP3    H211641   6.118   5.343   2.700
 3879TIP3   OH211642   6.144   4.617   3.976
 3879TIP3    H111643   6.152   4.535   3.927
 3879TIP3    H211644   6.183   4.683   3.920
 3880TIP3   OH211645   3.737   1.206   3.881
 3880TIP3    H111646   3.784   1.123   3.885
 3880TIP3    H211647   3.804   1.270   3.859
 3881TIP3   OH211648   1.491   4.211   1.707
 3881TIP3    H111649   1.556   4.202   1.638
 3881TIP3    H211650   1.407   4.212   1.660
 3882TIP3   OH211651   6.059   3.553   2.642
 3882TIP3    H111652   5.987   3.491   2.651
 3882TIP3    H211653   6.039   3.622   2.706
 3883TIP3   OH211654   2.495   1.914   1.145
 3883TIP3    H111655   2.451   1.967   1.211
 3883TIP3    H211656   2.441   1.835   1.137
 3884TIP3   OH211657   5.385   4.364   1.249
 3884TIP3    H111658   5.367   4.451   1.286
 3884TIP3    H211659   5.316   4.308   1.284
 3885TIP3   OH211660   0.769   0.782   4.918
 3885TIP3    H111661   0.694   0.824   4.960
 3885TIP3    H211662   0.743   0.775   4.826
 3886TIP3   OH211663   1.882   1.262   1.232
 3886TIP3    H111664   1.855   1.340   1.183
 3886TIP3    H211665   1.881   1.290   1.324
 3887TIP3   OH211666   5.895   3.848   1.530
 3887TIP3    H111667   5.828   3.856   1.598
 3887TIP3    H211668   5.864   3.776   1.474
 3888TIP3   OH211669   0.889   4.220   0.829
 3888TIP3    H111670   0.972   4.199   0.871
 3888TIP3    H211671   0.847   4.282   0.890
 3889TIP3   OH211672   1.515   1.824   3.543
 3889TIP3    H111673   1.551   1.814   3.455
 3889TIP3    H211674   1.501   1.918   3.553
 3890TIP3   OH211675  -0.064   3.513   4.195
 3890TIP3    H111676  -0.069   3.472   4.109
 3890TIP3    H211677   0.030   3.520   4.213
 3891TIP3   OH211678   2.751   3.550   3.011
 3891TIP3    H111679   2.766   3.457   3.027
 3891TIP3    H211680   2.661   3.554   2.978
 3892TIP3   OH211681   4.883   3.470   4.476
 3892TIP3    H111682   4.790   3.452   4.463
 3892TIP3    H211683   4.890   3.498   4.567
 3893TIP3   OH211684   2.776   4.614   2.429
 3893TIP3    H111685   2.749   4.572   2.510
 3893TIP3    H211686   2.870   4.629   2.440
 3894TIP3   OH211687   2.999   3.771   0.071
 3894TIP3    H111688   2.971   3.859   0.047
 3894TIP3    H211689   3.026   3.778   0.162
 3895TIP3   OH211690   0.948   5.062   3.815
 3895TIP3    H111691   0.954   4.974   3.777
 3895TIP3    H211692   0.938   5.120   3.739
 3896TIP3   OH211693   3.743   3.597   3.524
 3896TIP3    H111694   3.720   3.513   3.484
 3896TIP3    H211695   3.792   3.643   3.456
 3897TIP3   OH211696   0.376   2.956   0.877
 3897TIP3    H111697   0.451   2.901   0.856
 3897TIP3    H211698   0.410   3.021   0.938
 3898TIP3   OH211699   5.760   3.825   3.907
 3898TIP3    H111700   5.675   3.864   3.888
 3898TIP3    H211701   5.756   3.738   3.869
 3899TIP3   OH211702   4.779   2.572   1.743
 3899TIP3    H111703   4.859   2.531   1.776
 3899TIP3    H211704   4.793   2.579   1.648
 3900TIP3   OH211705   1.574   2.959   2.981
 3900TIP3    H111706   1.612   2.892   3.038
 3900TIP3    H211707   1.481   2.962   3.006
 3901TIP3   OH211708   3.324   2.180   0.049
 3901TIP3    H111709   3.299   2.088   0.040
 3901TIP3    H211710   3.411   2.177   0.088
 3902TIP3   OH211711   4.635   1.432   5.000
 3902TIP3    H111712   4.722   1.392   4.993
 3902TIP3    H211713   4.585   1.392   4.928
 3903TIP3   OH211714   4.743   4.949   1.301
 3903TIP3    H111715   4.710   5.034   1.273
 3903TIP3    H211716   4.749   4.898   1.221
 3904TIP3   OH211717   0.779   4.592   1.002
 3904TIP3    H111718   0.695   4.551   0.981
 3904TIP3    H211719   0.773   4.612   1.096
 3905TIP3   OH211720   0.629   1.178   3.708
 3905TIP3    H111721   0.655   1.264   3.741
 3905TIP3    H211722   0.700   1.119   3.735
 3906TIP3   OH211723   4.617   1.727   3.650
 3906TIP3    H111724   4.550   1.794   3.641
 3906TIP3    H211725   4.571   1.645   3.636
 3907TIP3   OH211726   3.415   1.800   2.052
 3907TIP3    H111727   3.364   1.722   2.074
 3907TIP3    H211728   3.420   1.798   1.956
 3908TIP3   OH211729   5.140   1.849   0.423
 3908TIP3    H111730   5.060   1.796   0.423
 3908TIP3    H211731   5.210   1.787   0.402
 3909TIP3   OH211732   5.753   5.433   4.396
 3909TIP3    H111733   5.830   5.483   4.371
 3909TIP3    H211734   5.696   5.497   4.439
 3910TIP3   OH211735   1.124   3.138   3.761
 3910TIP3    H111736   1.118   3.095   3.847
 3910TIP3    H211737   1.142   3.067   3.700
 3911TIP3   OH211738   1.782   2.939   3.310
 3911TIP3    H111739   1.689   2.916   3.313
 3911TIP3    H211740   1.823   2.884   3.376
 3912TIP3   OH211741   0.525   3.613   0.052
 3912TIP3    H111742   0.496   3.585   0.139
 3912TIP3    H211743   0.616   3.586   0.048
 3913TIP3   OH211744   3.354   2.617   0.846
 3913TIP3    H111745   3.366   2.636   0.753
 3913TIP3    H211746   3.434   2.571   0.873
 3914TIP3   OH211747   4.992   4.638   2.300
 3914TIP3    H111748   4.921   4.580   2.273
 3914TIP3    H211749   5.029   4.598   2.378
 3915TIP3   OH211750   5.894   0.612   0.479
 3915TIP3    H111751   5.951   0.677   0.439
 3915TIP3    H211752   5.817   0.609   0.421
 3916TIP3   OH211753   4.250   1.923   0.758
 3916TIP3    H111754   4.213   1.843   0.720
 3916TIP3    H211755   4.190   1.945   0.829
 3917TIP3   OH211756   6.087   5.838   1.921
 3917TIP3    H111757   6.173   5.854   1.883
 3917TIP3    H211758   6.103   5.832   2.015
 3918TIP3   OH211759   1.594   3.209   3.300
 3918TIP3    H111760   1.633   3.125   3.325
 3918TIP3    H211761   1.500   3.196   3.314
 3919TIP3   OH211762   3.786   4.744   4.484
 3919TIP3    H111763   3.804   4.834   4.454
 3919TIP3    H211764   3.760   4.697   4.404
 3920TIP3   OH211765   6.236   2.986   3.624
 3920TIP3    H111766   6.255   2.897   3.653
 3920TIP3    H211767   6.196   3.029   3.700
 3921TIP3   OH211768   2.635   5.512   1.896
 3921TIP3    H111769   2.613   5.605   1.892
 3921TIP3    H211770   2.663   5.497   1.986
 3922TIP3   OH211771   3.637   3.292   4.127
 3922TIP3    H111772   3.568   3.225   4.126
 3922TIP3    H211773   3.718   3.244   4.110
 3923TIP3   OH211774   3.925   2.281   4.839
 3923TIP3    H111775   3.915   2.292   4.934
 3923TIP3    H211776   3.853   2.224   4.814
 3924TIP3   OH211777   0.087   3.692   1.599
 3924TIP3    H111778   0.164   3.636   1.594
 3924TIP3    H211779   0.080   3.732   1.512
 3925TIP3   OH211780   5.755   0.597   0.953
 3925TIP3    H111781   5.788   0.508   0.943
 3925TIP3    H211782   5.702   0.595   1.032
 3926TIP3   OH211783   1.939   0.642   4.211
 3926TIP3    H111784   1.884   0.671   4.284
 3926TIP3    H211785   1.997   0.717   4.194
 3927TIP3   OH211786   3.573   0.959   3.663
 3927TIP3    H111787   3.616   1.021   3.604
 3927TIP3    H211788   3.537   1.013   3.733
 3928TIP3   OH211789   4.924   0.314   0.494
 3928TIP3    H111790   4.868   0.348   0.564
 3928TIP3    H211791   5.009   0.300   0.536
 3929TIP3   OH211792   2.527   5.795   3.842
 3929TIP3    H111793   2.540   5.844   3.924
 3929TIP3    H211794   2.443   5.750   3.854
 3930TIP3   OH211795   5.767   1.133   1.247
 3930TIP3    H111796   5.821   1.130   1.326
 3930TIP3    H211797   5.734   1.044   1.237
 3931TIP3   OH211798   4.964   2.349   1.723
 3931TIP3    H111799   4.925   2.357   1.636
 3931TIP3    H211800   5.054   2.381   1.711
 3932TIP3   OH211801   1.796   1.027   0.853
 3932TIP3    H111802   1.748   0.983   0.782
 3932TIP3    H211803   1.886   1.033   0.821
 3933TIP3   OH211804   4.160   1.456   2.114
 3933TIP3    H111805   4.158   1.546   2.082
 3933TIP3    H211806   4.247   1.423   2.089
 3934TIP3   OH211807   0.531   2.074   0.147
 3934TIP3    H111808   0.620   2.103   0.126
 3934TIP3    H211809   0.482   2.155   0.164
 3935TIP3   OH211810   6.188   3.452   3.785
 3935TIP3    H111811   6.145   3.537   3.786
 3935TIP3    H211812   6.126   3.393   3.829
 3936TIP3   OH211813   2.579   0.889   3.085
 3936TIP3    H111814   2.642   0.909   3.016
 3936TIP3    H211815   2.605   0.946   3.158
 3937TIP3   OH211816   0.453   5.775   4.623
 3937TIP3    H111817   0.510   5.772   4.547
 3937TIP3    H211818   0.390   5.705   4.608
 3938TIP3   OH211819   4.522   2.101   4.790
 3938TIP3    H111820   4.505   2.194   4.779
 3938TIP3    H211821   4.438   2.059   4.774
 3939TIP3   OH211822   1.981   2.061   3.020
 3939TIP3    H111823   1.898   2.031   2.982
 3939TIP3    H211824   2.048   2.013   2.971
 3940TIP3   OH211825   4.216   5.311   3.279
 3940TIP3    H111826   4.130   5.270   3.288
 3940TIP3    H211827   4.211   5.390   3.333
 3941TIP3   OH211828   3.413   0.620   2.270
 3941TIP3    H111829   3.385   0.709   2.249
 3941TIP3    H211830   3.331   0.570   2.276
 3942TIP3   OH211831   0.526   5.520   1.838
 3942TIP3    H111832   0.572   5.598   1.810
 3942TIP3    H211833   0.563   5.500   1.924
 3943TIP3   OH211834   5.190   5.644   0.408
 3943TIP3    H111835   5.238   5.677   0.331
 3943TIP3    H211836   5.257   5.628   0.473
 3944TIP3   OH211837   5.243   5.274   3.762
 3944TIP3    H111838   5.167   5.332   3.757
 3944TIP3    H211839   5.225   5.218   3.838
 3945TIP3   OH211840   4.004   4.798   2.988
 3945TIP3    H111841   3.992   4.883   3.031
 3945TIP3    H211842   3.915   4.770   2.965
 3946TIP3   OH211843   5.874   1.499   2.695
 3946TIP3    H111844   5.918   1.542   2.768
 3946TIP3    H211845   5.793   1.549   2.683
 3947TIP3   OH211846   0.902   4.580   4.758
 3947TIP3    H111847   0.857   4.627   4.688
 3947TIP3    H211848   0.840   4.514   4.787
 3948TIP3   OH211849   3.989   1.805   2.863
 3948TIP3    H111850   3.966   1.894   2.836
 3948TIP3    H211851   4.010   1.760   2.781
 3949TIP3   OH211852   0.317   5.073   1.960
 3949TIP3    H111853   0.238   5.093   2.011
 3949TIP3    H211854   0.388   5.074   2.024
 3950TIP3   OH211855   5.139   5.827   1.114
 3950TIP3    H111856   5.100   5.832   1.026
 3950TIP3    H211857   5.145   5.733   1.132
 3951TIP3   OH211858   1.507   3.123   0.951
 3951TIP3    H111859   1.443   3.078   1.006
 3951TIP3    H211860   1.584   3.132   1.007
 3952TIP3   OH211861   2.822   2.039   2.438
 3952TIP3    H111862   2.840   2.090   2.359
 3952TIP3    H211863   2.887   2.069   2.501
 3953TIP3   OH211864   3.473   1.076   3.883
 3953TIP3    H111865   3.392   1.127   3.889
 3953TIP3    H211866   3.541   1.142   3.874
 3954TIP3   OH211867   3.483   4.242   1.447
 3954TIP3    H111868   3.509   4.150   1.456
 3954TIP3    H211869   3.395   4.246   1.483
 3955TIP3   OH211870   2.880   4.750   3.314
 3955TIP3    H111871   2.941   4.691   3.269
 3955TIP3    H211872   2.841   4.696   3.383
 3956TIP3   OH211873   1.888   3.976   1.573
 3956TIP3    H111874   1.960   4.037   1.560
 3956TIP3    H211875   1.914   3.897   1.526
 3957TIP3   OH211876   2.009   1.647   3.016
 3957TIP3    H111877   1.977   1.722   2.967
 3957TIP3    H211878   1.949   1.576   2.993
 3958TIP3   OH211879   3.665   0.565   2.373
 3958TIP3    H111880   3.580   0.587   2.335
 3958TIP3    H211881   3.645   0.507   2.447
 3959TIP3   OH211882   3.848   1.017   2.443
 3959TIP3    H111883   3.854   1.105   2.481
 3959TIP3    H211884   3.930   1.007   2.394
 3960TIP3   OH211885   5.785   1.424   1.374
 3960TIP3    H111886   5.691   1.438   1.387
 3960TIP3    H211887   5.790   1.335   1.338
 3961TIP3   OH211888   0.809   1.855   1.976
 3961TIP3    H111889   0.878   1.917   1.954
 3961TIP3    H211890   0.843   1.808   2.052
 3962TIP3   OH211891   3.118   0.830   0.168
 3962TIP3    H111892   3.155   0.855   0.252
 3962TIP3    H211893   3.030   0.799   0.188
 3963TIP3   OH211894   1.380   4.997   1.902
 3963TIP3    H111895   1.313   5.058   1.934
 3963TIP3    H211896   1.334   4.942   1.839
 3964TIP3   OH211897   0.062   2.458   4.435
 3964TIP3    H111898   0.060   2.374   4.389
 3964TIP3    H211899  -0.026   2.467   4.472
 3965TIP3   OH211900   3.915   2.922   4.853
 3965TIP3    H111901   3.900   3.016   4.849
 3965TIP3    H211902   4.009   2.912   4.834
 3966TIP3   OH211903   0.872   2.847   1.807
 3966TIP3    H111904   0.922   2.856   1.888
 3966TIP3    H211905   0.832   2.934   1.795
 3967TIP3   OH211906   3.414   3.826   4.016
 3967TIP3    H111907   3.371   3.741   4.029
 3967TIP3    H211908   3.446   3.850   4.102
 3968TIP3   OH211909   4.183   5.576   4.861
 3968TIP3    H111910   4.269   5.596   4.824
 3968TIP3    H211911   4.171   5.483   4.845
 3969TIP3   OH211912   2.617   3.364   2.727
 3969TIP3    H111913   2.544   3.426   2.730
 3969TIP3    H211914   2.631   3.339   2.819
 3970TIP3   OH211915   5.682   5.026   1.344
 3970TIP3    H111916   5.650   4.980   1.267
 3970TIP3    H211917   5.730   5.101   1.309
 3971TIP3   OH211918   2.476   5.297   2.567
 3971TIP3    H111919   2.442   5.254   2.645
 3971TIP3    H211920   2.459   5.390   2.581
 3972TIP3   OH211921   4.644   4.949   2.270
 3972TIP3    H111922   4.713   4.902   2.223
 3972TIP3    H211923   4.611   4.886   2.334
 3973TIP3   OH211924   4.953   3.975   0.158
 3973TIP3    H111925   5.049   3.973   0.155
 3973TIP3    H211926   4.926   3.891   0.121
 3974TIP3   OH211927   1.358   2.442   3.162
 3974TIP3    H111928   1.276   2.393   3.155
 3974TIP3    H211929   1.419   2.382   3.206
 3975TIP3   OH211930   5.921   4.092   1.099
 3975TIP3    H111931   5.853   4.071   1.163
 3975TIP3    H211932   5.893   4.176   1.062
 3976TIP3   OH211933   0.751   1.217   1.772
 3976TIP3    H111934   0.710   1.202   1.687
 3976TIP3    H211935   0.708   1.154   1.831
 3977TIP3   OH211936   5.418   5.959   1.143
 3977TIP3    H111937   5.413   5.865   1.159
 3977TIP3    H211938   5.468   5.967   1.061
 3978TIP3   OH211939   1.047   2.289   4.574
 3978TIP3    H111940   1.107   2.361   4.557
 3978TIP3    H211941   1.040   2.243   4.490
 3979TIP3   OH211942   2.050   4.919   4.443
 3979TIP3    H111943   2.046   4.834   4.487
 3979TIP3    H211944   1.959   4.945   4.433
 3980TIP3   OH211945   3.232   1.396   2.938
 3980TIP3    H111946   3.281   1.370   2.860
 3980TIP3    H211947   3.140   1.387   2.913
 3981TIP3   OH211948   4.873   4.184   0.307
 3981TIP3    H111949   4.893   4.113   0.245
 3981TIP3    H211950   4.807   4.147   0.365
 3982TIP3   OH211951   4.887   3.816   4.671
 3982TIP3    H111952   4.922   3.904   4.656
 3982TIP3    H211953   4.953   3.773   4.725
 3983TIP3   OH211954   5.015   1.414   5.130
 3983TIP3    H111955   4.956   1.352   5.087
 3983TIP3    H211956   5.006   1.393   5.223
 3984TIP3   OH211957   1.729   1.481   3.098
 3984TIP3    H111958   1.653   1.457   3.045
 3984TIP3    H211959   1.760   1.398   3.134
 3985TIP3   OH211960   0.389   1.501   3.790
 3985TIP3    H111961   0.365   1.418   3.832
 3985TIP3    H211962   0.306   1.536   3.756
 3986TIP3   OH211963   1.326   1.363   4.837
 3986TIP3    H111964   1.344   1.285   4.890
 3986TIP3    H211965   1.412   1.401   4.819
 3987TIP3   OH211966   4.533   2.685   4.289
 3987TIP3    H111967   4.553   2.770   4.251
 3987TIP3    H211968   4.482   2.704   4.367
 3988TIP3   OH211969   0.522   0.131   2.466
 3988TIP3    H111970   0.545   0.073   2.538
 3988TIP3    H211971   0.598   0.188   2.456
 3989TIP3   OH211972   0.119   2.953   2.552
 3989TIP3    H111973   0.120   2.948   2.647
 3989TIP3    H211974   0.145   2.865   2.523
 3990TIP3   OH211975   1.230   1.088   4.600
 3990TIP3    H111976   1.302   1.151   4.602
 3990TIP3    H211977   1.253   1.023   4.667
 3991TIP3   OH211978   2.187   0.013   4.121
 3991TIP3    H111979   2.187  -0.038   4.203
 3991TIP3    H211980   2.226   0.097   4.145
 3992TIP3   OH211981   3.039   5.159   4.519
 3992TIP3    H111982   2.999   5.180   4.603
 3992TIP3    H211983   2.967   5.129   4.465
 3993TIP3   OH211984   1.402   1.113   1.320
 3993TIP3    H111985   1.376   1.161   1.241
 3993TIP3    H211986   1.472   1.055   1.290
 3994TIP3   OH211987   5.377   3.954   0.951
 3994TIP3    H111988   5.332   3.998   1.023
 3994TIP3    H211989   5.425   3.882   0.993
 3995TIP3   OH211990   2.003   0.611   3.894
 3995TIP3    H111991   1.924   0.592   3.844
 3995TIP3    H211992   1.975   0.608   3.986
 3996TIP3   OH211993   2.332   1.282   0.137
 3996TIP3    H111994   2.384   1.346   0.186
 3996TIP3    H211995   2.396   1.219   0.105
 3997TIP3   OH211996   6.327   5.740   2.421
 3997TIP3    H111997   6.248   5.710   2.377
 3997TIP3    H211998   6.344   5.674   2.489
 3998TIP3   OH211999   3.918   2.418   0.145
 3998TIP3    H112000   3.883   2.458   0.224
 3998TIP3    H212001   4.003   2.383   0.171
 3999TIP3   OH212002   4.777   3.094   2.942
 3999TIP3    H112003   4.715   3.022   2.927
 3999TIP3    H212004   4.852   3.052   2.985
 4000TIP3   OH212005   0.342   1.993   4.781
 4000TIP3    H112006   0.265   1.939   4.801
 4000TIP3    H212007   0.416   1.937   4.800
 4001TIP3   OH212008   4.891   5.682   0.744
 4001TIP3    H112009   4.866   5.685   0.836
 4001TIP3    H212010   4.983   5.656   0.745
 4002TIP3   OH212011   1.955   2.847   4.577
 4002TIP3    H112012   1.950   2.803   4.662
 4002TIP3    H212013   1.874   2.898   4.572
 4003TIP3   OH212014   3.001   5.689   0.241
 4003TIP3    H112015   3.046   5.662   0.161
 4003TIP3    H212016   3.057   5.756   0.280
 4004TIP3   OH212017   4.622   2.557   1.059
 4004TIP3    H112018   4.529   2.557   1.038
 4004TIP3    H212019   4.626   2.539   1.153
 4005TIP3   OH212020   5.497   3.721   1.039
 4005TIP3    H112021   5.588   3.707   1.062
 4005TIP3    H212022   5.448   3.669   1.102
 4006TIP3   OH212023   1.106   5.943   3.136
 4006TIP3    H112024   1.177   5.970   3.194
 4006TIP3    H212025   1.108   5.847   3.139
 4007TIP3   OH212026   1.418   2.300   2.040
 4007TIP3    H112027   1.427   2.381   2.091
 4007TIP3    H212028   1.379   2.327   1.958
 4008TIP3   OH212029   3.788   5.304   2.147
 4008TIP3    H112030   3.848   5.284   2.075
 4008TIP3    H212031   3.715   5.243   2.134
 4009TIP3   OH212032   1.204   3.319   2.092
 4009TIP3    H112033   1.164   3.301   2.177
 4009TIP3    H212034   1.278   3.259   2.087
 4010TIP3   OH212035   1.425   0.911   1.865
 4010TIP3    H112036   1.347   0.929   1.916
 4010TIP3    H212037   1.497   0.914   1.928
 4011TIP3   OH212038   6.366   2.331   0.700
 4011TIP3    H112039   6.376   2.422   0.727
 4011TIP3    H212040   6.289   2.300   0.748
 4012TIP3   OH212041   3.251   4.962   5.039
 4012TIP3    H112042   3.243   5.015   4.959
 4012TIP3    H212043   3.326   4.999   5.085
 4013TIP3   OH212044   0.529   2.676   2.350
 4013TIP3    H112045   0.452   2.732   2.336
 4013TIP3    H212046   0.509   2.596   2.302
 4014TIP3   OH212047   3.185   1.860   4.676
 4014TIP3    H112048   3.194   1.950   4.709
 4014TIP3    H212049   3.097   1.834   4.703
 4015TIP3   OH212050   2.427   2.794   0.084
 4015TIP3    H112051   2.334   2.769   0.083
 4015TIP3    H212052   2.433   2.863   0.150
 4016TIP3   OH212053   6.123   3.956   1.888
 4016TIP3    H112054   6.028   3.948   1.879
 4016TIP3    H212055   6.154   3.976   1.800
 4017TIP3   OH212056   2.985   5.364   1.463
 4017TIP3    H112057   3.034   5.288   1.495
 4017TIP3    H212058   3.007   5.434   1.524
 4018TIP3   OH212059   1.886  -0.021   4.375
 4018TIP3    H112060   1.916   0.015   4.291
 4018TIP3    H212061   1.798  -0.054   4.357
 4019TIP3   OH212062   5.125   1.151   0.534
 4019TIP3    H112063   5.035   1.126   0.557
 4019TIP3    H212064   5.176   1.134   0.614
 4020TIP3   OH212065   5.713   5.875   4.488
 4020TIP3    H112066   5.713   5.867   4.393
 4020TIP3    H212067   5.806   5.876   4.512
 4021TIP3   OH212068   2.701   5.115   2.308
 4021TIP3    H112069   2.690   5.071   2.393
 4021TIP3    H212070   2.613   5.141   2.282
 4022TIP3   OH212071   2.551   2.143   4.536
 4022TIP3    H112072   2.535   2.110   4.625
 4022TIP3    H212073   2.574   2.235   4.549
 4023TIP3   OH212074   1.548   5.836   3.472
 4023TIP3    H112075   1.545   5.786   3.391
 4023TIP3    H212076   1.489   5.910   3.456
 4024TIP3   OH212077   5.038   5.179   0.512
 4024TIP3    H112078   5.065   5.087   0.524
 4024TIP3    H212079   4.975   5.194   0.582
 4025TIP3   OH212080   1.104   4.455   3.773
 4025TIP3    H112081   1.084   4.404   3.695
 4025TIP3    H212082   1.136   4.538   3.739
 4026TIP3   OH212083   0.393   5.852   4.037
 4026TIP3    H112084   0.366   5.794   4.108
 4026TIP3    H212085   0.432   5.927   4.082
 4027TIP3   OH212086   1.018   4.311   2.257
 4027TIP3    H112087   1.045   4.327   2.347
 4027TIP3    H212088   0.930   4.272   2.265
 4028TIP3   OH212089   4.431   3.810   3.600
 4028TIP3    H112090   4.518   3.770   3.611
 4028TIP3    H212091   4.370   3.746   3.637
 4029TIP3   OH212092   0.784   4.779   4.583
 4029TIP3    H112093   0.813   4.839   4.651
 4029TIP3    H212094   0.690   4.793   4.576
 4030TIP3   OH212095   4.929   1.047   2.217
 4030TIP3    H112096   4.911   1.037   2.123
 4030TIP3    H212097   4.851   1.011   2.260
 4031TIP3   OH212098   1.008   0.284   2.797
 4031TIP3    H112099   1.041   0.354   2.740
 4031TIP3    H212100   0.985   0.213   2.737
 4032TIP3   OH212101   4.620   1.857   0.275
 4032TIP3    H112102   4.624   1.842   0.369
 4032TIP3    H212103   4.548   1.801   0.245
 4033TIP3   OH212104   0.984   1.061   0.963
 4033TIP3    H112105   1.040   0.985   0.953
 4033TIP3    H212106   0.897   1.025   0.978
 4034TIP3   OH212107   5.679   4.767   2.713
 4034TIP3    H112108   5.742   4.713   2.760
 4034TIP3    H212109   5.731   4.840   2.679
 4035TIP3   OH212110   6.131   3.652   2.315
 4035TIP3    H112111   6.109   3.660   2.222
 4035TIP3    H212112   6.062   3.597   2.352
 4036TIP3   OH212113   5.864   1.227   2.140
 4036TIP3    H112114   5.881   1.220   2.046
 4036TIP3    H212115   5.877   1.319   2.160
 4037TIP3   OH212116   1.896   2.833   0.207
 4037TIP3    H112117   1.915   2.851   0.299
 4037TIP3    H212118   1.859   2.745   0.207
 4038TIP3   OH212119   4.096   1.020   4.690
 4038TIP3    H112120   4.120   0.933   4.719
 4038TIP3    H212121   4.005   1.031   4.718
 4039TIP3   OH212122   4.527   3.056   4.181
 4039TIP3    H112123   4.461   3.080   4.115
 4039TIP3    H212124   4.590   3.003   4.132
 4040TIP3   OH212125   4.626   0.919   1.661
 4040TIP3    H112126   4.707   0.868   1.652
 4040TIP3    H212127   4.655   1.010   1.656
 4041TIP3   OH212128   4.387   3.623   2.188
 4041TIP3    H112129   4.462   3.631   2.129
 4041TIP3    H212130   4.330   3.560   2.145
 4042TIP3   OH212131   4.825   1.146   1.178
 4042TIP3    H112132   4.733   1.172   1.186
 4042TIP3    H212133   4.830   1.062   1.223
 4043TIP3   OH212134   6.203   2.774   1.949
 4043TIP3    H112135   6.259   2.714   1.998
 4043TIP3    H212136   6.261   2.814   1.885
 4044TIP3   OH212137   1.766   3.751   2.178
 4044TIP3    H112138   1.672   3.735   2.186
 4044TIP3    H212139   1.775   3.793   2.093
 4045TIP3   OH212140   1.213   3.466   4.998
 4045TIP3    H112141   1.174   3.400   5.054
 4045TIP3    H212142   1.290   3.497   5.047
 4046TIP3   OH212143   1.725   2.942   4.080
 4046TIP3    H112144   1.698   3.025   4.119
 4046TIP3    H212145   1.809   2.922   4.123
 4047TIP3   OH212146   4.079   5.212   0.749
 4047TIP3    H112147   4.114   5.294   0.782
 4047TIP3    H212148   4.116   5.203   0.661
 4048TIP3   OH212149   3.140   3.075   1.192
 4048TIP3    H112150   3.227   3.075   1.152
 4048TIP3    H212151   3.086   3.021   1.133
 4049TIP3   OH212152   5.048   3.462   1.964
 4049TIP3    H112153   4.994   3.403   1.912
 4049TIP3    H212154   5.093   3.404   2.026
 4050TIP3   OH212155   3.120   0.248   4.099
 4050TIP3    H112156   3.111   0.343   4.107
 4050TIP3    H212157   3.112   0.215   4.189
 4051TIP3   OH212158   1.545   3.797   1.082
 4051TIP3    H112159   1.533   3.714   1.036
 4051TIP3    H212160   1.527   3.777   1.173
 4052TIP3   OH212161   5.464   5.479   0.831
 4052TIP3    H112162   5.543   5.426   0.841
 4052TIP3    H212163   5.393   5.415   0.826
 4053TIP3   OH212164   5.160   0.867   1.315
 4053TIP3    H112165   5.202   0.848   1.399
 4053TIP3    H212166   5.082   0.918   1.338
 4054TIP3   OH212167   4.143   0.244   4.453
 4054TIP3    H112168   4.181   0.248   4.365
 4054TIP3    H212169   4.180   0.319   4.498
 4055TIP3   OH212170   4.516   5.456   0.403
 4055TIP3    H112171   4.558   5.542   0.402
 4055TIP3    H212172   4.589   5.394   0.412
 4056TIP3   OH212173   4.972   1.089   0.965
 4056TIP3    H112174   4.931   1.133   1.039
 4056TIP3    H212175   4.899   1.068   0.906
 4057TIP3   OH212176   2.724   5.742   5.012
 4057TIP3    H112177   2.732   5.730   5.106
 4057TIP3    H212178   2.632   5.722   4.993
 4058TIP3   OH212179   4.756   5.428   2.261
 4058TIP3    H112180   4.749   5.457   2.352
 4058TIP3    H212181   4.732   5.335   2.264
 4059TIP3   OH212182   5.768   3.378   0.450
 4059TIP3    H112183   5.696   3.384   0.513
 4059TIP3    H212184   5.838   3.432   0.488
 4060TIP3   OH212185   0.636   5.668   2.052
 4060TIP3    H112186   0.718   5.711   2.079
 4060TIP3    H212187   0.605   5.721   1.978
 4061TIP3   OH212188   5.760   1.963   3.097
 4061TIP3    H112189   5.855   1.971   3.086
 4061TIP3    H212190   5.740   2.019   3.172
 4062TIP3   OH212191   2.770   0.446   0.679
 4062TIP3    H112192   2.840   0.505   0.652
 4062TIP3    H212193   2.690   0.495   0.665
 4063TIP3   OH212194   2.722   5.306   3.384
 4063TIP3    H112195   2.715   5.393   3.421
 4063TIP3    H212196   2.663   5.252   3.437
 4064TIP3   OH212197   6.169   0.876   1.430
 4064TIP3    H112198   6.197   0.807   1.369
 4064TIP3    H212199   6.188   0.840   1.517
 4065TIP3   OH212200   3.498   4.436   0.587
 4065TIP3    H112201   3.482   4.349   0.552
 4065TIP3    H212202   3.558   4.477   0.524
 4066TIP3   OH212203   1.756   1.001   3.650
 4066TIP3    H112204   1.773   0.927   3.591
 4066TIP3    H212205   1.774   0.966   3.738
 4067TIP3   OH212206   1.580   4.067   2.500
 4067TIP3    H112207   1.635   3.988   2.500
 4067TIP3    H212208   1.573   4.091   2.408
 4068TIP3   OH212209   5.104   4.848   5.114
 4068TIP3    H112210   5.133   4.757   5.110
 4068TIP3    H212211   5.178   4.895   5.153
 4069TIP3   OH212212   2.839   0.820   2.713
 4069TIP3    H112213   2.771   0.755   2.734
 4069TIP3    H212214   2.848   0.872   2.793
 4070TIP3   OH212215   2.136   3.545   2.376
 4070TIP3    H112216   2.112   3.565   2.466
 4070TIP3    H212217   2.133   3.629   2.330
 4071TIP3   OH212218   1.822   3.093   1.369
 4071TIP3    H112219   1.859   3.181   1.361
 4071TIP3    H212220   1.892   3.041   1.410
 4072TIP3   OH212221   2.208   1.089   4.018
 4072TIP3    H112222   2.236   0.999   4.007
 4072TIP3    H212223   2.289   1.138   4.034
 4073TIP3   OH212224   6.285   4.193   3.275
 4073TIP3    H112225   6.270   4.195   3.370
 4073TIP3    H212226   6.283   4.285   3.248
 4074TIP3   OH212227   0.638   5.820   0.797
 4074TIP3    H112228   0.567   5.863   0.749
 4074TIP3    H212229   0.649   5.872   0.876
 4075TIP3   OH212230   2.321   4.492   3.973
 4075TIP3    H112231   2.230   4.465   3.988
 4075TIP3    H212232   2.360   4.494   4.060
 4076TIP3   OH212233   1.059   5.443   2.737
 4076TIP3    H112234   1.030   5.522   2.692
 4076TIP3    H212235   1.137   5.470   2.785
 4077TIP3   OH212236   2.433   5.811   3.496
 4077TIP3    H112237   2.517   5.794   3.537
 4077TIP3    H212238   2.378   5.738   3.523
 4078TIP3   OH212239   6.292   1.566   1.347
 4078TIP3    H112240   6.318   1.636   1.287
 4078TIP3    H212241   6.339   1.488   1.316
 4079TIP3   OH212242   3.235   4.234   4.550
 4079TIP3    H112243   3.198   4.207   4.634
 4079TIP3    H212244   3.168   4.212   4.486
 4080TIP3   OH212245   2.053   3.804   0.506
 4080TIP3    H112246   2.005   3.722   0.498
 4080TIP3    H212247   2.008   3.864   0.446
 4081TIP3   OH212248   2.331   2.700   3.007
 4081TIP3    H112249   2.388   2.666   2.939
 4081TIP3    H212250   2.243   2.700   2.968
 4082TIP3   OH212251   3.762   0.177   1.771
 4082TIP3    H112252   3.838   0.164   1.827
 4082TIP3    H212253   3.707   0.239   1.818
 4083TIP3   OH212254   4.930   0.682   0.346
 4083TIP3    H112255   4.902   0.678   0.438
 4083TIP3    H212256   5.022   0.707   0.350
 4084TIP3   OH212257   0.215   2.184   3.723
 4084TIP3    H112258   0.222   2.215   3.632
 4084TIP3    H212259   0.125   2.205   3.748
 4085TIP3   OH212260   4.005   5.604   0.238
 4085TIP3    H112261   4.083   5.616   0.293
 4085TIP3    H212262   4.040   5.593   0.150
 4086TIP3   OH212263   4.209   5.694   0.392
 4086TIP3    H112264   4.275   5.652   0.448
 4086TIP3    H212265   4.254   5.771   0.356
 4087TIP3   OH212266   3.123   5.383   1.113
 4087TIP3    H112267   3.090   5.294   1.122
 4087TIP3    H212268   3.064   5.424   1.050
 4088TIP3   OH212269   0.778   0.676   0.816
 4088TIP3    H112270   0.822   0.596   0.846
 4088TIP3    H212271   0.788   0.674   0.721
 4089TIP3   OH212272   0.716   3.396   0.201
 4089TIP3    H112273   0.664   3.433   0.272
 4089TIP3    H212274   0.795   3.364   0.244
 4090TIP3   OH212275   1.973   4.021   1.993
 4090TIP3    H112276   2.014   4.027   1.907
 4090TIP3    H212277   1.896   3.966   1.980
 4091TIP3   OH212278   5.532   0.457   1.101
 4091TIP3    H112279   5.459   0.399   1.124
 4091TIP3    H212280   5.605   0.397   1.082
 4092TIP3   OH212281   0.721   2.601   4.650
 4092TIP3    H112282   0.702   2.670   4.714
 4092TIP3    H212283   0.811   2.576   4.668
 4093TIP3   OH212284   2.078   0.120   3.666
 4093TIP3    H112285   2.123   0.052   3.716
 4093TIP3    H212286   2.066   0.192   3.729
 4094TIP3   OH212287   5.386   6.012   4.038
 4094TIP3    H112288   5.326   5.937   4.043
 4094TIP3    H212289   5.433   6.000   3.956
 4095TIP3   OH212290   2.652   3.291   2.167
 4095TIP3    H112291   2.666   3.197   2.166
 4095TIP3    H212292   2.739   3.329   2.181
 4096TIP3   OH212293   2.406   3.642   4.927
 4096TIP3    H112294   2.471   3.681   4.869
 4096TIP3    H212295   2.355   3.584   4.870
 4097TIP3   OH212296   5.370   3.005   3.347
 4097TIP3    H112297   5.431   2.942   3.307
 4097TIP3    H212298   5.409   3.025   3.432
 4098TIP3   OH212299   4.192   4.017   1.156
 4098TIP3    H112300   4.229   4.063   1.081
 4098TIP3    H212301   4.262   3.957   1.184
 4099TIP3   OH212302   1.206   0.270   4.111
 4099TIP3    H112303   1.301   0.279   4.108
 4099TIP3    H212304   1.188   0.184   4.075
 4100TIP3   OH212305   2.982   1.713   4.754
 4100TIP3    H112306   2.898   1.675   4.731
 4100TIP3    H212307   2.983   1.714   4.850
 4101TIP3   OH212308   0.741   5.914   0.395
 4101TIP3    H112309   0.684   5.954   0.461
 4101TIP3    H212310   0.754   5.824   0.425
 4102TIP3   OH212311   4.929   3.161   4.319
 4102TIP3    H112312   4.852   3.206   4.286
 4102TIP3    H212313   4.904   3.069   4.320
 4103TIP3   OH212314   4.953   0.421   2.469
 4103TIP3    H112315   4.889   0.426   2.540
 4103TIP3    H212316   5.035   0.451   2.507
 4104TIP3   OH212317   4.017   4.779   0.759
 4104TIP3    H112318   4.028   4.866   0.797
 4104TIP3    H212319   4.069   4.781   0.679
 4105TIP3   OH212320   6.148   1.947   2.835
 4105TIP3    H112321   6.221   1.890   2.856
 4105TIP3    H212322   6.167   1.977   2.746
 4106TIP3   OH212323   2.257   5.921   0.508
 4106TIP3    H112324   2.345   5.885   0.518
 4106TIP3    H212325   2.200   5.852   0.543
 4107TIP3   OH212326   5.607   0.419   3.133
 4107TIP3    H112327   5.638   0.408   3.223
 4107TIP3    H212328   5.606   0.513   3.120
 4108TIP3   OH212329   5.304   4.781   0.858
 4108TIP3    H112330   5.376   4.725   0.827
 4108TIP3    H212331   5.242   4.720   0.897
 4109TIP3   OH212332   3.032   2.664   2.394
 4109TIP3    H112333   3.088   2.656   2.317
 4109TIP3    H212334   2.986   2.747   2.381
 4110TIP3   OH212335   6.100   1.392   2.188
 4110TIP3    H112336   6.141   1.320   2.235
 4110TIP3    H212337   6.064   1.449   2.257
 4111TIP3   OH212338   5.989   1.493   2.407
 4111TIP3    H112339   5.941   1.569   2.438
 4111TIP3    H212340   5.985   1.430   2.479
 4112TIP3   OH212341   5.020   3.028   4.056
 4112TIP3    H112342   5.010   3.063   4.145
 4112TIP3    H212343   5.050   3.103   4.004
 4113TIP3   OH212344   0.349   5.823   0.480
 4113TIP3    H112345   0.312   5.798   0.396
 4113TIP3    H212346   0.349   5.742   0.531
 4114TIP3   OH212347   3.907   4.307   1.940
 4114TIP3    H112348   3.828   4.289   1.889
 4114TIP3    H212349   3.950   4.222   1.948
 4115TIP3   OH212350   2.931   4.749   2.191
 4115TIP3    H112351   3.027   4.749   2.193
 4115TIP3    H212352   2.906   4.660   2.217
 4116TIP3   OH212353   0.835   5.164   3.179
 4116TIP3    H112354   0.882   5.231   3.228
 4116TIP3    H212355   0.887   5.153   3.099
 4117TIP3   OH212356   6.194   2.387   3.614
 4117TIP3    H112357   6.221   2.345   3.696
 4117TIP3    H212358   6.159   2.472   3.642
 4118TIP3   OH212359   5.036   3.533   5.143
 4118TIP3    H112360   4.967   3.584   5.186
 4118TIP3    H212361   5.109   3.595   5.135
 4119TIP3   OH212362   5.132   1.201   2.307
 4119TIP3    H112363   5.090   1.236   2.385
 4119TIP3    H212364   5.062   1.158   2.259
 4120TIP3   OH212365   1.104   4.496   1.634
 4120TIP3    H112366   1.125   4.402   1.634
 4120TIP3    H212367   1.185   4.538   1.606
 4121TIP3   OH212368   2.778   3.031   1.484
 4121TIP3    H112369   2.806   2.996   1.569
 4121TIP3    H212370   2.846   3.094   1.460
 4122TIP3   OH212371   0.190   2.831   3.559
 4122TIP3    H112372   0.101   2.853   3.584
 4122TIP3    H212373   0.243   2.854   3.635
 4123TIP3   OH212374   5.540   5.118   4.197
 4123TIP3    H112375   5.461   5.151   4.240
 4123TIP3    H212376   5.509   5.045   4.144
 4124TIP3   OH212377   3.989   5.009   4.177
 4124TIP3    H112378   3.926   4.949   4.137
 4124TIP3    H212379   4.073   4.984   4.139
 4125TIP3   OH212380   4.017   4.268   3.009
 4125TIP3    H112381   3.972   4.351   3.024
 4125TIP3    H212382   3.994   4.214   3.085
 4126TIP3   OH212383   3.939   1.614   4.533
 4126TIP3    H112384   3.988   1.626   4.614
 4126TIP3    H212385   3.851   1.588   4.562
 4127TIP3   OH212386   4.983   3.923   2.301
 4127TIP3    H112387   4.957   3.974   2.224
 4127TIP3    H212388   5.017   3.989   2.362
 4128TIP3   OH212389   2.804   0.969   3.568
 4128TIP3    H112390   2.868   1.000   3.633
 4128TIP3    H212391   2.832   0.879   3.549
 4129TIP3   OH212392   0.054   0.240   3.285
 4129TIP3    H112393   0.074   0.318   3.234
 4129TIP3    H212394   0.125   0.234   3.349
 4130TIP3   OH212395   4.886   1.938   3.971
 4130TIP3    H112396   4.898   1.899   4.057
 4130TIP3    H212397   4.936   2.019   3.974
 4131TIP3   OH212398   3.355   2.389   4.793
 4131TIP3    H112399   3.371   2.475   4.831
 4131TIP3    H212400   3.425   2.378   4.729
 4132TIP3   OH212401   4.515   1.701   3.953
 4132TIP3    H112402   4.457   1.725   3.880
 4132TIP3    H212403   4.604   1.709   3.916
 4133TIP3   OH212404   0.033   5.573   2.631
 4133TIP3    H112405   0.109   5.523   2.660
 4133TIP3    H212406  -0.042   5.529   2.670
 4134TIP3   OH212407   3.487   5.735   3.886
 4134TIP3    H112408   3.446   5.719   3.801
 4134TIP3    H212409   3.478   5.829   3.899
 4135TIP3   OH212410   6.026   5.230   4.044
 4135TIP3    H112411   5.935   5.259   4.047
 4135TIP3    H212412   6.042   5.209   3.952
 4136TIP3   OH212413   2.687   3.565   0.377
 4136TIP3    H112414   2.760   3.588   0.319
 4136TIP3    H212415   2.712   3.599   0.462
 4137TIP3   OH212416   5.940   0.631   4.389
 4137TIP3    H112417   5.848   0.608   4.379
 4137TIP3    H212418   5.943   0.725   4.374
 4138TIP3   OH212419   1.621   1.580   3.347
 4138TIP3    H112420   1.632   1.672   3.322
 4138TIP3    H212421   1.659   1.531   3.274
 4139TIP3   OH212422   0.570   2.398   4.525
 4139TIP3    H112423   0.474   2.393   4.521
 4139TIP3    H212424   0.588   2.472   4.583
 4140TIP3   OH212425   3.242   1.910   0.043
 4140TIP3    H112426   3.221   1.821   0.016
 4140TIP3    H212427   3.223   1.911   0.137
 4141TIP3   OH212428   4.350   1.781   3.497
 4141TIP3    H112429   4.361   1.860   3.445
 4141TIP3    H212430   4.306   1.719   3.438
 4142TIP3   OH212431   2.516   1.094   4.777
 4142TIP3    H112432   2.561   1.096   4.693
 4142TIP3    H212433   2.425   1.072   4.754
 4143TIP3   OH212434   1.810   3.432   1.178
 4143TIP3    H112435   1.884   3.490   1.156
 4143TIP3    H212436   1.771   3.411   1.094
 4144TIP3   OH212437   4.858   5.986   2.896
 4144TIP3    H112438   4.825   5.972   2.807
 4144TIP3    H212439   4.781   5.977   2.952
 4145TIP3   OH212440   3.683   2.157   5.118
 4145TIP3    H112441   3.672   2.063   5.101
 4145TIP3    H212442   3.599   2.196   5.094
 4146TIP3   OH212443   1.058   4.899   0.478
 4146TIP3    H112444   0.994   4.951   0.428
 4146TIP3    H212445   1.006   4.858   0.547
 4147TIP3   OH212446   1.566   0.286   1.775
 4147TIP3    H112447   1.653   0.248   1.792
 4147TIP3    H212448   1.528   0.297   1.862
 4148TIP3   OH212449   3.890   4.396   2.535
 4148TIP3    H112450   3.931   4.469   2.581
 4148TIP3    H212451   3.800   4.425   2.518
 4149TIP3   OH212452   6.143   3.971   2.166
 4149TIP3    H112453   6.143   3.954   2.072
 4149TIP3    H212454   6.121   3.887   2.206
 4150TIP3   OH212455   0.639   4.865   0.854
 4150TIP3    H112456   0.578   4.840   0.924
 4150TIP3    H212457   0.686   4.784   0.834
 4151TIP3   OH212458   2.125   1.820   1.289
 4151TIP3    H112459   2.122   1.729   1.318
 4151TIP3    H212460   2.070   1.823   1.211
 4152TIP3   OH212461   3.223   3.827   5.006
 4152TIP3    H112462   3.202   3.735   5.022
 4152TIP3    H212463   3.179   3.875   5.076
 4153TIP3   OH212464   4.382   0.408   0.207
 4153TIP3    H112465   4.456   0.453   0.166
 4153TIP3    H212466   4.323   0.478   0.235
 4154TIP3   OH212467   5.185   2.421   1.216
 4154TIP3    H112468   5.172   2.376   1.300
 4154TIP3    H212469   5.097   2.449   1.191
 4155TIP3   OH212470   1.053   3.602   1.956
 4155TIP3    H112471   1.066   3.513   1.988
 4155TIP3    H212472   1.059   3.656   2.035
 4156TIP3   OH212473   5.827   0.139   4.589
 4156TIP3    H112474   5.761   0.169   4.526
 4156TIP3    H212475   5.909   0.173   4.556
 4157TIP3   OH212476   3.255   1.921   0.495
 4157TIP3    H112477   3.228   1.953   0.581
 4157TIP3    H212478   3.347   1.946   0.487
 4158TIP3   OH212479   2.931   5.564   1.748
 4158TIP3    H112480   2.842   5.586   1.719
 4158TIP3    H212481   2.928   5.471   1.770
 4159TIP3   OH212482   2.878   2.156   1.263
 4159TIP3    H112483   2.809   2.112   1.214
 4159TIP3    H212484   2.869   2.248   1.240
 4160TIP3   OH212485   2.301   2.813   1.622
 4160TIP3    H112486   2.282   2.842   1.533
 4160TIP3    H212487   2.366   2.875   1.654
 4161TIP3   OH212488   1.884   0.496   5.137
 4161TIP3    H112489   1.807   0.440   5.126
 4161TIP3    H212490   1.956   0.434   5.151
 4162TIP3   OH212491   1.213   2.456   1.477
 4162TIP3    H112492   1.191   2.377   1.429
 4162TIP3    H212493   1.299   2.482   1.442
 4163TIP3   OH212494   5.025   4.386   3.514
 4163TIP3    H112495   5.040   4.292   3.501
 4163TIP3    H212496   4.932   4.392   3.535
 4164TIP3   OH212497   2.873   4.297   3.436
 4164TIP3    H112498   2.828   4.223   3.394
 4164TIP3    H212499   2.890   4.267   3.525
 4165TIP3   OH212500   3.967   1.663   3.198
 4165TIP3    H112501   3.880   1.697   3.220
 4165TIP3    H212502   3.980   1.689   3.107
 4166TIP3   OH212503   0.713   0.030   4.227
 4166TIP3    H112504   0.775  -0.026   4.274
 4166TIP3    H212505   0.766   0.102   4.192
 4167TIP3   OH212506   2.110   3.579   0.156
 4167TIP3    H112507   2.194   3.572   0.201
 4167TIP3    H212508   2.103   3.497   0.106
 4168TIP3   OH212509   3.002   2.069   0.997
 4168TIP3    H112510   2.916   2.110   0.995
 4168TIP3    H212511   3.057   2.130   1.045
 4169TIP3   OH212512   5.323   3.068   0.715
 4169TIP3    H112513   5.358   3.135   0.775
 4169TIP3    H212514   5.250   3.112   0.670
 4170TIP3   OH212515   2.242   4.200   2.431
 4170TIP3    H112516   2.159   4.193   2.384
 4170TIP3    H212517   2.279   4.112   2.427
 4171TIP3   OH212518   2.090   1.934   0.506
 4171TIP3    H112519   2.166   1.881   0.483
 4171TIP3    H212520   2.025   1.871   0.537
 4172TIP3   OH212521   3.517   0.437   4.382
 4172TIP3    H112522   3.434   0.458   4.424
 4172TIP3    H212523   3.493   0.386   4.305
 4173TIP3   OH212524   3.867   1.994   3.835
 4173TIP3    H112525   3.961   1.976   3.825
 4173TIP3    H212526   3.829   1.910   3.857
 4174TIP3   OH212527   0.135   1.484   5.012
 4174TIP3    H112528   0.218   1.472   4.967
 4174TIP3    H212529   0.079   1.415   4.978
 4175TIP3   OH212530   4.472   4.142   5.017
 4175TIP3    H112531   4.402   4.207   5.031
 4175TIP3    H212532   4.551   4.185   5.048
 4176TIP3   OH212533   5.870   2.553   2.335
 4176TIP3    H112534   5.785   2.545   2.377
 4176TIP3    H212535   5.926   2.492   2.384
 4177TIP3   OH212536   5.038   5.687   2.311
 4177TIP3    H112537   5.002   5.631   2.380
 4177TIP3    H212538   4.967   5.696   2.247
 4178TIP3   OH212539   0.084   2.287   5.159
 4178TIP3    H112540   0.002   2.298   5.111
 4178TIP3    H212541   0.132   2.368   5.143
 4179TIP3   OH212542   0.361   1.157   2.676
 4179TIP3    H112543   0.442   1.205   2.658
 4179TIP3    H212544   0.321   1.203   2.750
 4180TIP3   OH212545   2.381   3.968   4.823
 4180TIP3    H112546   2.295   3.937   4.794
 4180TIP3    H212547   2.392   3.931   4.910
 4181TIP3   OH212548   4.946   0.140   2.616
 4181TIP3    H112549   4.953   0.179   2.529
 4181TIP3    H212550   5.037   0.127   2.643
 4182TIP3   OH212551   0.129   5.241   4.877
 4182TIP3    H112552   0.220   5.216   4.864
 4182TIP3    H212553   0.131   5.337   4.877
 4183TIP3   OH212554   4.425   5.121   4.735
 4183TIP3    H112555   4.396   5.169   4.657
 4183TIP3    H212556   4.498   5.068   4.704
 4184TIP3   OH212557   1.846   1.949   4.801
 4184TIP3    H112558   1.860   2.031   4.753
 4184TIP3    H212559   1.930   1.931   4.843
 4185TIP3   OH212560   5.883   4.362   3.382
 4185TIP3    H112561   5.890   4.365   3.478
 4185TIP3    H212562   5.942   4.431   3.352
 4186TIP3   OH212563   1.612   2.246   4.399
 4186TIP3    H112564   1.613   2.341   4.387
 4186TIP3    H212565   1.535   2.217   4.350
 4187TIP3   OH212566   4.251   0.345   0.583
 4187TIP3    H112567   4.278   0.418   0.527
 4187TIP3    H212568   4.160   0.327   0.558
 4188TIP3   OH212569   6.159   2.800   1.182
 4188TIP3    H112570   6.211   2.767   1.256
 4188TIP3    H212571   6.163   2.730   1.117
 4189TIP3   OH212572   5.111   2.766   0.600
 4189TIP3    H112573   5.142   2.726   0.681
 4189TIP3    H212574   5.082   2.854   0.626
 4190TIP3   OH212575   5.244   3.665   1.135
 4190TIP3    H112576   5.189   3.667   1.056
 4190TIP3    H212577   5.219   3.584   1.179
 4191TIP3   OH212578   2.447   2.653   1.817
 4191TIP3    H112579   2.409   2.683   1.734
 4191TIP3    H212580   2.487   2.569   1.796
 4192TIP3   OH212581   1.525   2.397   3.563
 4192TIP3    H112582   1.439   2.381   3.526
 4192TIP3    H212583   1.514   2.380   3.657
 4193TIP3   OH212584   2.769   1.820   2.718
 4193TIP3    H112585   2.818   1.897   2.688
 4193TIP3    H212586   2.678   1.849   2.721
 4194TIP3   OH212587   3.251   1.113   3.434
 4194TIP3    H112588   3.166   1.130   3.393
 4194TIP3    H212589   3.265   1.188   3.492
 4195TIP3   OH212590   4.324   2.582   1.028
 4195TIP3    H112591   4.236   2.551   1.050
 4195TIP3    H212592   4.345   2.645   1.096
 4196TIP3   OH212593   0.479   1.304   0.195
 4196TIP3    H112594   0.517   1.246   0.129
 4196TIP3    H212595   0.441   1.245   0.260
 4197TIP3   OH212596   5.684   0.682   3.123
 4197TIP3    H112597   5.724   0.718   3.202
 4197TIP3    H212598   5.745   0.704   3.053
 4198TIP3   OH212599   4.884   3.935   2.032
 4198TIP3    H112600   4.815   3.882   2.073
 4198TIP3    H212601   4.848   3.957   1.946
 4199TIP3   OH212602   3.326   3.579   4.096
 4199TIP3    H112603   3.250   3.583   4.154
 4199TIP3    H212604   3.314   3.498   4.046
 4200TIP3   OH212605   4.132   2.271   0.684
 4200TIP3    H112606   4.088   2.272   0.600
 4200TIP3    H212607   4.080   2.329   0.740
 4201TIP3   OH212608   4.783   0.522   4.302
 4201TIP3    H112609   4.845   0.531   4.374
 4201TIP3    H212610   4.711   0.581   4.324
 4202TIP3   OH212611   3.357   5.107   0.805
 4202TIP3    H112612   3.380   5.180   0.747
 4202TIP3    H212613   3.423   5.040   0.786
 4203TIP3   OH212614   6.301   2.026   0.212
 4203TIP3    H112615   6.391   2.034   0.181
 4203TIP3    H212616   6.271   2.117   0.221
 4204TIP3   OH212617   1.771   3.825   0.037
 4204TIP3    H112618   1.741   3.736   0.018
 4204TIP3    H212619   1.722   3.880  -0.024
 4205TIP3   OH212620   4.008   3.481   3.775
 4205TIP3    H112621   3.987   3.559   3.827
 4205TIP3    H212622   3.927   3.431   3.775
 4206TIP3   OH212623   1.486   1.052   0.905
 4206TIP3    H112624   1.438   1.041   0.822
 4206TIP3    H212625   1.566   1.099   0.880
 4207TIP3   OH212626   4.442   3.237   2.841
 4207TIP3    H112627   4.351   3.233   2.873
 4207TIP3    H212628   4.469   3.327   2.859
 4208TIP3   OH212629   0.011   4.801   2.648
 4208TIP3    H112630  -0.004   4.858   2.573
 4208TIP3    H212631   0.030   4.715   2.610
 4209TIP3   OH212632   1.051   5.565   1.834
 4209TIP3    H112633   0.958   5.586   1.845
 4209TIP3    H212634   1.090   5.582   1.920
 4210TIP3   OH212635   1.788   0.563   4.639
 4210TIP3    H112636   1.733   0.522   4.706
 4210TIP3    H212637   1.868   0.510   4.639
 4211TIP3   OH212638   5.556   2.169   1.762
 4211TIP3    H112639   5.492   2.100   1.743
 4211TIP3    H212640   5.510   2.250   1.744
 4212TIP3   OH212641   0.604   0.544   4.065
 4212TIP3    H112642   0.679   0.512   4.015
 4212TIP3    H212643   0.541   0.472   4.064
 4213TIP3   OH212644   1.141   3.018   3.268
 4213TIP3    H112645   1.056   3.053   3.241
 4213TIP3    H212646   1.162   2.952   3.203
 4214TIP3   OH212647   4.362  -0.036   2.448
 4214TIP3    H112648   4.442  -0.058   2.495
 4214TIP3    H212649   4.291  -0.068   2.503
 4215TIP3   OH212650   0.760   2.379   4.089
 4215TIP3    H112651   0.694   2.358   4.023
 4215TIP3    H212652   0.776   2.473   4.077
 4216TIP3   OH212653   4.099   5.822   2.435
 4216TIP3    H112654   4.057   5.904   2.463
 4216TIP3    H212655   4.162   5.802   2.504
 4217TIP3   OH212656   0.461   1.833   0.287
 4217TIP3    H112657   0.467   1.744   0.251
 4217TIP3    H212658   0.470   1.890   0.211
 4218TIP3   OH212659   2.892   0.759   1.588
 4218TIP3    H112660   2.968   0.712   1.553
 4218TIP3    H212661   2.830   0.690   1.611
 4219TIP3   OH212662   1.336   4.313   2.342
 4219TIP3    H112663   1.400   4.384   2.352
 4219TIP3    H212664   1.388   4.237   2.315
 4220TIP3   OH212665   3.311   1.988   3.121
 4220TIP3    H112666   3.220   2.015   3.130
 4220TIP3    H212667   3.311   1.931   3.044
 4221TIP3   OH212668   1.886   3.172   3.188
 4221TIP3    H112669   1.851   3.121   3.262
 4221TIP3    H212670   1.841   3.138   3.111
 4222TIP3   OH212671   4.127   3.840   3.782
 4222TIP3    H112672   4.137   3.907   3.849
 4222TIP3    H212673   4.040   3.803   3.797
 4223TIP3   OH212674   2.161   0.433   4.151
 4223TIP3    H112675   2.124   0.521   4.164
 4223TIP3    H212676   2.248   0.449   4.114
 4224TIP3   OH212677   4.379   0.125   0.060
 4224TIP3    H112678   4.352   0.211   0.092
 4224TIP3    H212679   4.369   0.130  -0.035
 4225TIP3   OH212680   1.222   3.722   0.657
 4225TIP3    H112681   1.271   3.679   0.587
 4225TIP3    H212682   1.216   3.656   0.727
 4226TIP3   OH212683   3.823   4.642   1.588
 4226TIP3    H112684   3.742   4.603   1.621
 4226TIP3    H212685   3.835   4.604   1.501
 4227TIP3   OH212686   1.068   0.409   4.440
 4227TIP3    H112687   1.120   0.408   4.520
 4227TIP3    H212688   1.076   0.320   4.405
 4228TIP3   OH212689   3.678   0.436   3.551
 4228TIP3    H112690   3.600   0.469   3.596
 4228TIP3    H212691   3.717   0.514   3.511
 4229TIP3   OH212692   1.869   2.649   0.502
 4229TIP3    H112693   1.947   2.692   0.537
 4229TIP3    H212694   1.883   2.555   0.519
 4230TIP3   OH212695   3.299   1.412   0.764
 4230TIP3    H112696   3.243   1.383   0.836
 4230TIP3    H212697   3.256   1.489   0.729
 4231TIP3   OH212698   3.195   3.391   3.956
 4231TIP3    H112699   3.224   3.417   3.869
 4231TIP3    H212700   3.103   3.367   3.945
 4232TIP3   OH212701   1.159   2.095   4.000
 4232TIP3    H112702   1.121   2.154   4.065
 4232TIP3    H212703   1.123   2.009   4.022
 4233TIP3   OH212704   4.815   1.213   4.516
 4233TIP3    H112705   4.802   1.285   4.578
 4233TIP3    H212706   4.790   1.250   4.431
 4234TIP3   OH212707   5.636   0.147   1.826
 4234TIP3    H112708   5.709   0.166   1.768
 4234TIP3    H212709   5.675   0.096   1.898
 4235TIP3   OH212710   2.041   2.108   4.650
 4235TIP3    H112711   2.007   2.169   4.584
 4235TIP3    H212712   2.127   2.143   4.673
 4236TIP3   OH212713   4.863   2.890   5.113
 4236TIP3    H112714   4.788   2.941   5.081
 4236TIP3    H212715   4.823   2.818   5.162
 4237TIP3   OH212716   4.823   0.963   3.801
 4237TIP3    H112717   4.766   0.902   3.849
 4237TIP3    H212718   4.804   1.048   3.839
 4238TIP3   OH212719   4.005   0.410   2.314
 4238TIP3    H112720   4.049   0.494   2.329
 4238TIP3    H212721   3.933   0.410   2.376
 4239TIP3   OH212722   5.495   0.866   0.107
 4239TIP3    H112723   5.546   0.941   0.140
 4239TIP3    H212724   5.477   0.888   0.016
 4240TIP3   OH212725   2.797   4.163   1.233
 4240TIP3    H112726   2.710   4.165   1.192
 4240TIP3    H212727   2.849   4.224   1.181
 4241TIP3   OH212728   4.590   3.973   0.346
 4241TIP3    H112729   4.572   3.937   0.259
 4241TIP3    H212730   4.509   4.018   0.372
 4242TIP3   OH212731   0.246   1.309   2.203
 4242TIP3    H112732   0.315   1.265   2.153
 4242TIP3    H212733   0.170   1.251   2.195
 4243TIP3   OH212734   5.447   1.584   4.682
 4243TIP3    H112735   5.434   1.524   4.609
 4243TIP3    H212736   5.528   1.555   4.722
 4244TIP3   OH212737   0.742   5.249   4.551
 4244TIP3    H112738   0.753   5.344   4.565
 4244TIP3    H212739   0.669   5.225   4.609
 4245TIP3   OH212740   5.586   0.433   0.180
 4245TIP3    H112741   5.612   0.445   0.089
 4245TIP3    H212742   5.668   0.435   0.229
 4246TIP3   OH212743   2.810   1.461   0.460
 4246TIP3    H112744   2.797   1.464   0.555
 4246TIP3    H212745   2.721   1.464   0.423
 4247TIP3   OH212746   5.512   2.732   1.199
 4247TIP3    H112747   5.465   2.767   1.275
 4247TIP3    H212748   5.594   2.697   1.235
 4248TIP3   OH212749   2.628   0.282   2.683
 4248TIP3    H112750   2.564   0.279   2.754
 4248TIP3    H212751   2.696   0.342   2.713
 4249TIP3   OH212752   2.117   5.621   4.104
 4249TIP3    H112753   2.175   5.587   4.172
 4249TIP3    H212754   2.099   5.711   4.131
 4250TIP3   OH212755   3.117   0.557   1.720
 4250TIP3    H112756   3.051   0.601   1.774
 4250TIP3    H212757   3.179   0.626   1.697
 4251TIP3   OH212758   5.730   1.215   2.457
 4251TIP3    H112759   5.711   1.305   2.431
 4251TIP3    H212760   5.754   1.171   2.376
 4252TIP3   OH212761   2.226   4.492   0.455
 4252TIP3    H112762   2.148   4.530   0.414
 4252TIP3    H212763   2.295   4.502   0.390
 4253TIP3   OH212764   5.581   1.030   1.581
 4253TIP3    H112765   5.538   0.961   1.631
 4253TIP3    H212766   5.663   1.046   1.626
 4254TIP3   OH212767   3.497   3.638   3.306
 4254TIP3    H112768   3.513   3.557   3.353
 4254TIP3    H212769   3.583   3.680   3.299
 4255TIP3   OH212770   0.262   0.577   3.816
 4255TIP3    H112771   0.234   0.494   3.854
 4255TIP3    H212772   0.309   0.621   3.887
 4256TIP3   OH212773   3.125   4.388   4.280
 4256TIP3    H112774   3.091   4.475   4.300
 4256TIP3    H212775   3.070   4.328   4.330
 4257TIP3   OH212776   3.887   6.010   3.642
 4257TIP3    H112777   3.906   6.026   3.549
 4257TIP3    H212778   3.869   5.916   3.647
 4258TIP3   OH212779   2.667   3.878   4.316
 4258TIP3    H112780   2.690   3.926   4.236
 4258TIP3    H212781   2.751   3.846   4.350
 4259TIP3   OH212782   4.399   5.149   3.108
 4259TIP3    H112783   4.312   5.179   3.137
 4259TIP3    H212784   4.380   5.086   3.039
 4260TIP3   OH212785   2.885   6.047   4.522
 4260TIP3    H112786   2.804   6.093   4.546
 4260TIP3    H212787   2.892   5.976   4.585
 4261TIP3   OH212788   1.281   4.512   0.512
 4261TIP3    H112789   1.293   4.566   0.434
 4261TIP3    H212790   1.296   4.423   0.482
 4262TIP3   OH212791   4.418   4.987   4.435
 4262TIP3    H112792   4.466   4.943   4.365
 4262TIP3    H212793   4.476   5.059   4.462
 4263TIP3   OH212794   3.089   0.789   0.880
 4263TIP3    H112795   3.056   0.710   0.921
 4263TIP3    H212796   3.018   0.817   0.821
 4264TIP3   OH212797   5.341   1.982   4.381
 4264TIP3    H112798   5.317   2.053   4.441
 4264TIP3    H212799   5.288   1.999   4.302
 4265TIP3   OH212800   0.958   5.904   2.904
 4265TIP3    H112801   1.014   5.950   2.967
 4265TIP3    H212802   0.958   5.961   2.827
 4266TIP3   OH212803   4.831   0.984   0.081
 4266TIP3    H112804   4.893   1.049   0.112
 4266TIP3    H212805   4.745   1.025   0.093
 4267TIP3   OH212806  -0.030   1.705   4.626
 4267TIP3    H112807  -0.040   1.749   4.541
 4267TIP3    H212808  -0.061   1.616   4.610
 4268TIP3   OH212809   0.379   1.599   4.136
 4268TIP3    H112810   0.353   1.637   4.053
 4268TIP3    H212811   0.475   1.605   4.137
 4269TIP3   OH212812   5.979   4.526   1.381
 4269TIP3    H112813   5.899   4.558   1.424
 4269TIP3    H212814   6.050   4.574   1.424
 4270TIP3   OH212815   5.762   3.530   3.867
 4270TIP3    H112816   5.684   3.479   3.888
 4270TIP3    H212817   5.771   3.521   3.772
 4271TIP3   OH212818   3.607   2.511   0.973
 4271TIP3    H112819   3.694   2.520   1.011
 4271TIP3    H212820   3.608   2.423   0.934
 4272TIP3   OH212821   0.968   5.639   1.472
 4272TIP3    H112822   1.030   5.606   1.536
 4272TIP3    H212823   0.984   5.734   1.470
 4273TIP3   OH212824   1.749   3.593   2.423
 4273TIP3    H112825   1.765   3.648   2.500
 4273TIP3    H212826   1.771   3.649   2.349
 4274TIP3   OH212827   3.641   2.784   1.804
 4274TIP3    H112828   3.735   2.784   1.821
 4274TIP3    H212829   3.613   2.695   1.826
 4275TIP3   OH212830   4.260   3.149   0.357
 4275TIP3    H112831   4.340   3.185   0.319
 4275TIP3    H212832   4.248   3.065   0.311
 4276TIP3   OH212833   2.844   0.709   4.715
 4276TIP3    H112834   2.812   0.797   4.695
 4276TIP3    H212835   2.937   0.712   4.695
 4277TIP3   OH212836   0.269   2.114   2.099
 4277TIP3    H112837   0.334   2.154   2.157
 4277TIP3    H212838   0.191   2.169   2.108
 4278TIP3   OH212839   0.751   3.916   3.970
 4278TIP3    H112840   0.678   3.889   4.025
 4278TIP3    H212841   0.720   3.902   3.880
 4279TIP3   OH212842   2.982   4.198   4.396
 4279TIP3    H112843   2.997   4.156   4.311
 4279TIP3    H212844   2.890   4.182   4.415
 4280TIP3   OH212845   0.688   4.541   3.897
 4280TIP3    H112846   0.710   4.633   3.912
 4280TIP3    H212847   0.624   4.543   3.826
 4281TIP3   OH212848   3.060   3.132   1.438
 4281TIP3    H112849   3.115   3.076   1.492
 4281TIP3    H212850   3.093   3.119   1.349
 4282TIP3   OH212851   2.588   5.013   4.071
 4282TIP3    H112852   2.557   4.924   4.052
 4282TIP3    H212853   2.682   5.001   4.087
 4283TIP3   OH212854   4.918   5.060   1.487
 4283TIP3    H112855   4.872   5.014   1.417
 4283TIP3    H212856   4.870   5.037   1.566
 4284TIP3   OH212857   2.432   0.574   0.054
 4284TIP3    H112858   2.435   0.484   0.085
 4284TIP3    H212859   2.357   0.613   0.098
 4285TIP3   OH212860   4.140   1.051   1.704
 4285TIP3    H112861   4.141   1.036   1.799
 4285TIP3    H212862   4.186   0.976   1.667
 4286TIP3   OH212863   6.146   3.723   1.608
 4286TIP3    H112864   6.105   3.776   1.540
 4286TIP3    H212865   6.238   3.716   1.581
 4287TIP3   OH212866   4.652   4.596   0.186
 4287TIP3    H112867   4.586   4.528   0.200
 4287TIP3    H212868   4.730   4.549   0.156
 4288TIP3   OH212869   2.763   1.452   2.804
 4288TIP3    H112870   2.755   1.460   2.709
 4288TIP3    H212871   2.682   1.488   2.838
 4289TIP3   OH212872   2.118   1.242   2.065
 4289TIP3    H112873   2.078   1.312   2.013
 4289TIP3    H212874   2.180   1.287   2.122
 4290TIP3   OH212875   1.195   1.872   2.164
 4290TIP3    H112876   1.123   1.868   2.101
 4290TIP3    H212877   1.228   1.782   2.168
 4291TIP3   OH212878   5.397   5.055   0.564
 4291TIP3    H112879   5.323   5.065   0.504
 4291TIP3    H212880   5.434   4.970   0.541
 4292TIP3   OH212881   2.015   0.420   4.635
 4292TIP3    H112882   2.085   0.423   4.700
 4292TIP3    H212883   2.035   0.344   4.581
 4293TIP3   OH212884   4.981   3.087   0.174
 4293TIP3    H112885   5.046   3.107   0.106
 4293TIP3    H212886   4.927   3.018   0.135
 4294TIP3   OH212887   1.793   1.836   4.206
 4294TIP3    H112888   1.793   1.856   4.299
 4294TIP3    H212889   1.880   1.798   4.189
 4295TIP3   OH212890   0.481   2.406   0.743
 4295TIP3    H112891   0.493   2.475   0.678
 4295TIP3    H212892   0.408   2.353   0.709
 4296TIP3   OH212893   5.502   3.565   4.660
 4296TIP3    H112894   5.491   3.477   4.624
 4296TIP3    H212895   5.486   3.556   4.754
 4297TIP3   OH212896   1.765   4.292   4.012
 4297TIP3    H112897   1.721   4.240   4.080
 4297TIP3    H212898   1.703   4.362   3.991
 4298TIP3   OH212899   3.537   1.632   3.230
 4298TIP3    H112900   3.562   1.540   3.242
 4298TIP3    H212901   3.448   1.637   3.265
 4299TIP3   OH212902   6.220   3.645   0.430
 4299TIP3    H112903   6.246   3.674   0.518
 4299TIP3    H212904   6.291   3.674   0.373
 4300TIP3   OH212905   2.064   5.546   1.789
 4300TIP3    H112906   2.138   5.539   1.728
 4300TIP3    H212907   1.988   5.519   1.738
 4301TIP3   OH212908   2.115   0.759   2.094
 4301TIP3    H112909   2.089   0.836   2.043
 4301TIP3    H212910   2.050   0.754   2.163
 4302TIP3   OH212911   2.252   5.436   0.531
 4302TIP3    H112912   2.172   5.420   0.481
 4302TIP3    H212913   2.299   5.503   0.480
 4303TIP3   OH212914   1.525   3.072   0.476
 4303TIP3    H112915   1.459   3.010   0.507
 4303TIP3    H212916   1.584   3.084   0.550
 4304TIP3   OH212917   3.059   0.228   5.191
 4304TIP3    H112918   3.098   0.315   5.187
 4304TIP3    H212919   3.028   0.212   5.102
 4305TIP3   OH212920   6.102   5.580   1.482
 4305TIP3    H112921   6.013   5.560   1.508
 4305TIP3    H212922   6.149   5.594   1.564
 4306TIP3   OH212923   1.752   2.240   2.346
 4306TIP3    H112924   1.708   2.183   2.284
 4306TIP3    H212925   1.682   2.277   2.400
 4307TIP3   OH212926   4.923   0.701   4.139
 4307TIP3    H112927   4.871   0.634   4.185
 4307TIP3    H212928   4.897   0.783   4.179
 4308TIP3   OH212929   1.776   3.090   3.668
 4308TIP3    H112930   1.717   3.034   3.718
 4308TIP3    H212931   1.835   3.030   3.623
 4309TIP3   OH212932   3.094   2.231   3.358
 4309TIP3    H112933   3.067   2.296   3.294
 4309TIP3    H212934   3.095   2.149   3.310
 4310TIP3   OH212935   5.971   4.402   0.635
 4310TIP3    H112936   6.024   4.370   0.562
 4310TIP3    H212937   5.945   4.323   0.682
 4311TIP3   OH212938   3.358   5.540   1.099
 4311TIP3    H112939   3.434   5.522   1.155
 4311TIP3    H212940   3.294   5.474   1.124
 4312TIP3   OH212941   5.474   4.344   3.039
 4312TIP3    H112942   5.514   4.383   2.961
 4312TIP3    H212943   5.403   4.290   3.006
 4313TIP3   OH212944   0.850   1.507   1.155
 4313TIP3    H112945   0.803   1.576   1.201
 4313TIP3    H212946   0.865   1.541   1.067
 4314TIP3   OH212947   1.860   4.903   1.216
 4314TIP3    H112948   1.805   4.857   1.153
 4314TIP3    H212949   1.946   4.863   1.206
 4315TIP3   OH212950   4.706   3.288   4.223
 4315TIP3    H112951   4.642   3.359   4.226
 4315TIP3    H212952   4.655   3.209   4.205
 4316TIP3   OH212953   2.970   0.553   0.946
 4316TIP3    H112954   2.979   0.462   0.917
 4316TIP3    H212955   2.897   0.587   0.895
 4317TIP3   OH212956   5.861   2.375   3.916
 4317TIP3    H112957   5.874   2.451   3.974
 4317TIP3    H212958   5.768   2.354   3.925
 4318TIP3   OH212959   2.782   4.962   3.474
 4318TIP3    H112960   2.782   4.923   3.387
 4318TIP3    H212961   2.739   4.897   3.530
 4319TIP3   OH212962   4.772   3.832   2.835
 4319TIP3    H112963   4.817   3.873   2.761
 4319TIP3    H212964   4.682   3.820   2.804
 4320TIP3   OH212965   2.901   5.966   2.373
 4320TIP3    H112966   2.828   5.903   2.364
 4320TIP3    H212967   2.867   6.047   2.335
 4321TIP3   OH212968   1.739   5.640   3.600
 4321TIP3    H112969   1.716   5.565   3.545
 4321TIP3    H212970   1.658   5.690   3.606
 4322TIP3   OH212971   5.799   4.860   4.870
 4322TIP3    H112972   5.790   4.873   4.964
 4322TIP3    H212973   5.867   4.921   4.843
 4323TIP3   OH212974   3.545   2.421   0.400
 4323TIP3    H112975   3.497   2.343   0.429
 4323TIP3    H212976   3.489   2.494   0.423
 4324TIP3   OH212977   4.587   3.183   1.604
 4324TIP3    H112978   4.548   3.151   1.685
 4324TIP3    H212979   4.565   3.276   1.600
 4325TIP3   OH212980   5.459   2.461   0.186
 4325TIP3    H112981   5.517   2.536   0.200
 4325TIP3    H212982   5.497   2.414   0.112
 4326TIP3   OH212983   1.410   5.527   1.612
 4326TIP3    H112984   1.461   5.598   1.650
 4326TIP3    H212985   1.330   5.569   1.579
 4327TIP3   OH212986   3.883   5.030   2.676
 4327TIP3    H112987   3.955   4.972   2.653
 4327TIP3    H212988   3.835   5.043   2.594
 4328TIP3   OH212989   3.616   5.032   3.132
 4328TIP3    H112990   3.617   5.104   3.195
 4328TIP3    H212991   3.575   5.069   3.054
 4329TIP3   OH212992   2.608   5.462   2.183
 4329TIP3    H112993   2.700   5.451   2.206
 4329TIP3    H212994   2.573   5.518   2.252
 4330TIP3   OH212995   1.434   0.543   4.878
 4330TIP3    H112996   1.410   0.562   4.969
 4330TIP3    H212997   1.455   0.629   4.840
 4331TIP3   OH212998   0.872   4.588   4.131
 4331TIP3    H112999   0.906   4.635   4.207
 4331TIP3    H213000   0.777   4.594   4.140
 4332TIP3   OH213001   1.487   1.055   4.054
 4332TIP3    H113002   1.536   1.007   4.121
 4332TIP3    H213003   1.436   0.987   4.010
 4333TIP3   OH213004   0.877   0.239   4.137
 4333TIP3    H113005   0.844   0.247   4.048
 4333TIP3    H213006   0.969   0.266   4.131
 4334TIP3   OH213007   4.697   3.178   2.690
 4334TIP3    H113008   4.606   3.203   2.705
 4334TIP3    H213009   4.740   3.189   2.774
 4335TIP3   OH213010   4.465   4.008   3.972
 4335TIP3    H113011   4.420   4.064   3.908
 4335TIP3    H213012   4.445   3.919   3.944
 4336TIP3   OH213013   6.159   2.692   0.350
 4336TIP3    H113014   6.191   2.777   0.380
 4336TIP3    H213015   6.200   2.628   0.409
 4337TIP3   OH213016   4.507   2.331   1.887
 4337TIP3    H113017   4.599   2.311   1.905
 4337TIP3    H213018   4.458   2.284   1.954
 4338TIP3   OH213019   5.191   2.375   0.252
 4338TIP3    H113020   5.162   2.426   0.328
 4338TIP3    H213021   5.274   2.414   0.227
 4339TIP3   OH213022   3.772   3.336   2.583
 4339TIP3    H113023   3.850   3.341   2.527
 4339TIP3    H213024   3.805   3.354   2.671
 4340TIP3   OH213025   4.162   4.248   4.369
 4340TIP3    H113026   4.217   4.208   4.301
 4340TIP3    H213027   4.220   4.309   4.414
 4341TIP3   OH213028   3.691   5.620   4.237
 4341TIP3    H113029   3.625   5.587   4.298
 4341TIP3    H213030   3.767   5.638   4.292
 4342TIP3   OH213031   5.268   5.621   0.974
 4342TIP3    H113032   5.207   5.623   0.901
 4342TIP3    H213033   5.332   5.553   0.950
 4343TIP3   OH213034   3.930   0.388   4.002
 4343TIP3    H113035   3.972   0.304   4.023
 4343TIP3    H213036   3.940   0.440   4.082
 4344TIP3   OH213037   1.461   2.580   5.009
 4344TIP3    H113038   1.493   2.538   5.089
 4344TIP3    H213039   1.371   2.547   4.999
 4345TIP3   OH213040   5.068   1.282   1.249
 4345TIP3    H113041   4.994   1.231   1.216
 4345TIP3    H213042   5.027   1.351   1.302
 4346TIP3   OH213043   2.594   3.831   1.828
 4346TIP3    H113044   2.619   3.902   1.888
 4346TIP3    H213045   2.648   3.847   1.750
 4347TIP3   OH213046   0.030   3.563   3.914
 4347TIP3    H113047  -0.023   3.511   3.853
 4347TIP3    H213048   0.120   3.535   3.897
 4348TIP3   OH213049   5.184   2.457   3.573
 4348TIP3    H113050   5.263   2.454   3.627
 4348TIP3    H213051   5.114   2.426   3.631
 4349TIP3   OH213052   0.696   2.677   3.588
 4349TIP3    H113053   0.635   2.750   3.581
 4349TIP3    H213054   0.694   2.635   3.502
 4350TIP3   OH213055   4.641   5.741   1.159
 4350TIP3    H113056   4.688   5.815   1.121
 4350TIP3    H213057   4.552   5.774   1.174
 4351TIP3   OH213058   5.316   5.602   2.234
 4351TIP3    H113059   5.264   5.577   2.158
 4351TIP3    H213060   5.252   5.625   2.301
 4352TIP3   OH213061   3.655   4.320   2.162
 4352TIP3    H113062   3.720   4.302   2.095
 4352TIP3    H213063   3.674   4.256   2.231
 4353TIP3   OH213064   2.468   5.090   0.401
 4353TIP3    H113065   2.516   5.026   0.348
 4353TIP3    H213066   2.405   5.129   0.340
 4354TIP3   OH213067   2.115   4.796   0.465
 4354TIP3    H113068   2.202   4.765   0.491
 4354TIP3    H213069   2.114   4.888   0.490
 4355TIP3   OH213070   1.518   4.111   2.209
 4355TIP3    H113071   1.491   4.026   2.246
 4355TIP3    H213072   1.503   4.102   2.115
 4356TIP3   OH213073   2.912   4.715   0.720
 4356TIP3    H113074   2.825   4.736   0.687
 4356TIP3    H213075   2.960   4.798   0.715
 4357TIP3   OH213076   4.902   0.764   1.889
 4357TIP3    H113077   4.822   0.750   1.940
 4357TIP3    H213078   4.961   0.695   1.918
 4358TIP3   OH213079   0.458   0.750   3.109
 4358TIP3    H113080   0.412   0.685   3.162
 4358TIP3    H213081   0.411   0.832   3.127
 4359TIP3   OH213082   1.713   4.685   4.386
 4359TIP3    H113083   1.695   4.597   4.417
 4359TIP3    H213084   1.758   4.727   4.460
 4360TIP3   OH213085   4.837   4.822   2.131
 4360TIP3    H113086   4.768   4.768   2.092
 4360TIP3    H213087   4.910   4.762   2.143
 4361TIP3   OH213088   5.854   5.923   3.984
 4361TIP3    H113089   5.823   5.844   3.940
 4361TIP3    H213090   5.865   5.987   3.914
 4362TIP3   OH213091   2.423   1.697   4.950
 4362TIP3    H113092   2.397   1.716   5.040
 4362TIP3    H213093   2.466   1.612   4.954
 4363TIP3   OH213094   6.120   2.764   0.071
 4363TIP3    H113095   6.151   2.688   0.021
 4363TIP3    H213096   6.126   2.736   0.162
 4364TIP3   OH213097   3.451   5.325   4.093
 4364TIP3    H113098   3.400   5.290   4.020
 4364TIP3    H213099   3.507   5.391   4.052
 4365TIP3   OH213100   1.290   5.173   4.737
 4365TIP3    H113101   1.374   5.220   4.737
 4365TIP3    H213102   1.287   5.128   4.653
 4366TIP3   OH213103   0.542   1.230   4.177
 4366TIP3    H113104   0.584   1.155   4.219
 4366TIP3    H213105   0.611   1.271   4.125
 4367TIP3   OH213106   5.612   5.254   5.000
 4367TIP3    H113107   5.706   5.241   5.013
 4367TIP3    H213108   5.575   5.252   5.089
 4368TIP3   OH213109   2.849   2.800   4.035
 4368TIP3    H113110   2.869   2.721   4.084
 4368TIP3    H213111   2.882   2.871   4.090
 4369TIP3   OH213112   3.689   5.105   0.223
 4369TIP3    H113113   3.695   5.043   0.296
 4369TIP3    H213114   3.773   5.150   0.222
 4370TIP3   OH213115   3.767   2.593   5.123
 4370TIP3    H113116   3.755   2.676   5.077
 4370TIP3    H213117   3.790   2.531   5.054
 4371TIP3   OH213118   2.554   0.544   3.191
 4371TIP3    H113119   2.511   0.473   3.238
 4371TIP3    H213120   2.509   0.623   3.220
 4372TIP3   OH213121   0.541   2.854   4.298
 4372TIP3    H113122   0.633   2.842   4.319
 4372TIP3    H213123   0.497   2.854   4.383
 4373TIP3   OH213124   0.799   0.966   2.878
 4373TIP3    H113125   0.865   1.030   2.855
 4373TIP3    H213126   0.720   1.017   2.895
 4374TIP3   OH213127   5.497   4.908   4.011
 4374TIP3    H113128   5.405   4.879   4.018
 4374TIP3    H213129   5.546   4.826   3.999
 4375TIP3   OH213130   1.309   3.170   3.412
 4375TIP3    H113131   1.266   3.102   3.360
 4375TIP3    H213132   1.326   3.128   3.496
 4376TIP3   OH213133   0.691   5.927   1.405
 4376TIP3    H113134   0.707   6.000   1.345
 4376TIP3    H213135   0.774   5.917   1.452
 4377TIP3   OH213136   4.674   1.193   2.081
 4377TIP3    H113137   4.753   1.193   2.028
 4377TIP3    H213138   4.626   1.115   2.053
 4378TIP3   OH213139   3.862   3.371   2.821
 4378TIP3    H113140   3.845   3.395   2.912
 4378TIP3    H213141   3.958   3.366   2.814
 4379TIP3   OH213142   2.086   1.864   4.887
 4379TIP3    H113143   2.122   1.777   4.901
 4379TIP3    H213144   2.161   1.923   4.899
 4380TIP3   OH213145   2.141   3.844   4.751
 4380TIP3    H113146   2.072   3.778   4.742
 4380TIP3    H213147   2.134   3.896   4.671
 4381TIP3   OH213148   3.299   4.601   0.214
 4381TIP3    H113149   3.255   4.686   0.221
 4381TIP3    H213150   3.242   4.540   0.260
 4382TIP3   OH213151   1.194   3.764   0.998
 4382TIP3    H113152   1.273   3.714   0.979
 4382TIP3    H213153   1.127   3.698   1.014
 4383TIP3   OH213154   1.102   0.589   4.007
 4383TIP3    H113155   1.135   0.557   4.091
 4383TIP3    H213156   1.178   0.585   3.949
 4384TIP3   OH213157   2.430   5.257   0.600
 4384TIP3    H113158   2.370   5.319   0.558
 4384TIP3    H213159   2.462   5.202   0.529
 4385TIP3   OH213160   4.317   4.193   0.119
 4385TIP3    H113161   4.290   4.248   0.045
 4385TIP3    H213162   4.410   4.176   0.102
 4386TIP3   OH213163   4.204   0.353   2.135
 4386TIP3    H113164   4.139   0.374   2.202
 4386TIP3    H213165   4.264   0.292   2.178
 4387TIP3   OH213166   4.337   1.851   4.176
 4387TIP3    H113167   4.342   1.756   4.164
 4387TIP3    H213168   4.419   1.884   4.139
 4388TIP3   OH213169   5.108   3.219   0.986
 4388TIP3    H113170   5.093   3.278   0.912
 4388TIP3    H213171   5.031   3.230   1.041
 4389TIP3   OH213172   5.066   5.031  -0.024
 4389TIP3    H113173   5.072   5.012   0.069
 4389TIP3    H213174   5.147   4.996  -0.061
 4390TIP3   OH213175   0.783   5.536   5.074
 4390TIP3    H113176   0.713   5.470   5.073
 4390TIP3    H213177   0.863   5.487   5.056
 4391TIP3   OH213178   6.283   4.336   3.544
 4391TIP3    H113179   6.348   4.380   3.489
 4391TIP3    H213180   6.221   4.405   3.567
 4392TIP3   OH213181   2.871   3.328   4.199
 4392TIP3    H113182   2.845   3.270   4.270
 4392TIP3    H213183   2.796   3.386   4.186
 4393TIP3   OH213184   4.303   1.214   2.924
 4393TIP3    H113185   4.300   1.169   2.839
 4393TIP3    H213186   4.247   1.290   2.912
 4394TIP3   OH213187   6.038   2.850   2.453
 4394TIP3    H113188   5.963   2.882   2.404
 4394TIP3    H213189   6.102   2.826   2.386
 4395TIP3   OH213190   0.445   4.458   1.894
 4395TIP3    H113191   0.469   4.540   1.936
 4395TIP3    H213192   0.520   4.401   1.910
 4396TIP3   OH213193   0.257   4.827   2.185
 4396TIP3    H113194   0.243   4.747   2.134
 4396TIP3    H213195   0.174   4.874   2.180
 4397TIP3   OH213196   5.293   4.585   0.038
 4397TIP3    H113197   5.289   4.553   0.128
 4397TIP3    H213198   5.386   4.583   0.015
 4398TIP3   OH213199   2.908   0.088   4.993
 4398TIP3    H113200   2.980   0.051   4.942
 4398TIP3    H213201   2.845   0.016   5.001
 4399TIP3   OH213202   1.869   4.802   3.401
 4399TIP3    H113203   1.926   4.814   3.477
 4399TIP3    H213204   1.929   4.789   3.328
 4400TIP3   OH213205   2.780   2.807   4.785
 4400TIP3    H113206   2.776   2.847   4.698
 4400TIP3    H213207   2.806   2.717   4.768
 4401TIP3   OH213208   4.462   2.414   4.736
 4401TIP3    H113209   4.419   2.364   4.666
 4401TIP3    H213210   4.422   2.380   4.816
 4402TIP3   OH213211   4.202   2.294   2.958
 4402TIP3    H113212   4.282   2.346   2.948
 4402TIP3    H213213   4.222   2.230   3.026
 4403TIP3   OH213214   3.816   5.421   0.226
 4403TIP3    H113215   3.870   5.348   0.199
 4403TIP3    H213216   3.869   5.499   0.206
 4404TIP3   OH213217   0.116   2.654   1.405
 4404TIP3    H113218   0.021   2.644   1.403
 4404TIP3    H213219   0.144   2.604   1.482
 4405TIP3   OH213220   3.586   4.635   3.840
 4405TIP3    H113221   3.514   4.671   3.788
 4405TIP3    H213222   3.575   4.540   3.834
 4406TIP3   OH213223   2.573   1.254  -0.002
 4406TIP3    H113224   2.624   1.200   0.058
 4406TIP3    H213225   2.633   1.273  -0.074
 4407TIP3   OH213226   3.685   2.686   2.916
 4407TIP3    H113227   3.660   2.753   2.980
 4407TIP3    H213228   3.625   2.613   2.933
 4408TIP3   OH213229   4.388   4.083   4.214
 4408TIP3    H113230   4.378   4.018   4.145
 4408TIP3    H213231   4.456   4.142   4.183
 4409TIP3   OH213232   0.575   3.880   0.808
 4409TIP3    H113233   0.543   3.894   0.719
 4409TIP3    H213234   0.495   3.866   0.860
 4410TIP3   OH213235   3.287   2.054   2.071
 4410TIP3    H113236   3.319   1.964   2.077
 4410TIP3    H213237   3.210   2.056   2.128
 4411TIP3   OH213238   5.755   2.646   4.944
 4411TIP3    H113239   5.698   2.589   4.893
 4411TIP3    H213240   5.829   2.591   4.969
 4412TIP3   OH213241   5.410   3.674   3.878
 4412TIP3    H113242   5.434   3.584   3.897
 4412TIP3    H213243   5.366   3.705   3.957
 4413TIP3   OH213244   5.412   0.127   1.410
 4413TIP3    H113245   5.345   0.095   1.349
 4413TIP3    H213246   5.363   0.180   1.473
 4414TIP3   OH213247   2.888   4.107   4.157
 4414TIP3    H113248   2.872   4.117   4.063
 4414TIP3    H213249   2.832   4.172   4.199
 4415TIP3   OH213250   2.819   2.445   3.485
 4415TIP3    H113251   2.816   2.522   3.429
 4415TIP3    H213252   2.905   2.448   3.526
 4416TIP3   OH213253   4.904   5.902   2.609
 4416TIP3    H113254   4.869   5.814   2.620
 4416TIP3    H213255   4.926   5.907   2.516
 4417TIP3   OH213256   0.961   3.644   0.678
 4417TIP3    H113257   1.050   3.679   0.678
 4417TIP3    H213258   0.912   3.704   0.735
 4418TIP3   OH213259   4.027   4.366   3.364
 4418TIP3    H113260   4.042   4.436   3.300
 4418TIP3    H213261   4.114   4.332   3.383
 4419TIP3   OH213262   5.163   0.905   4.978
 4419TIP3    H113263   5.204   0.819   4.983
 4419TIP3    H213264   5.212   0.958   5.042
 4420TIP3   OH213265   0.443   1.302   1.989
 4420TIP3    H113266   0.375   1.297   1.922
 4420TIP3    H213267   0.499   1.374   1.960
 4421TIP3   OH213268   1.176   3.971   4.292
 4421TIP3    H113269   1.233   3.950   4.366
 4421TIP3    H213270   1.089   3.983   4.331
 4422TIP3   OH213271   1.070   3.642   3.680
 4422TIP3    H113272   1.035   3.604   3.600
 4422TIP3    H213273   1.131   3.576   3.714
 4423TIP3   OH213274   5.344   3.533   0.820
 4423TIP3    H113275   5.369   3.618   0.857
 4423TIP3    H213276   5.248   3.538   0.814
 4424TIP3   OH213277   1.794   5.460   4.691
 4424TIP3    H113278   1.880   5.498   4.711
 4424TIP3    H213279   1.763   5.427   4.776
 4425TIP3   OH213280   4.897   3.380   1.466
 4425TIP3    H113281   4.990   3.403   1.463
 4425TIP3    H213282   4.889   3.326   1.545
 4426TIP3   OH213283   4.432   5.754   1.574
 4426TIP3    H113284   4.489   5.678   1.586
 4426TIP3    H213285   4.351   5.718   1.536
 4427TIP3   OH213286   3.082   2.817   2.053
 4427TIP3    H113287   3.160   2.855   2.093
 4427TIP3    H213288   3.043   2.889   2.004
 4428TIP3   OH213289   1.877   1.312   4.508
 4428TIP3    H113290   1.791   1.341   4.538
 4428TIP3    H213291   1.939   1.361   4.563
 4429TIP3   OH213292   1.004   5.793   3.789
 4429TIP3    H113293   0.930   5.854   3.792
 4429TIP3    H213294   1.074   5.839   3.836
 4430TIP3   OH213295   1.012   3.915   4.052
 4430TIP3    H113296   1.024   3.931   4.145
 4430TIP3    H213297   0.919   3.896   4.042
 4431TIP3   OH213298   1.415   0.015   4.135
 4431TIP3    H113299   1.325   0.021   4.103
 4431TIP3    H213300   1.467  -0.005   4.057
 4432TIP3   OH213301   2.657   1.757   3.690
 4432TIP3    H113302   2.667   1.749   3.596
 4432TIP3    H213303   2.572   1.800   3.702
 4433TIP3   OH213304   5.474   4.369   0.562
 4433TIP3    H113305   5.525   4.291   0.539
 4433TIP3    H213306   5.539   4.434   0.587
 4434TIP3   OH213307   5.387   5.430   1.896
 4434TIP3    H113308   5.438   5.509   1.880
 4434TIP3    H213309   5.310   5.461   1.944
 4435TIP3   OH213310   1.750   4.136   3.320
 4435TIP3    H113311   1.845   4.152   3.314
 4435TIP3    H213312   1.736   4.108   3.410
 4436TIP3   OH213313   2.068   1.346   0.582
 4436TIP3    H113314   2.091   1.433   0.550
 4436TIP3    H213315   2.032   1.361   0.670
 4437TIP3   OH213316   3.217   2.741   0.165
 4437TIP3    H113317   3.187   2.832   0.167
 4437TIP3    H213318   3.296   2.742   0.111
 4438TIP3   OH213319   5.826   5.168   0.515
 4438TIP3    H113320   5.746   5.212   0.543
 4438TIP3    H213321   5.803   5.126   0.433
 4439TIP3   OH213322   2.351   5.958   1.618
 4439TIP3    H113323   2.358   5.958   1.713
 4439TIP3    H213324   2.441   5.964   1.587
 4440TIP3   OH213325   0.197   2.235   0.244
 4440TIP3    H113326   0.256   2.279   0.307
 4440TIP3    H213327   0.164   2.306   0.189
 4441TIP3   OH213328   2.446   1.738   0.730
 4441TIP3    H113329   2.490   1.758   0.647
 4441TIP3    H213330   2.506   1.770   0.797
 4442TIP3   OH213331   1.043   5.828   3.488
 4442TIP3    H113332   1.115   5.874   3.445
 4442TIP3    H213333   1.055   5.846   3.581
 4443TIP3   OH213334   1.364   0.796   3.966
 4443TIP3    H113335   1.277   0.810   3.930
 4443TIP3    H213336   1.383   0.704   3.947
 4444TIP3   OH213337   1.859   1.737   4.588
 4444TIP3    H113338   1.830   1.825   4.612
 4444TIP3    H213339   1.842   1.684   4.666
 4445TIP3   OH213340   5.731   1.959   3.415
 4445TIP3    H113341   5.644   1.938   3.448
 4445TIP3    H213342   5.783   1.880   3.430
 4446TIP3   OH213343   4.513   1.059   0.322
 4446TIP3    H113344   4.561   1.123   0.270
 4446TIP3    H213345   4.576   0.988   0.336
 4447TIP3   OH213346   3.200   4.480   4.656
 4447TIP3    H113347   3.188   4.554   4.596
 4447TIP3    H213348   3.235   4.410   4.601
 4448TIP3   OH213349   2.844   5.815   0.795
 4448TIP3    H113350   2.825   5.803   0.888
 4448TIP3    H213351   2.850   5.727   0.759
 4449TIP3   OH213352   2.522   0.634   1.041
 4449TIP3    H113353   2.505   0.552   0.995
 4449TIP3    H213354   2.592   0.613   1.103
 4450TIP3   OH213355   4.972   2.148   4.518
 4450TIP3    H113356   4.916   2.072   4.502
 4450TIP3    H213357   4.911   2.220   4.534
 4451TIP3   OH213358   1.176   0.432   0.714
 4451TIP3    H113359   1.243   0.499   0.728
 4451TIP3    H213360   1.200   0.361   0.774
 4452TIP3   OH213361   1.581   0.258   3.455
 4452TIP3    H113362   1.549   0.330   3.509
 4452TIP3    H213363   1.668   0.239   3.490
 4453TIP3   OH213364   3.308   5.476   0.525
 4453TIP3    H113365   3.344   5.458   0.612
 4453TIP3    H213366   3.338   5.403   0.471
 4454TIP3   OH213367   1.139   2.391   3.895
 4454TIP3    H113368   1.098   2.356   3.974
 4454TIP3    H213369   1.109   2.333   3.825
 4455TIP3   OH213370   1.748   2.877   0.667
 4455TIP3    H113371   1.704   2.841   0.590
 4455TIP3    H213372   1.831   2.830   0.672
 4456TIP3   OH213373   6.318   0.971   5.067
 4456TIP3    H113374   6.274   0.916   5.002
 4456TIP3    H213375   6.312   0.921   5.149
 4457TIP3   OH213376   4.045   0.605   4.446
 4457TIP3    H113377   4.024   0.687   4.491
 4457TIP3    H213378   4.124   0.573   4.491
 4458TIP3   OH213379   4.596   4.384   1.697
 4458TIP3    H113380   4.670   4.328   1.721
 4458TIP3    H213381   4.601   4.391   1.602
 4459TIP3   OH213382   2.821   0.486   3.134
 4459TIP3    H113383   2.870   0.453   3.209
 4459TIP3    H213384   2.734   0.505   3.169
 4460TIP3   OH213385   0.784   1.063   3.382
 4460TIP3    H113386   0.750   0.999   3.319
 4460TIP3    H213387   0.721   1.135   3.380
 4461TIP3   OH213388   6.315   3.191   0.598
 4461TIP3    H113389   6.222   3.209   0.587
 4461TIP3    H213390   6.319   3.131   0.672
 4462TIP3   OH213391   5.906   1.628   3.288
 4462TIP3    H113392   5.925   1.547   3.335
 4462TIP3    H213393   5.900   1.602   3.196
 4463TIP3   OH213394   5.178   1.374   3.531
 4463TIP3    H113395   5.118   1.321   3.480
 4463TIP3    H213396   5.188   1.326   3.613
 4464TIP3   OH213397   3.486   3.621   0.609
 4464TIP3    H113398   3.523   3.691   0.663
 4464TIP3    H213399   3.469   3.663   0.524
 4465TIP3   OH213400   5.951   2.246   1.382
 4465TIP3    H113401   6.044   2.261   1.365
 4465TIP3    H213402   5.938   2.276   1.471
 4466TIP3   OH213403   5.868   2.679   2.618
 4466TIP3    H113404   5.798   2.632   2.572
 4466TIP3    H213405   5.907   2.735   2.551
 4467TIP3   OH213406   4.771   4.673   4.468
 4467TIP3    H113407   4.740   4.630   4.388
 4467TIP3    H213408   4.713   4.639   4.537
 4468TIP3   OH213409   3.606   0.112   4.419
 4468TIP3    H113410   3.544   0.088   4.487
 4468TIP3    H213411   3.561   0.179   4.368
 4469TIP3   OH213412   5.714   5.312   1.767
 4469TIP3    H113413   5.682   5.337   1.680
 4469TIP3    H213414   5.798   5.356   1.775
 4470TIP3   OH213415   5.409   0.041   0.968
 4470TIP3    H113416   5.373   0.058   0.880
 4470TIP3    H213417   5.389  -0.051   0.984
 4471TIP3   OH213418   4.963   4.962   4.460
 4471TIP3    H113419   5.044   4.965   4.510
 4471TIP3    H213420   4.932   4.872   4.468
 4472TIP3   OH213421   2.687   2.755   4.384
 4472TIP3    H113422   2.637   2.708   4.316
 4472TIP3    H213423   2.742   2.687   4.424
 4473TIP3   OH213424   6.076   4.847   0.777
 4473TIP3    H113425   6.083   4.754   0.755
 4473TIP3    H213426   5.998   4.853   0.831
 4474TIP3   OH213427   2.166   5.111   3.290
 4474TIP3    H113428   2.183   5.184   3.230
 4474TIP3    H213429   2.248   5.062   3.291
 4475TIP3   OH213430   3.120   5.234   4.143
 4475TIP3    H113431   3.198   5.248   4.196
 4475TIP3    H213432   3.047   5.249   4.204
 4476TIP3   OH213433   1.652   4.634   1.238
 4476TIP3    H113434   1.689   4.623   1.326
 4476TIP3    H213435   1.582   4.698   1.250
 4477TIP3   OH213436   3.206   1.636   3.100
 4477TIP3    H113437   3.135   1.611   3.159
 4477TIP3    H213438   3.220   1.559   3.045
 4478TIP3   OH213439   4.074   4.843   0.087
 4478TIP3    H113440   4.023   4.893   0.024
 4478TIP3    H213441   4.155   4.894   0.097
 4479TIP3   OH213442   2.547   1.457   4.946
 4479TIP3    H113443   2.593   1.374   4.955
 4479TIP3    H213444   2.590   1.500   4.872
 4480TIP3   OH213445   0.159   3.178   1.134
 4480TIP3    H113446   0.117   3.093   1.118
 4480TIP3    H213447   0.140   3.230   1.056
 4481TIP3   OH213448   2.317   4.123   2.067
 4481TIP3    H113449   2.305   4.035   2.033
 4481TIP3    H213450   2.411   4.138   2.065
 4482TIP3   OH213451   5.043   4.672   4.484
 4482TIP3    H113452   4.951   4.649   4.496
 4482TIP3    H213453   5.063   4.645   4.394
 4483TIP3   OH213454   5.804   2.254   4.653
 4483TIP3    H113455   5.745   2.209   4.592
 4483TIP3    H213456   5.796   2.347   4.629
 4484TIP3   OH213457   4.984   0.585   2.890
 4484TIP3    H113458   4.967   0.624   2.804
 4484TIP3    H213459   5.059   0.527   2.875
 4485TIP3   OH213460   5.192   5.614   2.628
 4485TIP3    H113461   5.254   5.546   2.601
 4485TIP3    H213462   5.122   5.611   2.563
 4486TIP3   OH213463   3.542   4.786   2.471
 4486TIP3    H113464   3.616   4.814   2.417
 4486TIP3    H213465   3.529   4.858   2.533
 4487TIP3   OH213466   1.621   2.510   4.338
 4487TIP3    H113467   1.624   2.551   4.424
 4487TIP3    H213468   1.660   2.575   4.279
 4488TIP3   OH213469   5.990   3.293   0.885
 4488TIP3    H113470   6.031   3.232   0.824
 4488TIP3    H213471   5.897   3.268   0.885
 4489TIP3   OH213472   5.561   1.779   5.059
 4489TIP3    H113473   5.654   1.782   5.033
 4489TIP3    H213474   5.555   1.843   5.130
 4490TIP3   OH213475   5.433   1.800   2.569
 4490TIP3    H113476   5.415   1.824   2.660
 4490TIP3    H213477   5.529   1.801   2.563
 4491TIP3   OH213478   4.569   2.683   5.084
 4491TIP3    H113479   4.512   2.607   5.093
 4491TIP3    H213480   4.658   2.648   5.088
 4492TIP3   OH213481   0.552   4.242   4.522
 4492TIP3    H113482   0.465   4.270   4.550
 4492TIP3    H213483   0.557   4.149   4.546
 4493TIP3   OH213484   1.351   3.984   0.323
 4493TIP3    H113485   1.418   3.946   0.266
 4493TIP3    H213486   1.390   3.981   0.410
 4494TIP3   OH213487   3.070   1.999   4.364
 4494TIP3    H113488   3.111   1.912   4.354
 4494TIP3    H213489   3.144   2.060   4.364
 4495TIP3   OH213490   3.721   5.091   1.084
 4495TIP3    H113491   3.717   5.064   0.993
 4495TIP3    H213492   3.636   5.134   1.100
 4496TIP3   OH213493   5.305   5.607   4.493
 4496TIP3    H113494   5.285   5.537   4.430
 4496TIP3    H213495   5.369   5.567   4.552
 4497TIP3   OH213496   1.239   3.817   1.354
 4497TIP3    H113497   1.154   3.812   1.309
 4497TIP3    H213498   1.263   3.910   1.349
 4498TIP3   OH213499   1.017   2.843   4.023
 4498TIP3    H113500   0.990   2.874   3.936
 4498TIP3    H213501   1.055   2.757   4.007
 4499TIP3   OH213502   5.647   0.895   1.056
 4499TIP3    H113503   5.588   0.821   1.047
 4499TIP3    H213504   5.729   0.866   1.017
 4500TIP3   OH213505   4.655   1.391   1.381
 4500TIP3    H113506   4.562   1.382   1.362
 4500TIP3    H213507   4.666   1.355   1.469
 4501TIP3   OH213508   4.012   5.613   3.376
 4501TIP3    H113509   3.959   5.565   3.440
 4501TIP3    H213510   4.100   5.614   3.414
 4502TIP3   OH213511   6.012   0.199   1.088
 4502TIP3    H113512   6.060   0.119   1.110
 4502TIP3    H213513   5.972   0.227   1.170
 4503TIP3   OH213514   3.843   0.940   2.834
 4503TIP3    H113515   3.750   0.952   2.817
 4503TIP3    H213516   3.881   1.028   2.826
 4504TIP3   OH213517   4.565   0.093   3.675
 4504TIP3    H113518   4.625   0.055   3.611
 4504TIP3    H213519   4.618   0.102   3.755
 4505TIP3   OH213520   1.987   1.464   1.959
 4505TIP3    H113521   2.063   1.520   1.944
 4505TIP3    H213522   1.926   1.519   2.008
 4506TIP3   OH213523   1.755   5.925   5.022
 4506TIP3    H113524   1.682   5.874   4.985
 4506TIP3    H213525   1.765   5.999   4.962
 4507TIP3   OH213526   1.508   3.375   1.769
 4507TIP3    H113527   1.501   3.285   1.737
 4507TIP3    H213528   1.513   3.367   1.864
 4508TIP3   OH213529   1.657   3.168   4.208
 4508TIP3    H113530   1.567   3.200   4.219
 4508TIP3    H213531   1.705   3.244   4.174
 4509TIP3   OH213532   4.659   5.265   1.988
 4509TIP3    H113533   4.751   5.240   1.998
 4509TIP3    H213534   4.621   5.250   2.074
 4510TIP3   OH213535   5.913   1.687   5.232
 4510TIP3    H113536   5.853   1.738   5.285
 4510TIP3    H213537   5.856   1.639   5.171
 4511TIP3   OH213538   2.382   0.860   1.107
 4511TIP3    H113539   2.459   0.803   1.098
 4511TIP3    H213540   2.389   0.897   1.194
 4512TIP3   OH213541   4.794   5.329   0.968
 4512TIP3    H113542   4.786   5.422   0.992
 4512TIP3    H213543   4.853   5.292   1.033
 4513TIP3   OH213544   5.630   1.758   1.826
 4513TIP3    H113545   5.609   1.721   1.740
 4513TIP3    H213546   5.570   1.831   1.835
 4514TIP3   OH213547   2.083   3.292   0.275
 4514TIP3    H113548   2.154   3.231   0.261
 4514TIP3    H213549   2.044   3.265   0.358
 4515TIP3   OH213550   2.967   3.942   2.651
 4515TIP3    H113551   3.051   3.934   2.695
 4515TIP3    H213552   2.921   4.010   2.699
 4516TIP3   OH213553   5.500   5.073   0.900
 4516TIP3    H113554   5.415   5.067   0.857
 4516TIP3    H213555   5.497   5.156   0.948
 4517TIP3   OH213556   1.349   3.407   0.282
 4517TIP3    H113557   1.324   3.391   0.191
 4517TIP3    H213558   1.352   3.321   0.322
 4518TIP3   OH213559   4.433   0.597   2.353
 4518TIP3    H113560   4.494   0.576   2.282
 4518TIP3    H213561   4.429   0.517   2.406
 4519TIP3   OH213562   5.358   2.731   3.714
 4519TIP3    H113563   5.443   2.719   3.671
 4519TIP3    H213564   5.359   2.822   3.743
 4520TIP3   OH213565   3.601   2.316   0.742
 4520TIP3    H113566   3.510   2.293   0.723
 4520TIP3    H213567   3.652   2.261   0.682
 4521TIP3   OH213568   5.092   5.118   3.287
 4521TIP3    H113569   5.184   5.092   3.298
 4521TIP3    H213570   5.093   5.180   3.215
 4522TIP3   OH213571   0.952   2.868   3.092
 4522TIP3    H113572   0.888   2.797   3.095
 4522TIP3    H213573   0.902   2.947   3.108
 4523TIP3   OH213574   1.168   1.962   3.657
 4523TIP3    H113575   1.232   1.987   3.723
 4523TIP3    H213576   1.119   1.890   3.697
 4524TIP3   OH213577   2.256   3.653   3.840
 4524TIP3    H113578   2.236   3.567   3.876
 4524TIP3    H213579   2.171   3.689   3.814
 4525TIP3   OH213580   4.548   4.366   3.272
 4525TIP3    H113581   4.482   4.432   3.295
 4525TIP3    H213582   4.548   4.365   3.176
 4526TIP3   OH213583   1.329   4.318   3.863
 4526TIP3    H113584   1.292   4.231   3.877
 4526TIP3    H213585   1.252   4.374   3.846
 4527TIP3   OH213586   2.023   3.936   3.221
 4527TIP3    H113587   1.992   4.014   3.175
 4527TIP3    H213588   2.065   3.970   3.300
 4528TIP3   OH213589   4.737   1.302   4.277
 4528TIP3    H113590   4.662   1.247   4.255
 4528TIP3    H213591   4.768   1.335   4.193
 4529TIP3   OH213592   0.165   4.226   0.630
 4529TIP3    H113593   0.144   4.133   0.634
 4529TIP3    H213594   0.188   4.241   0.538
 4530TIP3   OH213595   6.085   4.707   2.463
 4530TIP3    H113596   6.130   4.642   2.409
 4530TIP3    H213597   6.001   4.720   2.420
 4531TIP3   OH213598   2.723   5.710   1.619
 4531TIP3    H113599   2.661   5.707   1.692
 4531TIP3    H213600   2.774   5.790   1.634
 4532TIP3   OH213601   3.135   4.601   1.947
 4532TIP3    H113602   3.068   4.568   2.007
 4532TIP3    H213603   3.086   4.629   1.870
 4533TIP3   OH213604   5.624   3.888   4.260
 4533TIP3    H113605   5.698   3.930   4.216
 4533TIP3    H213606   5.547   3.915   4.210
 4534TIP3   OH213607   3.206   3.535   2.437
 4534TIP3    H113608   3.114   3.526   2.463
 4534TIP3    H213609   3.203   3.546   2.342
 4535TIP3   OH213610   4.489   2.370   2.966
 4535TIP3    H113611   4.537   2.290   2.945
 4535TIP3    H213612   4.550   2.421   3.019
 4536TIP3   OH213613   2.864   2.816   3.261
 4536TIP3    H113614   2.922   2.750   3.224
 4536TIP3    H213615   2.917   2.895   3.266
 4537TIP3   OH213616   0.088   3.674   0.254
 4537TIP3    H113617   0.152   3.609   0.284
 4537TIP3    H213618   0.141   3.750   0.230
 4538TIP3   OH213619   2.315   0.871   3.911
 4538TIP3    H113620   2.344   0.811   3.842
 4538TIP3    H213621   2.374   0.946   3.902
 4539TIP3   OH213622   4.474   0.544   1.933
 4539TIP3    H113623   4.473   0.478   1.865
 4539TIP3    H213624   4.383   0.573   1.939
 4540TIP3   OH213625   5.123   5.049   2.161
 4540TIP3    H113626   5.204   5.092   2.188
 4540TIP3    H213627   5.148   4.960   2.138
 4541TIP3   OH213628   1.994   3.942   4.967
 4541TIP3    H113629   2.062   3.901   4.913
 4541TIP3    H213630   1.978   3.878   5.037
 4542TIP3   OH213631   2.204   5.632   3.441
 4542TIP3    H113632   2.155   5.673   3.513
 4542TIP3    H213633   2.139   5.576   3.398
 4543TIP3   OH213634   4.440   5.195   0.089
 4543TIP3    H113635   4.534   5.208   0.097
 4543TIP3    H213636   4.404   5.231   0.170
 4544TIP3   OH213637   5.198   1.818   4.692
 4544TIP3    H113638   5.232   1.735   4.659
 4544TIP3    H213639   5.272   1.878   4.684
 4545TIP3   OH213640   2.545   2.478   5.099
 4545TIP3    H113641   2.608   2.551   5.096
 4545TIP3    H213642   2.471   2.513   5.148
 4546TIP3   OH213643   5.882   5.802   1.718
 4546TIP3    H113644   5.966   5.804   1.764
 4546TIP3    H213645   5.825   5.858   1.770
 4547TIP3   OH213646   0.199   1.713   4.774
 4547TIP3    H113647   0.237   1.627   4.759
 4547TIP3    H213648   0.116   1.712   4.727
 4548TIP3   OH213649   2.559   1.445   3.639
 4548TIP3    H113650   2.563   1.350   3.646
 4548TIP3    H213651   2.647   1.470   3.609
 4549TIP3   OH213652   3.695   3.314   3.068
 4549TIP3    H113653   3.630   3.338   3.001
 4549TIP3    H213654   3.654   3.244   3.118
 4550TIP3   OH213655   6.271   4.531   1.395
 4550TIP3    H113656   6.291   4.442   1.421
 4550TIP3    H213657   6.319   4.544   1.313
 4551TIP3   OH213658   4.455   1.834   1.695
 4551TIP3    H113659   4.396   1.838   1.770
 4551TIP3    H213660   4.532   1.885   1.722
 4552TIP3   OH213661   5.229   4.891   1.156
 4552TIP3    H113662   5.216   4.953   1.229
 4552TIP3    H213663   5.317   4.909   1.125
 4553TIP3   OH213664   3.634   5.264   0.667
 4553TIP3    H113665   3.668   5.316   0.739
 4553TIP3    H213666   3.644   5.173   0.694
 4554TIP3   OH213667   1.757   5.853   2.038
 4554TIP3    H113668   1.737   5.761   2.020
 4554TIP3    H213669   1.761   5.859   2.133
 4555TIP3   OH213670   0.023   0.501   1.990
 4555TIP3    H113671  -0.032   0.426   1.966
 4555TIP3    H213672   0.101   0.492   1.934
 4556TIP3   OH213673   2.990   1.483   5.050
 4556TIP3    H113674   2.990   1.394   5.085
 4556TIP3    H213675   3.045   1.533   5.110
 4557TIP3   OH213676   2.121   2.923   5.188
 4557TIP3    H113677   2.050   2.918   5.125
 4557TIP3    H213678   2.155   3.012   5.179
 4558TIP3   OH213679   0.889   0.114   3.702
 4558TIP3    H113680   0.905   0.023   3.728
 4558TIP3    H213681   0.852   0.155   3.781
 4559TIP3   OH213682   2.753   4.462   2.644
 4559TIP3    H113683   2.684   4.492   2.704
 4559TIP3    H213684   2.720   4.380   2.608
 4560TIP3   OH213685   0.272   1.338   1.039
 4560TIP3    H113686   0.237   1.274   0.978
 4560TIP3    H213687   0.364   1.347   1.014
 4561TIP3   OH213688   0.763   4.987   2.256
 4561TIP3    H113689   0.743   4.895   2.237
 4561TIP3    H213690   0.677   5.029   2.260
 4562TIP3   OH213691   3.228   3.521   1.872
 4562TIP3    H113692   3.187   3.542   1.956
 4562TIP3    H213693   3.217   3.600   1.819
 4563TIP3   OH213694   3.852   0.139   0.561
 4563TIP3    H113695   3.932   0.155   0.510
 4563TIP3    H213696   3.801   0.080   0.506
 4564TIP3   OH213697   6.211   0.482   3.877
 4564TIP3    H113698   6.280   0.417   3.891
 4564TIP3    H213699   6.135   0.431   3.848
 4565TIP3   OH213700   6.125   3.431   1.932
 4565TIP3    H113701   6.188   3.504   1.927
 4565TIP3    H213702   6.056   3.463   1.990
 4566TIP3   OH213703   3.481   0.149   3.773
 4566TIP3    H113704   3.512   0.062   3.800
 4566TIP3    H213705   3.559   0.204   3.778
 4567TIP3   OH213706   5.411   5.419   1.602
 4567TIP3    H113707   5.403   5.351   1.668
 4567TIP3    H213708   5.428   5.499   1.652
 4568TIP3   OH213709   4.554   0.736   1.032
 4568TIP3    H113710   4.555   0.729   0.937
 4568TIP3    H213711   4.562   0.645   1.062
 4569TIP3   OH213712   2.670   4.836   0.601
 4569TIP3    H113713   2.692   4.924   0.632
 4569TIP3    H213714   2.597   4.850   0.540
 4570TIP3   OH213715   0.994   3.542   1.052
 4570TIP3    H113716   1.043   3.468   1.088
 4570TIP3    H213717   0.923   3.502   1.002
 4571TIP3   OH213718   3.950   3.231   1.730
 4571TIP3    H113719   3.960   3.154   1.787
 4571TIP3    H213720   3.864   3.267   1.752
 4572TIP3   OH213721   1.150   4.838   4.305
 4572TIP3    H113722   1.229   4.787   4.286
 4572TIP3    H213723   1.089   4.774   4.342
 4573TIP3   OH213724   2.579   0.072   2.047
 4573TIP3    H113725   2.540   0.068   2.134
 4573TIP3    H213726   2.581   0.165   2.026
 4574TIP3   OH213727   3.537   1.975   0.467
 4574TIP3    H113728   3.607   1.931   0.515
 4574TIP3    H213729   3.547   2.068   0.491
 4575TIP3   OH213730   1.875   0.739   1.457
 4575TIP3    H113731   1.959   0.767   1.419
 4575TIP3    H213732   1.820   0.718   1.381
 4576TIP3   OH213733   1.072   5.773   1.151
 4576TIP3    H113734   1.122   5.773   1.069
 4576TIP3    H213735   1.015   5.850   1.143
 4577TIP3   OH213736   4.378   2.220   2.118
 4577TIP3    H113737   4.340   2.136   2.146
 4577TIP3    H213738   4.455   2.231   2.173
 4578TIP3   OH213739   2.434   4.884   0.832
 4578TIP3    H113740   2.348   4.895   0.874
 4578TIP3    H213741   2.455   4.971   0.796
 4579TIP3   OH213742   1.582   0.472   0.212
 4579TIP3    H113743   1.545   0.400   0.161
 4579TIP3    H213744   1.553   0.551   0.166
 4580TIP3   OH213745   3.147   2.222   1.230
 4580TIP3    H113746   3.176   2.288   1.293
 4580TIP3    H213747   3.055   2.208   1.250
 4581TIP3   OH213748   5.404   1.648   2.867
 4581TIP3    H113749   5.474   1.704   2.901
 4581TIP3    H213750   5.337   1.648   2.936
 4582TIP3   OH213751   5.438   3.214   2.806
 4582TIP3    H113752   5.488   3.205   2.725
 4582TIP3    H213753   5.432   3.308   2.820
 4583TIP3   OH213754   4.269   1.100   2.655
 4583TIP3    H113755   4.224   1.160   2.595
 4583TIP3    H213756   4.362   1.115   2.639
 4584TIP3   OH213757   4.852   4.674   3.754
 4584TIP3    H113758   4.785   4.708   3.695
 4584TIP3    H213759   4.812   4.597   3.795
 4585TIP3   OH213760   1.264   3.505   3.098
 4585TIP3    H113761   1.268   3.594   3.063
 4585TIP3    H213762   1.311   3.510   3.181
 4586TIP3   OH213763   5.082   3.691   0.905
 4586TIP3    H113764   5.043   3.766   0.950
 4586TIP3    H213765   5.008   3.633   0.888
 4587TIP3   OH213766   5.776   5.244   3.286
 4587TIP3    H113767   5.711   5.226   3.218
 4587TIP3    H213768   5.780   5.163   3.337
 4588TIP3   OH213769   1.628   4.880   0.327
 4588TIP3    H113770   1.716   4.913   0.345
 4588TIP3    H213771   1.572   4.925   0.391
 4589TIP3   OH213772   3.836   3.823   2.598
 4589TIP3    H113773   3.783   3.746   2.577
 4589TIP3    H213774   3.810   3.888   2.533
 4590TIP3   OH213775   0.224   4.474   2.278
 4590TIP3    H113776   0.314   4.466   2.310
 4590TIP3    H213777   0.218   4.563   2.244
 4591TIP3   OH213778   4.081   2.494   3.621
 4591TIP3    H113779   4.100   2.412   3.665
 4591TIP3    H213780   4.094   2.475   3.528
 4592TIP3   OH213781   3.290   1.656   1.101
 4592TIP3    H113782   3.292   1.707   1.020
 4592TIP3    H213783   3.382   1.641   1.123
 4593TIP3   OH213784   3.530   0.448   2.078
 4593TIP3    H113785   3.602   0.415   2.132
 4593TIP3    H213786   3.496   0.523   2.127
 4594TIP3   OH213787   1.584   3.136   1.209
 4594TIP3    H113788   1.542   3.076   1.270
 4594TIP3    H213789   1.671   3.150   1.245
 4595TIP3   OH213790   0.057   0.600   4.816
 4595TIP3    H113791   0.061   0.583   4.721
 4595TIP3    H213792   0.096   0.687   4.827
 4596TIP3   OH213793   2.076   1.571   1.385
 4596TIP3    H113794   2.011   1.503   1.406
 4596TIP3    H213795   2.160   1.527   1.392
 4597TIP3   OH213796   3.984   1.906   1.934
 4597TIP3    H113797   4.003   1.986   1.984
 4597TIP3    H213798   4.029   1.837   1.983
 4598TIP3   OH213799   0.805   0.748   1.883
 4598TIP3    H113800   0.729   0.760   1.825
 4598TIP3    H213801   0.773   0.774   1.969
 4599TIP3   OH213802   6.042   3.705   3.825
 4599TIP3    H113803   5.975   3.720   3.891
 4599TIP3    H213804   6.022   3.769   3.757
 4600TIP3   OH213805   3.953   3.308   3.437
 4600TIP3    H113806   4.031   3.345   3.478
 4600TIP3    H213807   3.894   3.291   3.510
 4601TIP3   OH213808   5.904   2.957   1.692
 4601TIP3    H113809   5.859   2.938   1.775
 4601TIP3    H213810   5.979   3.011   1.717
 4602TIP3   OH213811   6.246   1.706   3.314
 4602TIP3    H113812   6.223   1.754   3.394
 4602TIP3    H213813   6.230   1.614   3.335
 4603TIP3   OH213814   1.314   1.075   3.795
 4603TIP3    H113815   1.267   0.993   3.811
 4603TIP3    H213816   1.246   1.143   3.803
 4604TIP3   OH213817   4.367   1.295   2.286
 4604TIP3    H113818   4.311   1.242   2.229
 4604TIP3    H213819   4.306   1.350   2.334
 4605TIP3   OH213820   4.674   1.488   0.951
 4605TIP3    H113821   4.709   1.577   0.945
 4605TIP3    H213822   4.580   1.499   0.959
 4606TIP3   OH213823   0.218   4.180   3.018
 4606TIP3    H113824   0.277   4.114   2.982
 4606TIP3    H213825   0.193   4.147   3.104
 4607TIP3   OH213826   5.677   0.626   4.490
 4607TIP3    H113827   5.676   0.694   4.423
 4607TIP3    H213828   5.585   0.603   4.502
 4608TIP3   OH213829   2.709   1.821   5.235
 4608TIP3    H113830   2.799   1.821   5.268
 4608TIP3    H213831   2.683   1.729   5.236
 4609TIP3   OH213832   1.394   4.733   4.897
 4609TIP3    H113833   1.348   4.704   4.976
 4609TIP3    H213834   1.407   4.827   4.910
 4610TIP3   OH213835   0.902   4.229   4.847
 4610TIP3    H113836   0.855   4.230   4.930
 4610TIP3    H213837   0.838   4.259   4.782
 4611TIP3   OH213838   2.551   1.429   4.414
 4611TIP3    H113839   2.615   1.397   4.351
 4611TIP3    H213840   2.466   1.406   4.376
 4612TIP3   OH213841   6.097   4.645   2.732
 4612TIP3    H113842   6.169   4.582   2.733
 4612TIP3    H213843   6.076   4.656   2.639
 4613TIP3   OH213844   4.161   5.890   2.753
 4613TIP3    H113845   4.143   5.984   2.749
 4613TIP3    H213846   4.100   5.857   2.820
 4614TIP3   OH213847   4.373   4.424   4.992
 4614TIP3    H113848   4.394   4.482   5.065
 4614TIP3    H213849   4.279   4.436   4.978
 4615TIP3   OH213850   3.046   0.676   4.977
 4615TIP3    H113851   3.027   0.714   4.891
 4615TIP3    H213852   3.061   0.752   5.034
 4616TIP3   OH213853   2.959   3.950   1.043
 4616TIP3    H113854   2.882   3.894   1.038
 4616TIP3    H213855   2.935   4.019   1.105
 4617TIP3   OH213856   2.084   0.960   3.592
 4617TIP3    H113857   2.073   0.991   3.682
 4617TIP3    H213858   2.012   1.000   3.544
 4618TIP3   OH213859   0.620   5.698   4.431
 4618TIP3    H113860   0.642   5.626   4.372
 4618TIP3    H213861   0.602   5.772   4.373
 4619TIP3   OH213862   3.482   4.973   0.085
 4619TIP3    H113863   3.519   4.950   0.000
 4619TIP3    H213864   3.546   5.033   0.123
 4620TIP3   OH213865   3.832   3.162   3.666
 4620TIP3    H113866   3.913   3.132   3.708
 4620TIP3    H213867   3.785   3.210   3.734
 4621TIP3   OH213868   1.850   1.142   2.219
 4621TIP3    H113869   1.889   1.075   2.275
 4621TIP3    H213870   1.922   1.202   2.198
 4622TIP3   OH213871   4.707   5.710   2.710
 4622TIP3    H113872   4.668   5.777   2.767
 4622TIP3    H213873   4.715   5.633   2.766
 4623TIP3   OH213874   3.658   5.061   4.194
 4623TIP3    H113875   3.618   4.981   4.160
 4623TIP3    H213876   3.585   5.121   4.207
 4624TIP3   OH213877   5.760   0.607   1.427
 4624TIP3    H113878   5.787   0.697   1.408
 4624TIP3    H213879   5.667   0.604   1.404
 4625TIP3   OH213880   4.228   5.956   0.591
 4625TIP3    H113881   4.159   5.889   0.592
 4625TIP3    H213882   4.271   5.944   0.506
 4626TIP3   OH213883   2.921   3.009   4.185
 4626TIP3    H113884   2.915   2.994   4.280
 4626TIP3    H213885   3.001   3.061   4.175
 4627TIP3   OH213886   0.466   2.275   4.197
 4627TIP3    H113887   0.523   2.281   4.121
 4627TIP3    H213888   0.468   2.362   4.236
 4628TIP3   OH213889   1.986   2.606   4.001
 4628TIP3    H113890   2.023   2.586   4.087
 4628TIP3    H213891   2.036   2.552   3.941
 4629TIP3   OH213892   1.882   1.918   2.514
 4629TIP3    H113893   1.815   1.883   2.456
 4629TIP3    H213894   1.855   2.008   2.531
 4630TIP3   OH213895   3.109   3.738   0.910
 4630TIP3    H113896   3.034   3.720   0.965
 4630TIP3    H213897   3.152   3.653   0.899
 4631TIP3   OH213898   2.320   2.123   4.355
 4631TIP3    H113899   2.390   2.126   4.420
 4631TIP3    H213900   2.274   2.040   4.374
 4632TIP3   OH213901   1.579   2.663   2.677
 4632TIP3    H113902   1.658   2.620   2.709
 4632TIP3    H213903   1.524   2.674   2.755
 4633TIP3   OH213904   4.459   2.285   1.269
 4633TIP3    H113905   4.451   2.255   1.178
 4633TIP3    H213906   4.452   2.204   1.321
 4634TIP3   OH213907   3.093   1.054  -0.012
 4634TIP3    H113908   3.111   1.016   0.074
 4634TIP3    H213909   3.121   1.146  -0.003
 4635TIP3   OH213910   5.488   0.996   4.562
 4635TIP3    H113911   5.455   0.967   4.647
 4635TIP3    H213912   5.538   0.921   4.529
 4636TIP3   OH213913   2.408   3.154   1.789
 4636TIP3    H113914   2.413   3.106   1.706
 4636TIP3    H213915   2.431   3.089   1.856
 4637TIP3   OH213916   5.579   3.709   2.420
 4637TIP3    H113917   5.549   3.619   2.431
 4637TIP3    H213918   5.500   3.758   2.394
 4638TIP3   OH213919   0.687   3.622   0.904
 4638TIP3    H113920   0.609   3.595   0.952
 4638TIP3    H213921   0.684   3.718   0.905
 4639TIP3   OH213922   5.725   5.982   1.841
 4639TIP3    H113923   5.632   5.994   1.823
 4639TIP3    H213924   5.747   6.049   1.906
 4640TIP3   OH213925   1.038   2.865   1.118
 4640TIP3    H113926   0.994   2.949   1.137
 4640TIP3    H213927   0.966   2.806   1.096
 4641TIP3   OH213928   2.172   2.287   3.107
 4641TIP3    H113929   2.133   2.205   3.078
 4641TIP3    H213930   2.100   2.336   3.146
 4642TIP3   OH213931   1.856   0.403   1.978
 4642TIP3    H113932   1.831   0.468   2.043
 4642TIP3    H213933   1.951   0.394   1.989
 4643TIP3   OH213934   6.156   3.009   2.641
 4643TIP3    H113935   6.202   3.070   2.584
 4643TIP3    H213936   6.106   2.953   2.581
 4644TIP3   OH213937   1.894   3.319   2.679
 4644TIP3    H113938   1.861   3.370   2.753
 4644TIP3    H213939   1.972   3.275   2.713
 4645TIP3   OH213940   4.540   5.803   0.749
 4645TIP3    H113941   4.451   5.777   0.728
 4645TIP3    H213942   4.580   5.725   0.788
 4646TIP3   OH213943   3.665   2.880   3.603
 4646TIP3    H113944   3.751   2.837   3.597
 4646TIP3    H213945   3.632   2.855   3.690
 4647TIP3   OH213946   2.565   4.452   3.449
 4647TIP3    H113947   2.632   4.495   3.503
 4647TIP3    H213948   2.485   4.458   3.501
 4648TIP3   OH213949   4.866   0.888   4.745
 4648TIP3    H113950   4.843   0.918   4.833
 4648TIP3    H213951   4.893   0.797   4.756
 4649TIP3   OH213952   5.981   2.624   4.666
 4649TIP3    H113953   5.886   2.614   4.667
 4649TIP3    H213954   5.995   2.715   4.640
 4650TIP3   OH213955   5.918   0.278   2.033
 4650TIP3    H113956   5.911   0.288   1.938
 4650TIP3    H213957   5.833   0.307   2.066
 4651TIP3   OH213958   1.662   1.821   1.555
 4651TIP3    H113959   1.581   1.839   1.604
 4651TIP3    H213960   1.638   1.749   1.497
 4652TIP3   OH213961   0.101   4.537   2.545
 4652TIP3    H113962   0.031   4.473   2.560
 4652TIP3    H213963   0.138   4.511   2.461
 4653TIP3   OH213964   5.876   1.369   3.810
 4653TIP3    H113965   5.807   1.389   3.746
 4653TIP3    H213966   5.920   1.453   3.824
 4654TIP3   OH213967   1.299   1.287   4.138
 4654TIP3    H113968   1.386   1.280   4.100
 4654TIP3    H213969   1.294   1.213   4.199
 4655TIP3   OH213970   5.309   2.803   2.028
 4655TIP3    H113971   5.361   2.791   1.948
 4655TIP3    H213972   5.231   2.851   1.999
 4656TIP3   OH213973   2.162   2.163   1.114
 4656TIP3    H113974   2.124   2.156   1.202
 4656TIP3    H213975   2.165   2.073   1.082
 4657TIP3   OH213976   3.037   2.573   3.275
 4657TIP3    H113977   3.072   2.635   3.340
 4657TIP3    H213978   3.103   2.569   3.207
 4658TIP3   OH213979   3.386   4.794   3.609
 4658TIP3    H113980   3.337   4.773   3.688
 4658TIP3    H213981   3.331   4.761   3.538
 4659TIP3   OH213982   1.160   1.979   4.408
 4659TIP3    H113983   1.085   1.993   4.466
 4659TIP3    H213984   1.121   1.946   4.327
 4660TIP3   OH213985   3.674   4.175   2.590
 4660TIP3    H113986   3.654   4.266   2.566
 4660TIP3    H213987   3.746   4.182   2.652
 4661TIP3   OH213988   5.357   2.649   2.555
 4661TIP3    H113989   5.286   2.674   2.495
 4661TIP3    H213990   5.357   2.718   2.621
 4662TIP3   OH213991   3.299   5.522   3.615
 4662TIP3    H113992   3.356   5.483   3.682
 4662TIP3    H213993   3.331   5.611   3.605
 4663TIP3   OH213994   0.289   0.692   2.035
 4663TIP3    H113995   0.271   0.612   2.084
 4663TIP3    H213996   0.345   0.664   1.963
 4664TIP3   OH213997   1.214   0.316   0.135
 4664TIP3    H113998   1.225   0.322   0.040
 4664TIP3    H213999   1.156   0.241   0.148
 4665TIP3   OH214000   3.553   3.871   2.437
 4665TIP3    H114001   3.493   3.829   2.499
 4665TIP3    H214002   3.502   3.942   2.399
 4666TIP3   OH214003   0.592   1.985   1.293
 4666TIP3    H114004   0.682   1.994   1.324
 4666TIP3    H214005   0.600   1.934   1.212
 4667TIP3   OH214006   2.343   4.217   4.991
 4667TIP3    H114007   2.393   4.282   4.941
 4667TIP3    H214008   2.359   4.135   4.945
 4668TIP3   OH214009   0.761   5.433   2.156
 4668TIP3    H114010   0.690   5.403   2.212
 4668TIP3    H214011   0.811   5.493   2.212
 4669TIP3   OH214012   2.116  -0.054   1.746
 4669TIP3    H114013   2.074   0.023   1.709
 4669TIP3    H214014   2.204  -0.025   1.768
 4670TIP3   OH214015   3.092   5.756   2.165
 4670TIP3    H114016   3.078   5.753   2.070
 4670TIP3    H214017   3.042   5.832   2.194
 4671TIP3   OH214018   0.165   3.135   4.167
 4671TIP3    H114019   0.247   3.092   4.141
 4671TIP3    H214020   0.174   3.149   4.261
 4672TIP3   OH214021   2.924   4.503   0.234
 4672TIP3    H114022   2.973   4.442   0.289
 4672TIP3    H214023   2.918   4.583   0.286
 4673TIP3   OH214024   1.224   4.610   2.713
 4673TIP3    H114025   1.255   4.690   2.756
 4673TIP3    H214026   1.179   4.562   2.783
 4674TIP3   OH214027   4.768   6.002   1.111
 4674TIP3    H114028   4.717   6.029   1.188
 4674TIP3    H214029   4.857   6.032   1.129
 4675TIP3   OH214030   2.373   0.059   2.297
 4675TIP3    H114031   2.323   0.002   2.239
 4675TIP3    H214032   2.343   0.147   2.277
 4676TIP3   OH214033   5.438   3.015   1.102
 4676TIP3    H114034   5.363   2.979   1.054
 4676TIP3    H214035   5.497   2.941   1.113
 4677TIP3   OH214036   2.467   5.623   3.241
 4677TIP3    H114037   2.529   5.690   3.271
 4677TIP3    H214038   2.394   5.672   3.205
 4678TIP3   OH214039   5.886   3.501   2.341
 4678TIP3    H114040   5.836   3.492   2.422
 4678TIP3    H214041   5.952   3.432   2.346
 4679TIP3   OH214042   0.803   3.643   0.423
 4679TIP3    H114043   0.847   3.643   0.508
 4679TIP3    H214044   0.710   3.630   0.444
 4680TIP3   OH214045   2.413   1.414   2.665
 4680TIP3    H114046   2.348   1.365   2.615
 4680TIP3    H214047   2.492   1.411   2.611
 4681TIP3   OH214048   1.371   1.204   3.102
 4681TIP3    H114049   1.293   1.174   3.057
 4681TIP3    H214050   1.340   1.275   3.159
 4682TIP3   OH214051   3.726   3.719   0.241
 4682TIP3    H114052   3.631   3.721   0.250
 4682TIP3    H214053   3.759   3.709   0.330
 4683TIP3   OH214054   6.380   0.901   3.370
 4683TIP3    H114055   6.366   0.929   3.461
 4683TIP3    H214056   6.403   0.808   3.377
 4684TIP3   OH214057   1.590   4.738   0.760
 4684TIP3    H114058   1.635   4.692   0.689
 4684TIP3    H214059   1.502   4.755   0.726
 4685TIP3   OH214060   3.441   4.744   2.968
 4685TIP3    H114061   3.447   4.656   3.005
 4685TIP3    H214062   3.349   4.753   2.944
 4686TIP3   OH214063   3.237   5.575   4.839
 4686TIP3    H114064   3.232   5.670   4.839
 4686TIP3    H214065   3.170   5.547   4.775
 4687TIP3   OH214066   3.408   2.005   4.502
 4687TIP3    H114067   3.457   1.977   4.579
 4687TIP3    H214068   3.459   1.971   4.428
 4688TIP3   OH214069   0.346   4.513   1.170
 4688TIP3    H114070   0.415   4.449   1.190
 4688TIP3    H214071   0.267   4.460   1.160
 4689TIP3   OH214072   2.337   2.460   1.332
 4689TIP3    H114073   2.427   2.427   1.331
 4689TIP3    H214074   2.309   2.454   1.423
 4690TIP3   OH214075   4.930   2.286   4.808
 4690TIP3    H114076   4.975   2.203   4.791
 4690TIP3    H214077   4.888   2.308   4.725
 4691TIP3   OH214078   5.687   2.897   3.612
 4691TIP3    H114079   5.738   2.837   3.666
 4691TIP3    H214080   5.711   2.984   3.643
 4692TIP3   OH214081   5.262   2.332   1.977
 4692TIP3    H114082   5.245   2.387   1.901
 4692TIP3    H214083   5.274   2.393   2.049
 4693TIP3   OH214084   2.495   3.347   1.506
 4693TIP3    H114085   2.421   3.355   1.567
 4693TIP3    H214086   2.572   3.339   1.563
 4694TIP3   OH214087   5.190   1.645   3.032
 4694TIP3    H114088   5.202   1.591   3.110
 4694TIP3    H214089   5.109   1.612   2.993
 4695TIP3   OH214090   5.536   3.182   0.196
 4695TIP3    H114091   5.455   3.151   0.237
 4695TIP3    H214092   5.604   3.126   0.233
 4696TIP3   OH214093   3.381   1.570   3.987
 4696TIP3    H114094   3.318   1.503   4.010
 4696TIP3    H214095   3.460   1.522   3.963
 4697TIP3   OH214096   2.269   3.061   2.353
 4697TIP3    H114097   2.291   3.154   2.340
 4697TIP3    H214098   2.215   3.061   2.432
 4698TIP3   OH214099   2.972   4.232   3.728
 4698TIP3    H114100   3.059   4.259   3.698
 4698TIP3    H214101   2.976   4.137   3.734
 4699TIP3   OH214102   4.851   5.806   2.143
 4699TIP3    H114103   4.852   5.902   2.142
 4699TIP3    H214104   4.758   5.783   2.152
 4700TIP3   OH214105   1.158   4.653   4.043
 4700TIP3    H114106   1.138   4.569   4.085
 4700TIP3    H214107   1.073   4.696   4.035
 4701TIP3   OH214108   0.527   1.777   0.900
 4701TIP3    H114109   0.585   1.743   0.831
 4701TIP3    H214110   0.587   1.802   0.971
 4702TIP3   OH214111   0.775   2.216   1.974
 4702TIP3    H114112   0.721   2.169   1.911
 4702TIP3    H214113   0.779   2.306   1.940
 4703TIP3   OH214114   3.448   4.587   2.309
 4703TIP3    H114115   3.520   4.555   2.254
 4703TIP3    H214116   3.489   4.652   2.366
 4704TIP3   OH214117   0.955   4.080   0.253
 4704TIP3    H114118   0.954   4.053   0.162
 4704TIP3    H214119   0.982   4.002   0.301
 4705TIP3   OH214120   2.567   1.176   1.182
 4705TIP3    H114121   2.532   1.099   1.226
 4705TIP3    H214122   2.491   1.231   1.164
 4706TIP3   OH214123   5.087   5.943   2.364
 4706TIP3    H114124   5.061   5.858   2.328
 4706TIP3    H214125   5.150   5.977   2.300
 4707TIP3   OH214126   4.736   2.253   0.748
 4707TIP3    H114127   4.668   2.300   0.699
 4707TIP3    H214128   4.757   2.177   0.693
 4708TIP3   OH214129   4.965   2.136   2.542
 4708TIP3    H114130   5.012   2.205   2.589
 4708TIP3    H214131   4.998   2.143   2.452
 4709TIP3   OH214132   4.523   4.038   3.001
 4709TIP3    H114133   4.468   4.018   2.925
 4709TIP3    H214134   4.569   4.119   2.976
 4710TIP3   OH214135   4.089   0.998   1.361
 4710TIP3    H114136   4.058   1.049   1.436
 4710TIP3    H214137   4.179   0.977   1.383
 4711TIP3   OH214138   0.477   2.129   3.698
 4711TIP3    H114139   0.386   2.149   3.723
 4711TIP3    H214140   0.513   2.212   3.668
 4712TIP3   OH214141   1.323   1.525   3.261
 4712TIP3    H114142   1.349   1.547   3.350
 4712TIP3    H214143   1.249   1.465   3.271
 4713TIP3   OH214144   1.631   0.880   4.224
 4713TIP3    H114145   1.699   0.947   4.234
 4713TIP3    H214146   1.649   0.818   4.295
 4714TIP3   OH214147   3.777   4.453   4.773
 4714TIP3    H114148   3.790   4.365   4.808
 4714TIP3    H214149   3.865   4.488   4.763
 4715TIP3   OH214150   6.143   4.286   0.465
 4715TIP3    H114151   6.228   4.301   0.425
 4715TIP3    H214152   6.151   4.201   0.508
 4716TIP3   OH214153   3.803   5.032   5.073
 4716TIP3    H114154   3.821   4.967   5.141
 4716TIP3    H214155   3.859   5.106   5.097
 4717TIP3   OH214156   2.059   1.068   4.513
 4717TIP3    H114157   2.078   1.142   4.572
 4717TIP3    H214158   1.984   1.024   4.553
 4718TIP3   OH214159   5.750   2.209   0.299
 4718TIP3    H114160   5.720   2.241   0.384
 4718TIP3    H214161   5.837   2.171   0.317
 4719TIP3   OH214162   2.101   0.226   1.972
 4719TIP3    H114163   2.182   0.266   1.943
 4719TIP3    H214164   2.098   0.141   1.927
 4720TIP3   OH214165   2.837   2.550   4.680
 4720TIP3    H114166   2.775   2.492   4.635
 4720TIP3    H214167   2.912   2.556   4.621
 4721TIP3   OH214168   3.001   5.838   4.648
 4721TIP3    H114169   2.998   5.779   4.723
 4721TIP3    H214170   2.968   5.785   4.575
 4722TIP3   OH214171   3.262   1.828   2.819
 4722TIP3    H114172   3.318   1.785   2.884
 4722TIP3    H214173   3.173   1.799   2.842
 4723TIP3   OH214174   2.683   2.193   3.417
 4723TIP3    H114175   2.645   2.231   3.338
 4723TIP3    H214176   2.752   2.254   3.443
 4724TIP3   OH214177   0.682   3.803   3.658
 4724TIP3    H114178   0.631   3.738   3.706
 4724TIP3    H214179   0.626   3.880   3.654
 4725TIP3   OH214180   0.171   3.913   0.581
 4725TIP3    H114181   0.095   3.913   0.524
 4725TIP3    H214182   0.162   3.833   0.633
 4726TIP3   OH214183   1.643   2.229   1.684
 4726TIP3    H114184   1.677   2.309   1.642
 4726TIP3    H214185   1.721   2.185   1.717
 4727TIP3   OH214186   3.168   0.280   1.627
 4727TIP3    H114187   3.133   0.352   1.679
 4727TIP3    H214188   3.214   0.225   1.691
 4728TIP3   OH214189   5.674   1.553   4.453
 4728TIP3    H114190   5.604   1.614   4.430
 4728TIP3    H214191   5.645   1.469   4.418
 4729TIP3   OH214192   1.053   3.497   2.892
 4729TIP3    H114193   1.136   3.491   2.940
 4729TIP3    H214194   0.988   3.514   2.959
 4730TIP3   OH214195   0.728   0.595   5.114
 4730TIP3    H114196   0.774   0.652   5.176
 4730TIP3    H214197   0.734   0.641   5.030
 4731TIP3   OH214198   4.952   0.162   4.116
 4731TIP3    H114199   4.917   0.084   4.159
 4731TIP3    H214200   4.899   0.234   4.149
 4732TIP3   OH214201   0.236   0.109   1.994
 4732TIP3    H114202   0.171   0.124   2.062
 4732TIP3    H214203   0.309   0.067   2.040
 4733TIP3   OH214204   5.800   3.547   0.860
 4733TIP3    H114205   5.779   3.532   0.768
 4733TIP3    H214206   5.829   3.639   0.863
 4734TIP3   OH214207   0.816   3.612   2.429
 4734TIP3    H114208   0.873   3.689   2.427
 4734TIP3    H214209   0.828   3.575   2.516
 4735TIP3   OH214210   5.461   1.475   1.699
 4735TIP3    H114211   5.454   1.563   1.662
 4735TIP3    H214212   5.400   1.475   1.773
 4736TIP3   OH214213   5.169   0.579   1.965
 4736TIP3    H114214   5.160   0.509   2.030
 4736TIP3    H214215   5.154   0.660   2.014
 4737TIP3   OH214216   3.959   2.702   2.888
 4737TIP3    H114217   3.865   2.718   2.885
 4737TIP3    H214218   3.975   2.677   2.980
 4738TIP3   OH214219   0.514   2.122   4.526
 4738TIP3    H114220   0.492   2.079   4.443
 4738TIP3    H214221   0.559   2.203   4.501
 4739TIP3   OH214222   0.853   1.349   2.572
 4739TIP3    H114223   0.889   1.437   2.580
 4739TIP3    H214224   0.845   1.334   2.478
 4740TIP3   OH214225   3.792   3.447   1.530
 4740TIP3    H114226   3.878   3.487   1.541
 4740TIP3    H214227   3.746   3.466   1.612
 4741TIP3   OH214228   4.064   3.598   2.837
 4741TIP3    H114229   4.090   3.516   2.879
 4741TIP3    H214230   4.114   3.665   2.883
 4742TIP3   OH214231   4.087   0.035   1.499
 4742TIP3    H114232   4.016   0.094   1.525
 4742TIP3    H214233   4.082  -0.038   1.561
 4743TIP3   OH214234   0.825   1.673   0.031
 4743TIP3    H114235   0.784   1.754   0.062
 4743TIP3    H214236   0.907   1.668   0.081
 4744TIP3   OH214237   0.438   1.567   0.116
 4744TIP3    H114238   0.344   1.580   0.131
 4744TIP3    H214239   0.458   1.484   0.158
 4745TIP3   OH214240   2.157   3.832   0.847
 4745TIP3    H114241   2.071   3.873   0.851
 4745TIP3    H214242   2.191   3.856   0.760
 4746TIP3   OH214243   5.541   0.337   4.699
 4746TIP3    H114244   5.522   0.371   4.612
 4746TIP3    H214245   5.522   0.244   4.693
 4747TIP3   OH214246   5.210   2.345   5.150
 4747TIP3    H114247   5.181   2.432   5.122
 4747TIP3    H214248   5.196   2.289   5.074
 4748TIP3   OH214249   2.170   1.258   0.869
 4748TIP3    H114250   2.090   1.256   0.817
 4748TIP3    H214251   2.197   1.350   0.868
 4749TIP3   OH214252   6.038   0.614   3.522
 4749TIP3    H114253   6.034   0.519   3.530
 4749TIP3    H214254   6.097   0.630   3.449
 4750TIP3   OH214255   0.261   4.326   4.268
 4750TIP3    H114256   0.220   4.409   4.292
 4750TIP3    H214257   0.341   4.322   4.320
 4751TIP3   OH214258   1.137   2.089   0.953
 4751TIP3    H114259   1.042   2.084   0.961
 4751TIP3    H214260   1.167   2.109   1.042
 4752TIP3   OH214261   4.956   1.873   2.187
 4752TIP3    H114262   4.923   1.864   2.097
 4752TIP3    H214263   4.993   1.961   2.190
 4753TIP3   OH214264   2.854   4.995   1.630
 4753TIP3    H114265   2.949   5.007   1.625
 4753TIP3    H214266   2.833   5.015   1.721
 4754TIP3   OH214267   0.394   3.205   2.273
 4754TIP3    H114268   0.481   3.225   2.239
 4754TIP3    H214269   0.336   3.267   2.228
 4755TIP3   OH214270   1.876   1.796   0.548
 4755TIP3    H114271   1.808   1.863   0.554
 4755TIP3    H214272   1.873   1.765   0.458
 4756TIP3   OH214273   5.795   1.600   4.830
 4756TIP3    H114274   5.850   1.605   4.752
 4756TIP3    H214275   5.801   1.688   4.869
 4757TIP3   OH214276   4.634   5.895   4.722
 4757TIP3    H114277   4.713   5.936   4.759
 4757TIP3    H214278   4.625   5.813   4.771
 4758TIP3   OH214279   1.122   1.350   0.152
 4758TIP3    H114280   1.109   1.400   0.071
 4758TIP3    H214281   1.070   1.396   0.218
 4759TIP3   OH214282   4.782   2.065   0.541
 4759TIP3    H114283   4.787   1.980   0.584
 4759TIP3    H214284   4.694   2.070   0.506
 4760TIP3   OH214285   2.332   2.244   0.822
 4760TIP3    H114286   2.357   2.278   0.907
 4760TIP3    H214287   2.401   2.181   0.800
 4761TIP3   OH214288   3.859   2.326   2.090
 4761TIP3    H114289   3.954   2.320   2.097
 4761TIP3    H214290   3.837   2.272   2.013
 4762TIP3   OH214291   5.371   4.847   2.272
 4762TIP3    H114292   5.377   4.773   2.333
 4762TIP3    H214293   5.286   4.836   2.230
 4763TIP3   OH214294   2.726   5.895   4.771
 4763TIP3    H114295   2.772   5.843   4.837
 4763TIP3    H214296   2.706   5.977   4.816
 4764TIP3   OH214297   4.841   4.915   5.162
 4764TIP3    H114298   4.931   4.908   5.194
 4764TIP3    H214299   4.809   4.998   5.199
 4765TIP3   OH214300   1.393   4.763   2.102
 4765TIP3    H114301   1.402   4.768   2.007
 4765TIP3    H214302   1.364   4.674   2.119
 4766TIP3   OH214303   2.440   3.307   0.590
 4766TIP3    H114304   2.373   3.251   0.629
 4766TIP3    H214305   2.391   3.368   0.535
 4767TIP3   OH214306   5.590   1.754   1.370
 4767TIP3    H114307   5.648   1.710   1.307
 4767TIP3    H214308   5.594   1.846   1.346
 4768TIP3   OH214309   4.279   0.717   1.071
 4768TIP3    H114310   4.367   0.751   1.057
 4768TIP3    H214311   4.268   0.652   1.002
 4769TIP3   OH214312   6.318   3.681   2.676
 4769TIP3    H114313   6.290   3.594   2.648
 4769TIP3    H214314   6.253   3.740   2.638
 4770TIP3   OH214315   0.129   0.586   0.501
 4770TIP3    H114316   0.192   0.645   0.542
 4770TIP3    H214317   0.182   0.513   0.469
 4771TIP3   OH214318   2.961   4.892   5.033
 4771TIP3    H114319   2.936   4.799   5.026
 4771TIP3    H214320   3.049   4.891   5.071
 4772TIP3   OH214321   2.587   0.574   1.815
 4772TIP3    H114322   2.551   0.534   1.736
 4772TIP3    H214323   2.510   0.597   1.867
 4773TIP3   OH214324   4.205   0.455  -0.034
 4773TIP3    H114325   4.158   0.533  -0.065
 4773TIP3    H214326   4.182   0.449   0.058
 4774TIP3   OH214327   4.236   3.810   2.972
 4774TIP3    H114328   4.291   3.765   2.908
 4774TIP3    H214329   4.217   3.895   2.932
 4775TIP3   OH214330   5.734   3.202   2.249
 4775TIP3    H114331   5.804   3.235   2.194
 4775TIP3    H214332   5.775   3.133   2.301
 4776TIP3   OH214333   2.873   1.410   0.893
 4776TIP3    H114334   2.837   1.392   0.981
 4776TIP3    H214335   2.964   1.434   0.909
 4777TIP3   OH214336   4.510   2.996   1.380
 4777TIP3    H114337   4.590   2.996   1.328
 4777TIP3    H214338   4.535   3.035   1.464
 4778TIP3   OH214339   4.634   4.180   4.403
 4778TIP3    H114340   4.627   4.138   4.489
 4778TIP3    H214341   4.590   4.119   4.343
 4779TIP3   OH214342   4.619   4.576   4.663
 4779TIP3    H114343   4.555   4.647   4.663
 4779TIP3    H214344   4.646   4.567   4.754
 4780TIP3   OH214345   2.361   1.405   1.724
 4780TIP3    H114346   2.383   1.411   1.817
 4780TIP3    H214347   2.431   1.454   1.680
 4781TIP3   OH214348   2.440   4.636   2.118
 4781TIP3    H114349   2.446   4.553   2.166
 4781TIP3    H214350   2.515   4.687   2.150
 4782TIP3   OH214351   4.255   2.883   2.291
 4782TIP3    H114352   4.264   2.867   2.197
 4782TIP3    H214353   4.250   2.978   2.300
 4783TIP3   OH214354   1.714   3.543   0.039
 4783TIP3    H114355   1.778   3.472   0.041
 4783TIP3    H214356   1.673   3.536  -0.047
 4784TIP3   OH214357   2.520   4.706   4.616
 4784TIP3    H114358   2.544   4.799   4.609
 4784TIP3    H214359   2.587   4.668   4.672
 4785TIP3   OH214360   5.426   5.645   0.579
 4785TIP3    H114361   5.439   5.614   0.668
 4785TIP3    H214362   5.495   5.602   0.528
 4786TIP3   OH214363   3.483   3.114   0.266
 4786TIP3    H114364   3.528   3.115   0.182
 4786TIP3    H214365   3.546   3.075   0.326
 4787TIP3   OH214366   6.150   5.213   3.506
 4787TIP3    H114367   6.067   5.191   3.463
 4787TIP3    H214368   6.209   5.141   3.483
 4788TIP3   OH214369   5.059   1.805   0.711
 4788TIP3    H114370   4.994   1.736   0.723
 4788TIP3    H214371   5.059   1.821   0.617
 4789TIP3   OH214372   5.652   2.092   4.864
 4789TIP3    H114373   5.664   2.162   4.799
 4789TIP3    H214374   5.594   2.029   4.821
 4790TIP3   OH214375   5.730   5.217   4.012
 4790TIP3    H114376   5.663   5.185   4.073
 4790TIP3    H214377   5.770   5.138   3.976
 4791TIP3   OH214378   5.430   2.868   1.419
 4791TIP3    H114379   5.494   2.935   1.442
 4791TIP3    H214380   5.355   2.886   1.474
 4792TIP3   OH214381   0.196   4.053   2.340
 4792TIP3    H114382   0.199   4.046   2.244
 4792TIP3    H214383   0.168   3.966   2.368
 4793TIP3   OH214384   5.159   3.285   4.869
 4793TIP3    H114385   5.246   3.257   4.898
 4793TIP3    H214386   5.098   3.241   4.930
 4794TIP3   OH214387   5.894   2.281   2.942
 4794TIP3    H114388   5.839   2.320   2.874
 4794TIP3    H214389   5.962   2.347   2.959
 4795TIP3   OH214390   3.252   3.738   2.995
 4795TIP3    H114391   3.295   3.655   3.015
 4795TIP3    H214392   3.232   3.776   3.080
 4796TIP3   OH214393   4.779   3.526   0.971
 4796TIP3    H114394   4.774   3.532   1.066
 4796TIP3    H214395   4.708   3.582   0.939
 4797TIP3   OH214396   0.482   3.123   4.428
 4797TIP3    H114397   0.455   3.107   4.337
 4797TIP3    H214398   0.493   3.218   4.433
 4798TIP3   OH214399   5.568   4.062   0.785
 4798TIP3    H114400   5.567   4.151   0.822
 4798TIP3    H214401   5.484   4.025   0.810
 4799TIP3   OH214402   6.306   3.674   1.032
 4799TIP3    H114403   6.218   3.637   1.045
 4799TIP3    H214404   6.302   3.714   0.945
 4800TIP3   OH214405   0.453   3.115   1.093
 4800TIP3    H114406   0.358   3.104   1.102
 4800TIP3    H214407   0.474   3.191   1.147
 4801TIP3   OH214408   5.268   1.402   3.907
 4801TIP3    H114409   5.226   1.337   3.850
 4801TIP3    H214410   5.196   1.435   3.962
 4802TIP3   OH214411   0.270   5.194   3.657
 4802TIP3    H114412   0.279   5.211   3.563
 4802TIP3    H214413   0.356   5.215   3.693
 4803TIP3   OH214414   4.153   1.975   4.992
 4803TIP3    H114415   4.214   2.029   5.042
 4803TIP3    H214416   4.152   2.015   4.905
 4804TIP3   OH214417   2.269   0.939   4.375
 4804TIP3    H114418   2.202   1.007   4.382
 4804TIP3    H214419   2.272   0.899   4.462
 4805TIP3   OH214420   3.166   1.080   4.122
 4805TIP3    H114421   3.202   1.090   4.210
 4805TIP3    H214422   3.076   1.113   4.129
 4806TIP3   OH214423   2.514   1.069   1.592
 4806TIP3    H114424   2.592   1.110   1.555
 4806TIP3    H214425   2.530   1.065   1.686
 4807TIP3   OH214426   5.266   1.282   0.031
 4807TIP3    H114427   5.260   1.206  -0.027
 4807TIP3    H214428   5.181   1.286   0.075
 4808TIP3   OH214429   0.936   3.982   0.577
 4808TIP3    H114430   1.004   3.937   0.526
 4808TIP3    H214431   0.985   4.043   0.632
 4809TIP3   OH214432   0.661   0.820   4.652
 4809TIP3    H114433   0.593   0.815   4.586
 4809TIP3    H214434   0.730   0.872   4.611
 4810TIP3   OH214435   3.036   1.287   2.672
 4810TIP3    H114436   3.031   1.377   2.638
 4810TIP3    H214437   3.000   1.293   2.761
 4811TIP3   OH214438   5.365   3.204   1.925
 4811TIP3    H114439   5.441   3.177   1.874
 4811TIP3    H214440   5.290   3.184   1.870
 4812TIP3   OH214441   4.728   3.883   4.351
 4812TIP3    H114442   4.750   3.952   4.415
 4812TIP3    H214443   4.722   3.930   4.268
 4813TIP3   OH214444   3.872   5.420   0.790
 4813TIP3    H114445   3.888   5.447   0.700
 4813TIP3    H214446   3.922   5.339   0.799
 4814TIP3   OH214447   6.009   2.465   1.943
 4814TIP3    H114448   6.073   2.410   1.898
 4814TIP3    H214449   6.062   2.518   2.003
 4815TIP3   OH214450   1.413   5.139   2.183
 4815TIP3    H114451   1.423   5.198   2.109
 4815TIP3    H214452   1.321   5.112   2.180
 4816TIP3   OH214453   4.078   1.400   1.412
 4816TIP3    H114454   4.123   1.481   1.435
 4816TIP3    H214455   4.073   1.400   1.317
 4817TIP3   OH214456   3.938   5.029   3.106
 4817TIP3    H114457   3.844   5.044   3.103
 4817TIP3    H214458   3.969   5.087   3.176
 4818TIP3   OH214459   4.711   1.002   0.843
 4818TIP3    H114460   4.643   0.936   0.827
 4818TIP3    H214461   4.721   1.047   0.759
 4819TIP3   OH214462   1.699   5.246   1.117
 4819TIP3    H114463   1.738   5.316   1.065
 4819TIP3    H214464   1.612   5.233   1.080
 4820TIP3   OH214465   4.170   1.262   3.903
 4820TIP3    H114466   4.141   1.211   3.827
 4820TIP3    H214467   4.220   1.335   3.865
 4821TIP3   OH214468   4.036   5.625   1.116
 4821TIP3    H114469   4.025   5.635   1.021
 4821TIP3    H214470   3.991   5.543   1.137
 4822TIP3   OH214471   6.104   2.621   3.705
 4822TIP3    H114472   6.116   2.651   3.795
 4822TIP3    H214473   6.009   2.625   3.691
 4823TIP3   OH214474   4.097   1.888   4.631
 4823TIP3    H114475   4.167   1.861   4.571
 4823TIP3    H214476   4.078   1.809   4.682
 4824TIP3   OH214477   6.288   1.516   3.840
 4824TIP3    H114478   6.320   1.454   3.906
 4824TIP3    H214479   6.366   1.565   3.813
 4825TIP3   OH214480   0.998   3.579   1.405
 4825TIP3    H114481   0.970   3.554   1.493
 4825TIP3    H214482   1.087   3.611   1.416
 4826TIP3   OH214483   4.992   1.034   4.523
 4826TIP3    H114484   4.941   0.974   4.577
 4826TIP3    H214485   4.936   1.111   4.515
 4827TIP3   OH214486   3.302   0.868   3.849
 4827TIP3    H114487   3.382   0.826   3.816
 4827TIP3    H214488   3.331   0.952   3.883
 4828TIP3   OH214489   2.054   0.168   5.069
 4828TIP3    H114490   2.100   0.238   5.115
 4828TIP3    H214491   2.097   0.087   5.098
 4829TIP3   OH214492   2.359   3.301   4.283
 4829TIP3    H114493   2.397   3.388   4.269
 4829TIP3    H214494   2.276   3.318   4.326
 4830TIP3   OH214495   5.644   4.012   2.617
 4830TIP3    H114496   5.683   4.086   2.664
 4830TIP3    H214497   5.563   4.047   2.582
 4831TIP3   OH214498   5.711   5.006   1.647
 4831TIP3    H114499   5.795   5.037   1.612
 4831TIP3    H214500   5.648   5.072   1.621
 4832TIP3   OH214501   2.576   1.994   1.689
 4832TIP3    H114502   2.591   2.080   1.728
 4832TIP3    H214503   2.659   1.948   1.700
 4833TIP3   OH214504   5.357   1.020   0.323
 4833TIP3    H114505   5.332   1.085   0.388
 4833TIP3    H214506   5.435   0.978   0.361
 4834TIP3   OH214507   2.858   2.403   2.710
 4834TIP3    H114508   2.777   2.452   2.719
 4834TIP3    H214509   2.867   2.387   2.616
 4835TIP3   OH214510   6.057   3.219   2.892
 4835TIP3    H114511   6.123   3.150   2.885
 4835TIP3    H214512   5.976   3.178   2.861
 4836TIP3   OH214513   4.087   2.528   1.656
 4836TIP3    H114514   4.095   2.471   1.580
 4836TIP3    H214515   4.177   2.549   1.681
 4837TIP3   OH214516   3.264   3.609   3.424
 4837TIP3    H114517   3.241   3.527   3.380
 4837TIP3    H214518   3.347   3.635   3.383
 4838TIP3   OH214519   2.575   4.724   4.102
 4838TIP3    H114520   2.514   4.650   4.103
 4838TIP3    H214521   2.656   4.688   4.140
 4839TIP3   OH214522   5.022   0.538   5.131
 4839TIP3    H114523   5.031   0.477   5.204
 4839TIP3    H214524   5.022   0.482   5.053
 4840TIP3   OH214525   2.102   2.178   2.752
 4840TIP3    H114526   2.142   2.105   2.799
 4840TIP3    H214527   2.009   2.171   2.769
 4841TIP3   OH214528   0.322   1.083   4.294
 4841TIP3    H114529   0.402   1.130   4.271
 4841TIP3    H214530   0.276   1.142   4.354
 4842TIP3   OH214531   0.451   0.437   1.136
 4842TIP3    H114532   0.541   0.423   1.106
 4842TIP3    H214533   0.401   0.366   1.096
 4843TIP3   OH214534   2.248   2.724   1.214
 4843TIP3    H114535   2.162   2.683   1.225
 4843TIP3    H214536   2.310   2.656   1.242
 4844TIP3   OH214537   6.094   2.345   0.785
 4844TIP3    H114538   6.059   2.416   0.731
 4844TIP3    H214539   6.035   2.271   0.769
 4845TIP3   OH214540   2.067   0.959   0.763
 4845TIP3    H114541   2.161   0.977   0.771
 4845TIP3    H214542   2.050   0.958   0.669
 4846TIP3   OH214543   2.725   3.545   3.885
 4846TIP3    H114544   2.792   3.488   3.924
 4846TIP3    H214545   2.736   3.532   3.791
 4847TIP3   OH214546   1.291   0.248   0.897
 4847TIP3    H114547   1.353   0.274   0.965
 4847TIP3    H214548   1.299   0.153   0.892
 4848TIP3   OH214549   2.716   4.404   1.475
 4848TIP3    H114550   2.741   4.486   1.433
 4848TIP3    H214551   2.638   4.426   1.525
 4849TIP3   OH214552   2.874   1.583   2.238
 4849TIP3    H114553   2.918   1.599   2.155
 4849TIP3    H214554   2.899   1.656   2.294
 4850TIP3   OH214555   3.427   1.697   1.468
 4850TIP3    H114556   3.462   1.668   1.384
 4850TIP3    H214557   3.345   1.740   1.446
 4851TIP3   OH214558   1.791   5.820   2.326
 4851TIP3    H114559   1.697   5.816   2.343
 4851TIP3    H214560   1.819   5.728   2.323
 4852TIP3   OH214561   6.151   5.699   3.572
 4852TIP3    H114562   6.082   5.695   3.638
 4852TIP3    H214563   6.125   5.632   3.508
 4853TIP3   OH214564   4.126   3.382   3.003
 4853TIP3    H114565   4.177   3.411   3.079
 4853TIP3    H214566   4.111   3.288   3.018
 4854TIP3   OH214567   4.089   4.724   4.333
 4854TIP3    H114568   4.099   4.812   4.369
 4854TIP3    H214569   3.998   4.721   4.302
 4855TIP3   OH214570   4.680   2.704   0.163
 4855TIP3    H114571   4.607   2.726   0.222
 4855TIP3    H214572   4.662   2.615   0.135
 4856TIP3   OH214573   2.592   1.555   1.682
 4856TIP3    H114574   2.683   1.534   1.662
 4856TIP3    H214575   2.567   1.619   1.616
 4857TIP3   OH214576   1.233   5.264   4.249
 4857TIP3    H114577   1.296   5.192   4.247
 4857TIP3    H214578   1.182   5.254   4.169
 4858TIP3   OH214579   2.115   0.719   3.245
 4858TIP3    H114580   2.050   0.782   3.215
 4858TIP3    H214581   2.092   0.637   3.202
 4859TIP3   OH214582   6.066   5.612   0.741
 4859TIP3    H114583   6.041   5.523   0.719
 4859TIP3    H214584   5.984   5.656   0.764
 4860TIP3   OH214585   3.450   3.964   3.201
 4860TIP3    H114586   3.372   3.984   3.149
 4860TIP3    H214587   3.513   3.930   3.138
 4861TIP3   OH214588   2.211   5.147   2.292
 4861TIP3    H114589   2.286   5.194   2.329
 4861TIP3    H214590   2.250   5.071   2.249
 4862TIP3   OH214591   3.963   1.572   3.648
 4862TIP3    H114592   3.966   1.665   3.625
 4862TIP3    H214593   4.043   1.535   3.610
 4863TIP3   OH214594   4.289   3.186   0.977
 4863TIP3    H114595   4.324   3.109   0.933
 4863TIP3    H214596   4.297   3.166   1.071
 4864TIP3   OH214597   5.670   5.920   0.557
 4864TIP3    H114598   5.635   5.887   0.474
 4864TIP3    H214599   5.599   5.973   0.593
 4865TIP3   OH214600   3.347   0.723   2.806
 4865TIP3    H114601   3.290   0.785   2.852
 4865TIP3    H214602   3.379   0.771   2.730
 4866TIP3   OH214603   1.746   5.098   2.564
 4866TIP3    H114604   1.652   5.088   2.549
 4866TIP3    H214605   1.775   5.014   2.599
 4867TIP3   OH214606   6.244   2.427   0.462
 4867TIP3    H114607   6.293   2.448   0.383
 4867TIP3    H214608   6.304   2.376   0.515
 4868TIP3   OH214609   2.782   1.268   5.030
 4868TIP3    H114610   2.861   1.238   5.075
 4868TIP3    H214611   2.810   1.286   4.941
 4869TIP3   OH214612   1.449   5.833   4.649
 4869TIP3    H114613   1.453   5.741   4.675
 4869TIP3    H214614   1.530   5.848   4.601
 4870TIP3   OH214615   5.492   1.197   3.689
 4870TIP3    H114616   5.561   1.263   3.680
 4870TIP3    H214617   5.485   1.158   3.601
 4871TIP3   OH214618   1.937   3.845   2.384
 4871TIP3    H114619   1.873   3.891   2.330
 4871TIP3    H214620   2.009   3.825   2.324
 4872TIP3   OH214621   4.720   2.859   0.649
 4872TIP3    H114622   4.743   2.924   0.716
 4872TIP3    H214623   4.726   2.907   0.566
 4873TIP3   OH214624   2.037   3.746   1.585
 4873TIP3    H114625   2.047   3.702   1.669
 4873TIP3    H214626   2.117   3.799   1.576
 4874TIP3   OH214627   0.712   5.080   5.018
 4874TIP3    H114628   0.751   5.112   5.100
 4874TIP3    H214629   0.638   5.139   5.002
 4875TIP3   OH214630   0.963   4.024   1.451
 4875TIP3    H114631   0.952   3.996   1.361
 4875TIP3    H214632   0.988   3.945   1.499
 4876TIP3   OH214633   2.902   2.896   2.435
 4876TIP3    H114634   2.934   2.980   2.468
 4876TIP3    H214635   2.816   2.886   2.475
 4877TIP3   OH214636   3.397   0.216   4.225
 4877TIP3    H114637   3.353   0.252   4.148
 4877TIP3    H214638   3.325   0.182   4.279
 4878TIP3   OH214639   4.920   0.571   2.154
 4878TIP3    H114640   4.921   0.535   2.242
 4878TIP3    H214641   4.846   0.633   2.155
 4879TIP3   OH214642   1.153   5.716   4.964
 4879TIP3    H114643   1.123   5.693   4.877
 4879TIP3    H214644   1.077   5.755   5.007
 4880TIP3   OH214645   4.704   5.525   4.864
 4880TIP3    H114646   4.757   5.556   4.790
 4880TIP3    H214647   4.758   5.456   4.904
 4881TIP3   OH214648   3.070   1.374   4.584
 4881TIP3    H114649   3.122   1.419   4.650
 4881TIP3    H214650   3.096   1.282   4.591
 4882TIP3   OH214651   1.286   2.658   3.561
 4882TIP3    H114652   1.214   2.660   3.625
 4882TIP3    H214653   1.295   2.566   3.537
 4883TIP3   OH214654   0.196   0.800   2.795
 4883TIP3    H114655   0.282   0.842   2.802
 4883TIP3    H214656   0.142   0.864   2.748
 4884TIP3   OH214657   4.265   0.211   1.151
 4884TIP3    H114658   4.300   0.198   1.239
 4884TIP3    H214659   4.296   0.298   1.125
 4885TIP3   OH214660   0.263   4.904   5.024
 4885TIP3    H114661   0.293   4.946   5.104
 4885TIP3    H214662   0.175   4.873   5.045
 4886TIP3   OH214663   0.971   2.777   3.374
 4886TIP3    H114664   1.043   2.822   3.329
 4886TIP3    H214665   0.910   2.846   3.398
 4887TIP3   OH214666   4.302   4.525   4.268
 4887TIP3    H114667   4.355   4.514   4.347
 4887TIP3    H214668   4.229   4.580   4.296
 4888TIP3   OH214669   2.482   4.338   2.497
 4888TIP3    H114670   2.402   4.302   2.458
 4888TIP3    H214671   2.455   4.362   2.586
 4889TIP3   OH214672   1.468   0.186   4.340
 4889TIP3    H114673   1.495   0.278   4.335
 4889TIP3    H214674   1.442   0.164   4.250
 4890TIP3   OH214675   5.870   0.966   3.781
 4890TIP3    H114676   5.942   0.945   3.722
 4890TIP3    H214677   5.809   0.893   3.770
 4891TIP3   OH214678   5.844   2.984   4.065
 4891TIP3    H114679   5.903   2.916   4.099
 4891TIP3    H214680   5.900   3.039   4.010
 4892TIP3   OH214681   1.854   2.129   1.797
 4892TIP3    H114682   1.826   2.149   1.887
 4892TIP3    H214683   1.935   2.079   1.808
 4893TIP3   OH214684   6.091   5.167   2.820
 4893TIP3    H114685   6.098   5.114   2.741
 4893TIP3    H214686   6.038   5.114   2.880
 4894TIP3   OH214687   3.376   2.309   4.400
 4894TIP3    H114688   3.454   2.324   4.347
 4894TIP3    H214689   3.404   2.246   4.467
 4895TIP3   OH214690   5.077   1.850   2.440
 4895TIP3    H114691   5.029   1.878   2.362
 4895TIP3    H214692   5.054   1.915   2.507
 4896TIP3   OH214693   2.128   2.717   4.409
 4896TIP3    H114694   2.203   2.776   4.413
 4896TIP3    H214695   2.066   2.752   4.472
 4897TIP3   OH214696   4.805   1.689   3.887
 4897TIP3    H114697   4.792   1.702   3.793
 4897TIP3    H214698   4.839   1.773   3.919
 4898TIP3   OH214699   4.715   0.534   2.608
 4898TIP3    H114700   4.721   0.461   2.669
 4898TIP3    H214701   4.670   0.499   2.532
 4899TIP3   OH214702   0.285   2.561   3.991
 4899TIP3    H114703   0.329   2.602   4.065
 4899TIP3    H214704   0.318   2.472   3.989
 4900TIP3   OH214705   0.954   2.246   3.219
 4900TIP3    H114706   0.974   2.280   3.306
 4900TIP3    H214707   0.875   2.292   3.192
 4901TIP3   OH214708   2.027   4.899   3.604
 4901TIP3    H114709   2.111   4.922   3.562
 4901TIP3    H214710   2.019   4.962   3.676
 4902TIP3   OH214711   5.337   3.626   3.099
 4902TIP3    H114712   5.390   3.704   3.114
 4902TIP3    H214713   5.383   3.556   3.144
 4903TIP3   OH214714   2.429   4.501   4.220
 4903TIP3    H114715   2.447   4.445   4.296
 4903TIP3    H214716   2.348   4.546   4.242
 4904TIP3   OH214717   1.574   0.491   4.374
 4904TIP3    H114718   1.644   0.481   4.438
 4904TIP3    H214719   1.618   0.519   4.294
 4905TIP3   OH214720   6.013   1.069   2.970
 4905TIP3    H114721   5.973   1.108   3.048
 4905TIP3    H214722   6.105   1.055   2.993
 4906TIP3   OH214723   0.059   3.642   2.268
 4906TIP3    H114724   0.124   3.679   2.328
 4906TIP3    H214725  -0.024   3.651   2.314
 4907TIP3   OH214726   1.857   0.792   5.125
 4907TIP3    H114727   1.852   0.697   5.131
 4907TIP3    H214728   1.944   0.813   5.159
 4908TIP3   OH214729   3.129   3.749   3.915
 4908TIP3    H114730   3.167   3.798   3.987
 4908TIP3    H214731   3.186   3.768   3.840
 4909TIP3   OH214732   5.438   4.991   4.495
 4909TIP3    H114733   5.498   5.053   4.536
 4909TIP3    H214734   5.368   4.979   4.559
 4910TIP3   OH214735   3.337   3.440   2.663
 4910TIP3    H114736   3.279   3.508   2.628
 4910TIP3    H214737   3.290   3.404   2.738
 4911TIP3   OH214738   3.925   4.017   3.144
 4911TIP3    H114739   3.897   3.926   3.154
 4911TIP3    H214740   3.902   4.058   3.227
 4912TIP3   OH214741   3.369   2.329   3.527
 4912TIP3    H114742   3.437   2.301   3.589
 4912TIP3    H214743   3.378   2.424   3.523
 4913TIP3   OH214744   0.510   3.003   5.007
 4913TIP3    H114745   0.505   2.978   5.099
 4913TIP3    H214746   0.599   3.035   4.995
 4914TIP3   OH214747   3.777   0.301   3.041
 4914TIP3    H114748   3.839   0.289   2.969
 4914TIP3    H214749   3.819   0.363   3.099
 4915TIP3   OH214750   5.272   1.094   5.157
 4915TIP3    H114751   5.364   1.080   5.176
 4915TIP3    H214752   5.260   1.189   5.166
 4916TIP3   OH214753   2.590   0.055   3.759
 4916TIP3    H114754   2.658   0.020   3.702
 4916TIP3    H214755   2.599   0.150   3.751
 4917TIP3   OH214756   0.680   3.458   3.768
 4917TIP3    H114757   0.765   3.423   3.741
 4917TIP3    H214758   0.654   3.403   3.842
 4918TIP3   OH214759   2.538   5.224   3.818
 4918TIP3    H114760   2.541   5.315   3.789
 4918TIP3    H214761   2.488   5.227   3.899
 4919TIP3   OH214762   2.573   5.316   2.930
 4919TIP3    H114763   2.541   5.246   2.873
 4919TIP3    H214764   2.630   5.272   2.993
 4920TIP3   OH214765   0.049   0.198   1.685
 4920TIP3    H114766   0.118   0.140   1.654
 4920TIP3    H214767   0.080   0.286   1.666
 4921TIP3   OH214768   6.042   0.680   2.518
 4921TIP3    H114769   6.054   0.638   2.433
 4921TIP3    H214770   6.127   0.671   2.561
 4922TIP3   OH214771   1.913   1.351   0.828
 4922TIP3    H114772   1.855   1.324   0.757
 4922TIP3    H214773   1.913   1.447   0.824
 4923TIP3   OH214774   0.071   0.808   3.709
 4923TIP3    H114775  -0.018   0.775   3.716
 4923TIP3    H214776   0.126   0.731   3.719
 4924TIP3   OH214777   6.174   2.892   3.339
 4924TIP3    H114778   6.175   2.796   3.334
 4924TIP3    H214779   6.137   2.911   3.425
 4925TIP3   OH214780   4.410   1.862   3.193
 4925TIP3    H114781   4.407   1.767   3.181
 4925TIP3    H214782   4.498   1.887   3.163
 4926TIP3   OH214783   2.636   1.615   2.361
 4926TIP3    H114784   2.707   1.621   2.298
 4926TIP3    H214785   2.661   1.543   2.419
 4927TIP3   OH214786   5.612   2.247   4.003
 4927TIP3    H114787   5.603   2.159   4.040
 4927TIP3    H214788   5.604   2.235   3.909
 4928TIP3   OH214789   1.949   2.581   5.162
 4928TIP3    H114790   1.933   2.504   5.109
 4928TIP3    H214791   2.044   2.588   5.166
 4929TIP3   OH214792   4.565   0.723   0.776
 4929TIP3    H114793   4.565   0.773   0.694
 4929TIP3    H214794   4.575   0.632   0.748
 4930TIP3   OH214795   5.332   0.918   3.977
 4930TIP3    H114796   5.383   0.847   3.938
 4930TIP3    H214797   5.249   0.918   3.929
 4931TIP3   OH214798   3.428   4.227   0.430
 4931TIP3    H114799   3.482   4.223   0.350
 4931TIP3    H214800   3.372   4.150   0.425
 4932TIP3   OH214801   5.967   1.648   1.093
 4932TIP3    H114802   6.025   1.575   1.070
 4932TIP3    H214803   5.996   1.676   1.179
 4933TIP3   OH214804   2.569   1.560   1.288
 4933TIP3    H114805   2.520   1.583   1.209
 4933TIP3    H214806   2.514   1.593   1.360
 4934TIP3   OH214807   3.997   4.996   0.898
 4934TIP3    H114808   4.001   5.087   0.870
 4934TIP3    H214809   4.025   4.998   0.990
 4935TIP3   OH214810   4.927   3.808   0.460
 4935TIP3    H114811   4.952   3.723   0.422
 4935TIP3    H214812   4.883   3.854   0.389
 4936TIP3   OH214813   5.940   0.160   4.244
 4936TIP3    H114814   5.858   0.176   4.197
 4936TIP3    H214815   5.917   0.095   4.310
 4937TIP3   OH214816   2.205   5.694   3.168
 4937TIP3    H114817   2.215   5.778   3.213
 4937TIP3    H214818   2.142   5.712   3.098
 4938TIP3   OH214819   1.451   5.028   0.520
 4938TIP3    H114820   1.514   5.043   0.590
 4938TIP3    H214821   1.392   5.104   0.523
 4939TIP3   OH214822   2.060   1.275   5.076
 4939TIP3    H114823   2.016   1.202   5.033
 4939TIP3    H214824   2.146   1.279   5.034
 4940TIP3   OH214825   4.775   3.522   1.249
 4940TIP3    H114826   4.715   3.592   1.274
 4940TIP3    H214827   4.807   3.488   1.333
 4941TIP3   OH214828   2.299   1.480   4.025
 4941TIP3    H114829   2.340   1.407   4.071
 4941TIP3    H214830   2.370   1.520   3.974
 4942TIP3   OH214831   1.497   1.824   1.961
 4942TIP3    H114832   1.493   1.912   1.923
 4942TIP3    H214833   1.406   1.798   1.972
 4943TIP3   OH214834   2.523   1.827   0.175
 4943TIP3    H114835   2.501   1.777   0.097
 4943TIP3    H214836   2.593   1.777   0.217
 4944TIP3   OH214837   2.998   3.721   0.343
 4944TIP3    H114838   3.034   3.633   0.350
 4944TIP3    H214839   2.951   3.735   0.426
 4945TIP3   OH214840   1.971   3.729   4.011
 4945TIP3    H114841   1.914   3.806   4.004
 4945TIP3    H214842   1.986   3.703   3.920
 4946TIP3   OH214843   5.474   1.844   3.541
 4946TIP3    H114844   5.425   1.770   3.506
 4946TIP3    H214845   5.510   1.811   3.623
 4947TIP3   OH214846   1.555   4.796   1.842
 4947TIP3    H114847   1.496   4.869   1.859
 4947TIP3    H214848   1.574   4.801   1.748
 4948TIP3   OH214849   2.617   2.577   2.711
 4948TIP3    H114850   2.612   2.578   2.615
 4948TIP3    H214851   2.556   2.645   2.739
 4949TIP3   OH214852   1.850   2.550   0.161
 4949TIP3    H114853   1.893   2.502   0.232
 4949TIP3    H214854   1.913   2.550   0.090
 4950TIP3   OH214855   6.254   4.717   4.784
 4950TIP3    H114856   6.167   4.752   4.764
 4950TIP3    H214857   6.300   4.790   4.826
 4951TIP3   OH214858   1.998   2.697   2.576
 4951TIP3    H114859   2.020   2.612   2.615
 4951TIP3    H214860   2.082   2.730   2.544
 4952TIP3   OH214861   0.475   4.866   3.376
 4952TIP3    H114862   0.564   4.835   3.391
 4952TIP3    H214863   0.486   4.946   3.324
 4953TIP3   OH214864   5.786   0.813   3.328
 4953TIP3    H114865   5.837   0.876   3.379
 4953TIP3    H214866   5.784   0.734   3.381
 4954TIP3   OH214867   4.624   4.813   2.812
 4954TIP3    H114868   4.608   4.732   2.861
 4954TIP3    H214869   4.717   4.811   2.791
 4955TIP3   OH214870   3.746   3.825   1.160
 4955TIP3    H114871   3.709   3.754   1.213
 4955TIP3    H214872   3.834   3.796   1.138
 4956TIP3   OH214873   1.583   0.687   2.769
 4956TIP3    H114874   1.614   0.737   2.844
 4956TIP3    H214875   1.505   0.640   2.801
 4957TIP3   OH214876   0.952   3.891   1.946
 4957TIP3    H114877   1.040   3.880   1.982
 4957TIP3    H214878   0.957   3.848   1.860
 4958TIP3   OH214879   3.278   2.608   2.628
 4958TIP3    H114880   3.303   2.652   2.547
 4958TIP3    H214881   3.274   2.515   2.605
 4959TIP3   OH214882   3.553   1.304   4.288
 4959TIP3    H114883   3.531   1.260   4.370
 4959TIP3    H214884   3.470   1.311   4.242
 4960TIP3   OH214885   1.924   0.223   3.253
 4960TIP3    H114886   1.988   0.205   3.322
 4960TIP3    H214887   1.965   0.187   3.173
 4961TIP3   OH214888   1.247   0.924   4.805
 4961TIP3    H114889   1.265   0.830   4.800
 4961TIP3    H214890   1.166   0.930   4.855
 4962TIP3   OH214891   1.131   2.922   1.611
 4962TIP3    H114892   1.101   2.896   1.524
 4962TIP3    H214893   1.069   2.989   1.639
 4963TIP3   OH214894   3.170   1.392   0.998
 4963TIP3    H114895   3.183   1.467   1.056
 4963TIP3    H214896   3.205   1.318   1.047
 4964TIP3   OH214897   4.601   4.992   3.703
 4964TIP3    H114898   4.649   4.972   3.623
 4964TIP3    H214899   4.513   5.017   3.673
 4965TIP3   OH214900   1.121   5.061   1.400
 4965TIP3    H114901   1.050   5.066   1.464
 4965TIP3    H214902   1.078   5.042   1.317
 4966TIP3   OH214903   0.597   1.312   2.660
 4966TIP3    H114904   0.690   1.293   2.661
 4966TIP3    H214905   0.583   1.367   2.738
 4967TIP3   OH214906   0.578   3.278   3.937
 4967TIP3    H114907   0.523   3.231   3.874
 4967TIP3    H214908   0.633   3.210   3.976
 4968TIP3   OH214909   6.244   5.728   4.028
 4968TIP3    H114910   6.332   5.692   4.019
 4968TIP3    H214911   6.186   5.662   3.989
 4969TIP3   OH214912   0.726   1.874   0.195
 4969TIP3    H114913   0.655   1.856   0.257
 4969TIP3    H214914   0.793   1.917   0.247
 4970TIP3   OH214915   1.831   4.764   3.772
 4970TIP3    H114916   1.906   4.764   3.831
 4970TIP3    H214917   1.863   4.806   3.692
 4971TIP3   OH214918   4.772   4.707   3.432
 4971TIP3    H114919   4.773   4.715   3.337
 4971TIP3    H214920   4.794   4.615   3.449
 4972TIP3   OH214921   4.531   3.891   3.244
 4972TIP3    H114922   4.541   3.929   3.157
 4972TIP3    H214923   4.609   3.836   3.256
 4973TIP3   OH214924   2.231   5.933   3.346
 4973TIP3    H114925   2.309   5.904   3.393
 4973TIP3    H214926   2.160   5.924   3.410
 4974TIP3   OH214927   3.307   2.595   1.160
 4974TIP3    H114928   3.316   2.542   1.081
 4974TIP3    H214929   3.286   2.682   1.128
 4975TIP3   OH214930   1.068   4.336   0.072
 4975TIP3    H114931   1.097   4.410   0.126
 4975TIP3    H214932   0.987   4.366   0.032
 4976TIP3   OH214933   4.136   2.011   4.111
 4976TIP3    H114934   4.065   1.948   4.095
 4976TIP3    H214935   4.215   1.957   4.113
 4977TIP3   OH214936   1.769   5.200   3.248
 4977TIP3    H114937   1.855   5.230   3.219
 4977TIP3    H214938   1.786   5.152   3.329
 4978TIP3   OH214939   1.882   3.586   0.791
 4978TIP3    H114940   1.847   3.661   0.742
 4978TIP3    H214941   1.931   3.536   0.726
 4979TIP3   OH214942   5.520   3.736   0.765
 4979TIP3    H114943   5.532   3.748   0.860
 4979TIP3    H214944   5.454   3.801   0.741
 4980TIP3   OH214945   1.306   3.789   3.811
 4980TIP3    H114946   1.297   3.885   3.813
 4980TIP3    H214947   1.221   3.757   3.782
 4981TIP3   OH214948   1.525   4.360   3.672
 4981TIP3    H114949   1.515   4.454   3.682
 4981TIP3    H214950   1.461   4.322   3.732
 4982TIP3   OH214951   4.073   4.199   0.793
 4982TIP3    H114952   4.150   4.248   0.763
 4982TIP3    H214953   4.013   4.267   0.827
 4983TIP3   OH214954   0.139   1.125   2.919
 4983TIP3    H114955   0.133   1.089   2.830
 4983TIP3    H214956   0.201   1.198   2.911
 4984TIP3   OH214957   4.925   2.900   3.103
 4984TIP3    H114958   4.894   2.827   3.049
 4984TIP3    H214959   4.965   2.858   3.179
 4985TIP3   OH214960   2.442   5.331   1.291
 4985TIP3    H114961   2.519   5.320   1.346
 4985TIP3    H214962   2.377   5.271   1.328
 4986TIP3   OH214963   3.377   5.267   1.629
 4986TIP3    H114964   3.398   5.317   1.708
 4986TIP3    H214965   3.411   5.320   1.557
 4987TIP3   OH214966   2.443   4.880   3.177
 4987TIP3    H114967   2.358   4.893   3.135
 4987TIP3    H214968   2.475   4.797   3.141
 4988TIP3   OH214969   0.787   2.476   1.899
 4988TIP3    H114970   0.793   2.540   1.828
 4988TIP3    H214971   0.694   2.474   1.922
 4989TIP3   OH214972   0.729   5.482   2.914
 4989TIP3    H114973   0.713   5.563   2.866
 4989TIP3    H214974   0.693   5.414   2.858
 4990TIP3   OH214975   5.422   0.746   3.063
 4990TIP3    H114976   5.499   0.695   3.091
 4990TIP3    H214977   5.458   0.830   3.034
 4991TIP3   OH214978   2.579   2.418   1.747
 4991TIP3    H114979   2.607   2.370   1.669
 4991TIP3    H214980   2.658   2.462   1.778
 4992TIP3   OH214981   1.498   4.372   2.055
 4992TIP3    H114982   1.526   4.427   1.982
 4992TIP3    H214983   1.405   4.390   2.064
 4993TIP3   OH214984   2.914   5.510   0.443
 4993TIP3    H114985   2.849   5.447   0.413
 4993TIP3    H214986   2.960   5.538   0.364
 4994TIP3   OH214987   3.885   2.700   1.370
 4994TIP3    H114988   3.828   2.624   1.361
 4994TIP3    H214989   3.826   2.775   1.361
 4995TIP3   OH214990   2.297   5.375   4.558
 4995TIP3    H114991   2.232   5.306   4.569
 4995TIP3    H214992   2.276   5.439   4.626
 4996TIP3   OH214993   5.215   0.448   2.861
 4996TIP3    H114994   5.223   0.369   2.809
 4996TIP3    H214995   5.303   0.487   2.860
 4997TIP3   OH214996   3.404   0.670   0.349
 4997TIP3    H114997   3.379   0.613   0.276
 4997TIP3    H214998   3.461   0.736   0.310
 4998TIP3   OH214999   4.406   3.576   1.294
 4998TIP3    H115000   4.361   3.527   1.226
 4998TIP3    H215001   4.479   3.618   1.248
 4999TIP3   OH215002   2.814   4.783   4.402
 4999TIP3    H115003   2.771   4.860   4.365
 4999TIP3    H215004   2.815   4.799   4.496
 5000TIP3   OH215005   1.677   2.557   3.353
 5000TIP3    H115006   1.624   2.546   3.431
 5000TIP3    H215007   1.767   2.550   3.384
 5001TIP3   OH215008   5.182   2.388   4.734
 5001TIP3    H115009   5.204   2.466   4.786
 5001TIP3    H215010   5.130   2.334   4.793
 5002TIP3   OH215011   0.305   3.984   4.868
 5002TIP3    H115012   0.293   4.010   4.777
 5002TIP3    H215013   0.379   4.037   4.899
 5003TIP3   OH215014   5.454   4.810   4.288
 5003TIP3    H115015   5.410   4.730   4.318
 5003TIP3    H215016   5.455   4.867   4.365
 5004TIP3   OH215017   6.218   4.154   0.870
 5004TIP3    H115018   6.250   4.099   0.798
 5004TIP3    H215019   6.128   4.176   0.845
 5005TIP3   OH215020   0.825   1.498   0.875
 5005TIP3    H115021   0.905   1.550   0.866
 5005TIP3    H215022   0.766   1.532   0.807
 5006TIP3   OH215023   4.266   0.377   5.135
 5006TIP3    H115024   4.229   0.420   5.213
 5006TIP3    H215025   4.361   0.386   5.146
 5007TIP3   OH215026   0.653   3.293   2.267
 5007TIP3    H115027   0.652   3.222   2.331
 5007TIP3    H215028   0.741   3.291   2.231
 5008TIP3   OH215029   3.249   4.896   1.479
 5008TIP3    H115030   3.342   4.882   1.463
 5008TIP3    H215031   3.242   4.912   1.573
 5009TIP3   OH215032   0.365   0.328   3.060
 5009TIP3    H115033   0.333   0.303   2.973
 5009TIP3    H215034   0.439   0.387   3.042
 5010TIP3   OH215035   6.121   4.030   0.611
 5010TIP3    H115036   6.165   3.956   0.653
 5010TIP3    H215037   6.080   3.991   0.533
 5011TIP3   OH215038   1.184   3.131   1.437
 5011TIP3    H115039   1.100   3.170   1.461
 5011TIP3    H215040   1.205   3.072   1.509
 5012TIP3   OH215041   4.678   2.492   4.395
 5012TIP3    H115042   4.740   2.495   4.322
 5012TIP3    H215043   4.614   2.560   4.374
 5013TIP3   OH215044   6.166   5.676   4.297
 5013TIP3    H115045   6.168   5.671   4.201
 5013TIP3    H215046   6.216   5.754   4.319
 5014TIP3   OH215047   0.702   5.398   1.521
 5014TIP3    H115048   0.678   5.490   1.511
 5014TIP3    H215049   0.727   5.370   1.432
 5015TIP3   OH215050   2.826   4.023   4.872
 5015TIP3    H115051   2.803   3.963   4.802
 5015TIP3    H215052   2.903   4.069   4.840
 5016TIP3   OH215053   3.100   3.927   4.149
 5016TIP3    H115054   3.032   3.994   4.139
 5016TIP3    H215055   3.178   3.976   4.175
 5017TIP3   OH215056   3.979   5.540   1.494
 5017TIP3    H115057   3.978   5.525   1.588
 5017TIP3    H215058   3.915   5.477   1.459
 5018TIP3   OH215059   0.113   5.875   4.349
 5018TIP3    H115060   0.066   5.856   4.430
 5018TIP3    H215061   0.176   5.803   4.340
 5019TIP3   OH215062   0.639  -0.005   4.837
 5019TIP3    H115063   0.728   0.006   4.804
 5019TIP3    H215064   0.648  -0.063   4.912
 5020TIP3   OH215065   1.263   0.971   1.533
 5020TIP3    H115066   1.292   1.023   1.458
 5020TIP3    H215067   1.280   1.027   1.608
 5021TIP3   OH215068   3.616   3.404   0.099
 5021TIP3    H115069   3.612   3.499   0.084
 5021TIP3    H215070   3.524   3.377   0.107
 5022TIP3   OH215071   4.744   0.533   3.334
 5022TIP3    H115072   4.765   0.446   3.366
 5022TIP3    H215073   4.689   0.518   3.257
 5023TIP3   OH215074   2.953   0.964   2.088
 5023TIP3    H115075   2.965   0.976   1.994
 5023TIP3    H215076   2.992   0.879   2.107
 5024TIP3   OH215077   5.046   4.116   2.519
 5024TIP3    H115078   5.041   4.139   2.611
 5024TIP3    H215079   5.099   4.186   2.479
 5025TIP3   OH215080   0.730   2.446   5.178
 5025TIP3    H115081   0.808   2.396   5.205
 5025TIP3    H215082   0.671   2.380   5.142
 5026TIP3   OH215083   0.548   0.542   4.824
 5026TIP3    H115084   0.486   0.498   4.765
 5026TIP3    H215085   0.513   0.630   4.835
 5027TIP3   OH215086   1.792   5.187   2.316
 5027TIP3    H115087   1.727   5.255   2.299
 5027TIP3    H215088   1.765   5.147   2.399
 5028TIP3   OH215089   3.344   0.725   0.800
 5028TIP3    H115090   3.345   0.696   0.709
 5028TIP3    H215091   3.253   0.751   0.816
 5029TIP3   OH215092   3.049   1.941   2.190
 5029TIP3    H115093   3.023   2.009   2.253
 5029TIP3    H215094   2.983   1.947   2.121
 5030TIP3   OH215095   1.444   4.752   3.554
 5030TIP3    H115096   1.514   4.703   3.598
 5030TIP3    H215097   1.463   4.844   3.573
 5031TIP3   OH215098   5.401   1.911   2.100
 5031TIP3    H115099   5.372   1.866   2.180
 5031TIP3    H215100   5.323   1.915   2.045
 5032TIP3   OH215101   2.636   0.643   2.154
 5032TIP3    H115102   2.568   0.674   2.093
 5032TIP3    H215103   2.599   0.657   2.241
 5033TIP3   OH215104   1.239   4.535   2.007
 5033TIP3    H115105   1.194   4.466   1.958
 5033TIP3    H215106   1.287   4.583   1.940
 5034TIP3   OH215107   4.020   1.658   4.793
 5034TIP3    H115108   4.063   1.668   4.878
 5034TIP3    H215109   3.954   1.590   4.807
 5035TIP3   OH215110   2.572   0.828   0.289
 5035TIP3    H115111   2.500   0.826   0.352
 5035TIP3    H215112   2.529   0.845   0.205
 5036TIP3   OH215113   2.824   1.752   3.978
 5036TIP3    H115114   2.891   1.815   4.005
 5036TIP3    H215115   2.743   1.803   3.975
 5037TIP3   OH215116   2.635   1.700   0.981
 5037TIP3    H115117   2.731   1.703   0.972
 5037TIP3    H215118   2.616   1.762   1.052
 5038TIP3   OH215119   2.597   1.532   0.620
 5038TIP3    H115120   2.537   1.519   0.547
 5038TIP3    H215121   2.544   1.516   0.698
 5039TIP3   OH215122   0.135   1.841   2.411
 5039TIP3    H115123   0.131   1.937   2.405
 5039TIP3    H215124   0.152   1.824   2.504
 5040TIP3   OH215125   2.524   5.202   4.674
 5040TIP3    H115126   2.549   5.294   4.674
 5040TIP3    H215127   2.514   5.181   4.581
 5041TIP3   OH215128   4.863   3.339   0.119
 5041TIP3    H115129   4.899   3.347   0.031
 5041TIP3    H215130   4.870   3.246   0.140
 5042TIP3   OH215131   4.745   3.382   4.718
 5042TIP3    H115132   4.839   3.386   4.706
 5042TIP3    H215133   4.729   3.425   4.802
 5043TIP3   OH215134   5.172   2.849   5.030
 5043TIP3    H115135   5.086   2.831   4.991
 5043TIP3    H215136   5.158   2.928   5.082
 5044TIP3   OH215137   0.170   0.058   4.632
 5044TIP3    H115138   0.251   0.015   4.659
 5044TIP3    H215139   0.127   0.081   4.715
 5045TIP3   OH215140   0.692   5.032   1.267
 5045TIP3    H115141   0.785   5.011   1.273
 5045TIP3    H215142   0.677   5.046   1.173
 5046TIP3   OH215143   3.088   5.572   0.663
 5046TIP3    H115144   3.024   5.550   0.595
 5046TIP3    H215145   3.172   5.570   0.618
 5047TIP3   OH215146   5.937   5.151   1.568
 5047TIP3    H115147   5.871   5.218   1.585
 5047TIP3    H215148   6.020   5.191   1.593
 5048TIP3   OH215149   5.435   5.662   3.007
 5048TIP3    H115150   5.409   5.692   3.094
 5048TIP3    H215151   5.366   5.695   2.949
 5049TIP3   OH215152   5.057   2.122   2.260
 5049TIP3    H115153   5.151   2.104   2.270
 5049TIP3    H215154   5.047   2.214   2.286
 5050TIP3   OH215155   6.202   0.801   1.685
 5050TIP3    H115156   6.203   0.710   1.713
 5050TIP3    H215157   6.113   0.831   1.704
 5051TIP3   OH215158   2.891   5.487   3.702
 5051TIP3    H115159   2.940   5.568   3.694
 5051TIP3    H215160   2.955   5.417   3.687
 5052TIP3   OH215161   1.962   4.109   3.934
 5052TIP3    H115162   1.900   4.041   3.910
 5052TIP3    H215163   1.912   4.191   3.927
 5053TIP3   OH215164   5.974   3.836   1.063
 5053TIP3    H115165   5.955   3.823   0.970
 5053TIP3    H215166   5.944   3.925   1.082
 5054TIP3   OH215167   2.202   3.377   1.242
 5054TIP3    H115168   2.276   3.432   1.269
 5054TIP3    H215169   2.180   3.408   1.154
 5055TIP3   OH215170   5.142   0.334   1.250
 5055TIP3    H115171   5.130   0.426   1.227
 5055TIP3    H215172   5.206   0.302   1.187
 5056TIP3   OH215173   1.800   0.654   0.174
 5056TIP3    H115174   1.855   0.668   0.097
 5056TIP3    H215175   1.778   0.561   0.172
 5057TIP3   OH215176   3.080   2.671   0.864
 5057TIP3    H115177   3.080   2.714   0.779
 5057TIP3    H215178   3.172   2.647   0.879
 5058TIP3   OH215179   2.863   0.053   4.552
 5058TIP3    H115180   2.896  -0.016   4.610
 5058TIP3    H215181   2.940   0.086   4.507
 5059TIP3   OH215182   1.390   1.628   3.016
 5059TIP3    H115183   1.419   1.542   2.985
 5059TIP3    H215184   1.360   1.612   3.105
 5060TIP3   OH215185   2.275   0.269   4.352
 5060TIP3    H115186   2.218   0.224   4.414
 5060TIP3    H215187   2.216   0.324   4.300
 5061TIP3   OH215188   0.323   4.881   0.727
 5061TIP3    H115189   0.385   4.924   0.786
 5061TIP3    H215190   0.364   4.797   0.706
 5062TIP3   OH215191   4.482   4.874   3.912
 5062TIP3    H115192   4.449   4.790   3.879
 5062TIP3    H215193   4.520   4.916   3.835
 5063TIP3   OH215194   5.110   4.616   3.710
 5063TIP3    H115195   5.110   4.606   3.614
 5063TIP3    H215196   5.022   4.648   3.730
 5064TIP3   OH215197   5.387   2.532   3.971
 5064TIP3    H115198   5.343   2.452   3.942
 5064TIP3    H215199   5.323   2.602   3.955
 5065TIP3   OH215200   3.767   4.425   0.107
 5065TIP3    H115201   3.743   4.498   0.050
 5065TIP3    H215202   3.825   4.371   0.054
 5066TIP3   OH215203   1.255   0.024   3.765
 5066TIP3    H115204   1.215  -0.037   3.703
 5066TIP3    H215205   1.328   0.063   3.717
 5067TIP3   OH215206   0.310   2.389   4.548
 5067TIP3    H115207   0.237   2.383   4.487
 5067TIP3    H215208   0.277   2.444   4.619
 5068TIP3   OH215209   2.275   4.921   1.954
 5068TIP3    H115210   2.248   4.835   1.922
 5068TIP3    H215211   2.370   4.922   1.942
 5069TIP3   OH215212   1.174   0.358   1.722
 5069TIP3    H115213   1.203   0.281   1.770
 5069TIP3    H215214   1.084   0.337   1.696
 5070TIP3   OH215215   2.391   0.429   2.922
 5070TIP3    H115216   2.302   0.428   2.958
 5070TIP3    H215217   2.425   0.515   2.945
 5071TIP3   OH215218   4.931   0.550   4.520
 5071TIP3    H115219   4.921   0.593   4.605
 5071TIP3    H215220   5.020   0.516   4.521
 5072TIP3   OH215221   3.534   1.492   1.648
 5072TIP3    H115222   3.593   1.427   1.609
 5072TIP3    H215223   3.475   1.516   1.576
 5073TIP3   OH215224   1.884   2.286   4.497
 5073TIP3    H115225   1.794   2.253   4.488
 5073TIP3    H215226   1.911   2.307   4.407
 5074TIP3   OH215227   4.725   6.000   0.244
 5074TIP3    H115228   4.654   6.042   0.292
 5074TIP3    H215229   4.771   5.947   0.310
 5075TIP3   OH215230   2.276   1.282   2.477
 5075TIP3    H115231   2.182   1.290   2.464
 5075TIP3    H215232   2.298   1.197   2.438
 5076TIP3   OH215233   3.992   0.875   3.612
 5076TIP3    H115234   3.954   0.881   3.524
 5076TIP3    H215235   4.003   0.782   3.628
 5077TIP3   OH215236   0.952   3.348   3.991
 5077TIP3    H115237   0.951   3.442   3.976
 5077TIP3    H215238   1.043   3.328   4.012
 5078TIP3   OH215239   5.944   0.109   1.399
 5078TIP3    H115240   5.879   0.073   1.460
 5078TIP3    H215241   6.021   0.125   1.453
 5079TIP3   OH215242   2.481   0.660   3.794
 5079TIP3    H115243   2.549   0.674   3.728
 5079TIP3    H215244   2.471   0.565   3.798
 5080TIP3   OH215245   4.158   4.442   2.218
 5080TIP3    H115246   4.228   4.445   2.153
 5080TIP3    H215247   4.077   4.446   2.167
 5081TIP3   OH215248   0.828   1.413   1.469
 5081TIP3    H115249   0.800   1.322   1.479
 5081TIP3    H215250   0.898   1.409   1.403
 5082TIP3   OH215251   2.477   1.186   2.997
 5082TIP3    H115252   2.402   1.242   2.976
 5082TIP3    H215253   2.480   1.122   2.926
 5083TIP3   OH215254   2.349   5.384   0.842
 5083TIP3    H115255   2.411   5.456   0.825
 5083TIP3    H215256   2.371   5.318   0.777
 5084TIP3   OH215257   0.661   2.705   2.575
 5084TIP3    H115258   0.608   2.693   2.496
 5084TIP3    H215259   0.680   2.616   2.605
 5085TIP3   OH215260   3.313   1.761   1.800
 5085TIP3    H115261   3.307   1.666   1.813
 5085TIP3    H215262   3.244   1.780   1.737
 5086TIP3   OH215263   5.610   1.190   2.969
 5086TIP3    H115264   5.602   1.285   2.979
 5086TIP3    H215265   5.664   1.178   2.891
 5087TIP3   OH215266   2.412   0.781   1.962
 5087TIP3    H115267   2.462   0.862   1.970
 5087TIP3    H215268   2.329   0.808   1.923
 5088TIP3   OH215269   3.730   0.280   3.808
 5088TIP3    H115270   3.780   0.304   3.886
 5088TIP3    H215271   3.778   0.321   3.735
 5089TIP3   OH215272   3.481   3.407   2.084
 5089TIP3    H115273   3.448   3.462   2.156
 5089TIP3    H215274   3.439   3.442   2.006
 5090TIP3   OH215275   6.245   1.088   3.540
 5090TIP3    H115276   6.276   1.175   3.516
 5090TIP3    H215277   6.211   1.099   3.629
 5091TIP3   OH215278   4.970   4.932   2.381
 5091TIP3    H115279   4.959   4.844   2.344
 5091TIP3    H215280   5.002   4.985   2.308
 5092TIP3   OH215281   5.270   4.550   3.386
 5092TIP3    H115282   5.307   4.570   3.472
 5092TIP3    H215283   5.225   4.630   3.360
 5093TIP3   OH215284   0.604   1.453   1.825
 5093TIP3    H115285   0.600   1.501   1.742
 5093TIP3    H215286   0.632   1.365   1.801
 5094TIP3   OH215287   2.988   5.940   3.148
 5094TIP3    H115288   2.974   5.853   3.186
 5094TIP3    H215289   2.938   5.999   3.204
 5095TIP3   OH215290   5.894   2.755   1.493
 5095TIP3    H115291   5.990   2.746   1.491
 5095TIP3    H215292   5.877   2.808   1.571
 5096TIP3   OH215293   5.038   4.295   0.982
 5096TIP3    H115294   5.062   4.358   1.049
 5096TIP3    H215295   4.960   4.251   1.016
 5097TIP3   OH215296   0.566   5.036   2.442
 5097TIP3    H115297   0.623   5.047   2.518
 5097TIP3    H215298   0.478   5.050   2.476
 5098TIP3   OH215299   2.545   5.442   1.609
 5098TIP3    H115300   2.583   5.453   1.696
 5098TIP3    H215301   2.451   5.441   1.624
 5099TIP3   OH215302   1.497   1.963   5.031
 5099TIP3    H115303   1.513   1.898   4.963
 5099TIP3    H215304   1.487   2.046   4.983
 5100TIP3   OH215305   3.014   1.304   3.508
 5100TIP3    H115306   2.942   1.354   3.546
 5100TIP3    H215307   3.093   1.347   3.539
 5101TIP3   OH215308   4.009   2.724   3.190
 5101TIP3    H115309   3.967   2.810   3.197
 5101TIP3    H215310   4.091   2.733   3.239
 5102TIP3   OH215311   0.276   0.218   2.785
 5102TIP3    H115312   0.180   0.223   2.789
 5102TIP3    H215313   0.297   0.240   2.695
 5103TIP3   OH215314   3.021   4.986   2.362
 5103TIP3    H115315   3.011   4.895   2.334
 5103TIP3    H215316   2.933   5.022   2.357
 5104TIP3   OH215317   2.515   0.330   1.168
 5104TIP3    H115318   2.508   0.234   1.166
 5104TIP3    H215319   2.496   0.357   1.079
 5105TIP3   OH215320   3.305   3.826   3.660
 5105TIP3    H115321   3.357   3.852   3.584
 5105TIP3    H215322   3.323   3.894   3.725
 5106TIP3   OH215323   5.071   1.308   1.657
 5106TIP3    H115324   5.154   1.295   1.703
 5106TIP3    H215325   5.050   1.400   1.673
 5107TIP3   OH215326   0.926   4.440   4.501
 5107TIP3    H115327   0.854   4.424   4.562
 5107TIP3    H215328   0.951   4.353   4.470
 5108TIP3   OH215329   3.555   2.480   4.585
 5108TIP3    H115330   3.478   2.535   4.570
 5108TIP3    H215331   3.587   2.460   4.497
 5109TIP3   OH215332   5.936   4.089   3.319
 5109TIP3    H115333   5.933   4.128   3.406
 5109TIP3    H215334   5.910   4.160   3.260
 5110TIP3   OH215335   0.951   5.829   1.979
 5110TIP3    H115336   0.900   5.906   2.002
 5110TIP3    H215337   1.035   5.841   2.023
 5111TIP3   OH215338   2.074   1.637   3.819
 5111TIP3    H115339   2.017   1.565   3.790
 5111TIP3    H215340   2.151   1.632   3.763
 5112TIP3   OH215341   4.133   1.663   0.173
 5112TIP3    H115342   4.093   1.603   0.236
 5112TIP3    H215343   4.059   1.701   0.126
 5113TIP3   OH215344   2.943   2.424   0.900
 5113TIP3    H115345   2.966   2.382   0.817
 5113TIP3    H215346   2.976   2.514   0.891
 5114TIP3   OH215347   3.408   1.046   0.092
 5114TIP3    H115348   3.404   0.984   0.019
 5114TIP3    H215349   3.444   0.996   0.165
 5115TIP3   OH215350   3.418   0.458   0.534
 5115TIP3    H115351   3.403   0.519   0.462
 5115TIP3    H215352   3.391   0.373   0.499
 5116TIP3   OH215353   3.523   4.607   4.562
 5116TIP3    H115354   3.600   4.583   4.615
 5116TIP3    H215355   3.455   4.626   4.627
 5117TIP3   OH215356   2.651   2.158   4.935
 5117TIP3    H115357   2.616   2.239   4.897
 5117TIP3    H215358   2.714   2.127   4.870
 5118TIP3   OH215359   0.256   4.931   4.559
 5118TIP3    H115360   0.309   4.901   4.485
 5118TIP3    H215361   0.210   5.007   4.526
 5119TIP3   OH215362   0.348   0.942   1.003
 5119TIP3    H115363   0.379   0.972   0.918
 5119TIP3    H215364   0.395   0.860   1.019
 5120TIP3   OH215365   1.428   0.648   5.167
 5120TIP3    H115366   1.333   0.650   5.179
 5120TIP3    H215367   1.456   0.738   5.181
 5121TIP3   OH215368   3.214   2.870   4.366
 5121TIP3    H115369   3.283   2.914   4.415
 5121TIP3    H215370   3.250   2.783   4.347
 5122TIP3   OH215371   2.938   1.247   4.119
 5122TIP3    H115372   2.858   1.218   4.162
 5122TIP3    H215373   2.991   1.286   4.188
 5123TIP3   OH215374   5.728   5.978   3.609
 5123TIP3    H115375   5.707   5.888   3.636
 5123TIP3    H215376   5.801   5.968   3.548
 5124TIP3   OH215377   3.166   3.013   3.776
 5124TIP3    H115378   3.113   3.084   3.739
 5124TIP3    H215379   3.111   2.935   3.768
 5125TIP3   OH215380   3.257   1.639   0.067
 5125TIP3    H115381   3.340   1.650   0.114
 5125TIP3    H215382   3.266   1.556   0.021
 5126TIP3   OH215383   4.970   1.858   4.214
 5126TIP3    H115384   4.988   1.786   4.274
 5126TIP3    H215385   4.876   1.874   4.225
 5127TIP3   OH215386   0.483   4.500   0.432
 5127TIP3    H115387   0.400   4.541   0.410
 5127TIP3    H215388   0.527   4.489   0.348
 5128TIP3   OH215389   1.998   3.968   3.553
 5128TIP3    H115390   1.939   4.016   3.611
 5128TIP3    H215391   2.076   4.024   3.547
 5129TIP3   OH215392   1.813   0.344   0.940
 5129TIP3    H115393   1.775   0.263   0.906
 5129TIP3    H215394   1.852   0.319   1.024
 5130TIP3   OH215395   0.683   4.255   1.042
 5130TIP3    H115396   0.627   4.269   1.119
 5130TIP3    H215397   0.649   4.175   1.002
 5131TIP3   OH215398   3.137   0.459   2.305
 5131TIP3    H115399   3.131   0.519   2.380
 5131TIP3    H215400   3.060   0.403   2.314
 5132TIP3   OH215401   2.844   3.883   4.602
 5132TIP3    H115402   2.868   3.835   4.523
 5132TIP3    H215403   2.868   3.824   4.674
 5133TIP3   OH215404   0.714   3.258   4.763
 5133TIP3    H115405   0.738   3.278   4.672
 5133TIP3    H215406   0.795   3.227   4.803
 5134TIP3   OH215407   0.672   5.075   2.929
 5134TIP3    H115408   0.642   5.087   3.019
 5134TIP3    H215409   0.767   5.084   2.935
 5135TIP3   OH215410   4.419   4.187   1.567
 5135TIP3    H115411   4.443   4.202   1.476
 5135TIP3    H215412   4.474   4.248   1.616
 5136TIP3   OH215413   2.894   4.341   4.638
 5136TIP3    H115414   2.878   4.249   4.617
 5136TIP3    H215415   2.988   4.352   4.628
 5137TIP3   OH215416   2.211   5.194   1.428
 5137TIP3    H115417   2.116   5.193   1.416
 5137TIP3    H215418   2.230   5.114   1.476
 5138TIP3   OH215419   3.728   5.066   4.821
 5138TIP3    H115420   3.712   5.021   4.904
 5138TIP3    H215421   3.657   5.036   4.764
 5139TIP3   OH215422   1.830   1.486   4.839
 5139TIP3    H115423   1.869   1.403   4.814
 5139TIP3    H215424   1.890   1.522   4.905
 5140TIP3   OH215425   3.769   3.977   5.241
 5140TIP3    H115426   3.703   3.914   5.212
 5140TIP3    H215427   3.739   4.061   5.204
 5141TIP3   OH215428   5.427   0.065   3.935
 5141TIP3    H115429   5.462   0.014   4.008
 5141TIP3    H215430   5.485   0.044   3.861
 5142TIP3   OH215431   4.317   2.209   1.602
 5142TIP3    H115432   4.270   2.285   1.568
 5142TIP3    H215433   4.287   2.201   1.693
 5143TIP3   OH215434   1.175   4.963   3.572
 5143TIP3    H115435   1.120   4.931   3.500
 5143TIP3    H215436   1.187   4.888   3.629
 5144TIP3   OH215437   0.630   0.480   1.572
 5144TIP3    H115438   0.667   0.419   1.509
 5144TIP3    H215439   0.681   0.560   1.561
 5145TIP3   OH215440   6.176   1.381   0.483
 5145TIP3    H115441   6.100   1.340   0.524
 5145TIP3    H215442   6.178   1.470   0.519
 5146TIP3   OH215443   4.367   1.286   1.445
 5146TIP3    H115444   4.353   1.278   1.351
 5146TIP3    H215445   4.283   1.318   1.479
 5147TIP3   OH215446   3.903   0.037   3.659
 5147TIP3    H115447   3.941   0.018   3.744
 5147TIP3    H215448   3.809   0.045   3.675
 5148TIP3   OH215449   6.062   0.341   2.402
 5148TIP3    H115450   6.080   0.371   2.491
 5148TIP3    H215451   6.025   0.418   2.358
 5149TIP3   OH215452   0.117   4.725   3.010
 5149TIP3    H115453   0.132   4.654   2.948
 5149TIP3    H215454   0.128   4.805   2.957
 5150TIP3   OH215455   3.441  -0.007   2.382
 5150TIP3    H115456   3.527   0.018   2.416
 5150TIP3    H215457   3.404   0.074   2.348
 5151TIP3   OH215458   5.439   3.887   1.853
 5151TIP3    H115459   5.405   3.819   1.911
 5151TIP3    H215460   5.372   3.956   1.855
 5152TIP3   OH215461   1.247   2.773   3.218
 5152TIP3    H115462   1.235   2.687   3.256
 5152TIP3    H215463   1.340   2.793   3.233
 5153TIP3   OH215464   2.170   1.918   2.901
 5153TIP3    H115465   2.239   1.858   2.931
 5153TIP3    H215466   2.115   1.865   2.843
 5154TIP3   OH215467   6.014   4.403   4.339
 5154TIP3    H115468   6.007   4.496   4.360
 5154TIP3    H215469   6.107   4.382   4.347
 5155TIP3   OH215470   5.186   2.044   1.932
 5155TIP3    H115471   5.091   2.038   1.940
 5155TIP3    H215472   5.207   2.136   1.949
 5156TIP3   OH215473   6.189   1.094   4.768
 5156TIP3    H115474   6.267   1.134   4.730
 5156TIP3    H215475   6.157   1.034   4.701
 5157TIP3   OH215476   5.812   4.114   3.627
 5157TIP3    H115477   5.801   4.180   3.696
 5157TIP3    H215478   5.745   4.135   3.562
 5158TIP3   OH215479   6.216   4.181   4.596
 5158TIP3    H115480   6.269   4.164   4.518
 5158TIP3    H215481   6.166   4.259   4.575
 5159TIP3   OH215482   1.522   3.103   1.711
 5159TIP3    H115483   1.569   3.021   1.721
 5159TIP3    H215484   1.442   3.092   1.762
 5160TIP3   OH215485   4.784   1.913   3.315
 5160TIP3    H115486   4.869   1.929   3.274
 5160TIP3    H215487   4.724   1.900   3.241
 5161TIP3   OH215488   6.303   5.621   0.936
 5161TIP3    H115489   6.356   5.545   0.960
 5161TIP3    H215490   6.236   5.586   0.877
 5162TIP3   OH215491   3.844   5.776   1.378
 5162TIP3    H115492   3.793   5.795   1.457
 5162TIP3    H215493   3.919   5.727   1.410
 5163TIP3   OH215494   2.173   4.969   5.033
 5163TIP3    H115495   2.237   4.984   4.963
 5163TIP3    H215496   2.225   4.963   5.112
 5164TIP3   OH215497   3.416   5.627   2.570
 5164TIP3    H115498   3.337   5.662   2.612
 5164TIP3    H215499   3.382   5.570   2.501
 5165TIP3   OH215500   4.048   3.792   1.167
 5165TIP3    H115501   4.050   3.790   1.262
 5165TIP3    H215502   4.082   3.879   1.144
 5166TIP3   OH215503   5.068   1.437   4.118
 5166TIP3    H115504   5.073   1.348   4.155
 5166TIP3    H215505   4.975   1.450   4.100
 5167TIP3   OH215506   2.935   5.401   3.150
 5167TIP3    H115507   2.943   5.391   3.245
 5167TIP3    H215508   2.861   5.344   3.126
 5168TIP3   OH215509   5.884   0.886   2.783
 5168TIP3    H115510   5.852   0.956   2.727
 5168TIP3    H215511   5.936   0.930   2.850
 5169TIP3   OH215512   5.972   4.864   1.485
 5169TIP3    H115513   5.893   4.813   1.504
 5169TIP3    H215514   5.948   4.954   1.505
 5170TIP3   OH215515   5.779   0.254   3.325
 5170TIP3    H115516   5.786   0.180   3.264
 5170TIP3    H215517   5.728   0.220   3.398
 5171TIP3   OH215518   4.054   2.477   3.349
 5171TIP3    H115519   4.147   2.453   3.340
 5171TIP3    H215520   4.036   2.531   3.273
 5172TIP3   OH215521   5.132   5.405   3.446
 5172TIP3    H115522   5.114   5.316   3.416
 5172TIP3    H215523   5.047   5.440   3.473
 5173TIP3   OH215524   4.624   5.949  -0.010
 5173TIP3    H115525   4.664   5.953   0.077
 5173TIP3    H215526   4.532   5.931   0.007
 5174TIP3   OH215527   5.787   3.995   0.668
 5174TIP3    H115528   5.760   3.998   0.576
 5174TIP3    H215529   5.712   4.031   0.716
 5175TIP3   OH215530   3.294   3.374   4.715
 5175TIP3    H115531   3.230   3.394   4.783
 5175TIP3    H215532   3.376   3.409   4.749
 5176TIP3   OH215533   0.119   4.011   1.461
 5176TIP3    H115534   0.207   3.990   1.493
 5176TIP3    H215535   0.100   3.944   1.396
 5177TIP3   OH215536   3.409   0.823   4.331
 5177TIP3    H115537   3.362   0.906   4.340
 5177TIP3    H215538   3.345   0.756   4.356
 5178TIP3   OH215539   4.856   2.440   0.580
 5178TIP3    H115540   4.793   2.509   0.559
 5178TIP3    H215541   4.818   2.395   0.656
 5179TIP3   OH215542   6.266   4.336   4.357
 5179TIP3    H115543   6.321   4.414   4.351
 5179TIP3    H215544   6.327   4.264   4.373
 5180TIP3   OH215545   0.977   5.047   2.974
 5180TIP3    H115546   1.038   5.023   2.904
 5180TIP3    H215547   0.963   4.965   3.022
 5181TIP3   OH215548   1.781   3.666   4.980
 5181TIP3    H115549   1.739   3.587   5.013
 5181TIP3    H215550   1.709   3.727   4.965
 5182TIP3   OH215551   2.928   5.160   2.833
 5182TIP3    H115552   2.922   5.211   2.752
 5182TIP3    H215553   2.945   5.226   2.900
 5183TIP3   OH215554   5.087   5.572   3.164
 5183TIP3    H115555   5.137   5.495   3.191
 5183TIP3    H215556   5.035   5.542   3.089
 5184TIP3   OH215557   3.037   3.652   1.248
 5184TIP3    H115558   3.096   3.722   1.222
 5184TIP3    H215559   3.033   3.658   1.344
 5185TIP3   OH215560   2.260   1.398   4.422
 5185TIP3    H115561   2.204   1.368   4.350
 5185TIP3    H215562   2.214   1.371   4.501
 5186TIP3   OH215563   0.659   0.959   3.975
 5186TIP3    H115564   0.726   0.957   3.906
 5186TIP3    H215565   0.706   0.932   4.054
 5187TIP3   OH215566   4.192   4.504   2.718
 5187TIP3    H115567   4.249   4.497   2.641
 5187TIP3    H215568   4.125   4.568   2.692
 5188TIP3   OH215569   1.418   1.945   2.315
 5188TIP3    H115570   1.407   1.982   2.403
 5188TIP3    H215571   1.329   1.931   2.284
 5189TIP3   OH215572   4.749   4.349   3.479
 5189TIP3    H115573   4.713   4.341   3.391
 5189TIP3    H215574   4.697   4.419   3.519
 5190TIP3   OH215575   5.611   4.441   2.813
 5190TIP3    H115576   5.685   4.502   2.814
 5190TIP3    H215577   5.649   4.359   2.783
 5191TIP3   OH215578   3.554   3.882   2.955
 5191TIP3    H115579   3.629   3.836   2.918
 5191TIP3    H215580   3.478   3.830   2.929
 5192TIP3   OH215581   4.585   0.723   3.868
 5192TIP3    H115582   4.669   0.693   3.833
 5192TIP3    H215583   4.535   0.643   3.883
 5193TIP3   OH215584  -0.052   4.035   2.787
 5193TIP3    H115585  -0.131   4.012   2.737
 5193TIP3    H215586  -0.085   4.093   2.856
 5194TIP3   OH215587   0.733   2.041   3.759
 5194TIP3    H115588   0.743   2.063   3.666
 5194TIP3    H215589   0.638   2.037   3.773
 5195TIP3   OH215590   1.976   5.565  -0.030
 5195TIP3    H115591   1.906   5.625  -0.056
 5195TIP3    H215592   1.951   5.482  -0.069
 5196TIP3   OH215593   0.130   3.779   2.015
 5196TIP3    H115594   0.048   3.760   1.970
 5196TIP3    H215595   0.112   3.760   2.107
 5197TIP3   OH215596   0.500   5.967   1.613
 5197TIP3    H115597   0.561   5.979   1.540
 5197TIP3    H215598   0.438   6.039   1.606
 5198TIP3   OH215599   1.318   1.763   0.798
 5198TIP3    H115600   1.363   1.815   0.864
 5198TIP3    H215601   1.359   1.787   0.715
 5199TIP3   OH215602   0.122   2.943   1.006
 5199TIP3    H115603   0.193   2.956   0.944
 5199TIP3    H215604   0.126   2.850   1.028
 5200TIP3   OH215605   6.179   2.535   1.418
 5200TIP3    H115606   6.217   2.455   1.381
 5200TIP3    H215607   6.104   2.505   1.469
 5201TIP3   OH215608   2.936   1.971   1.441
 5201TIP3    H115609   2.884   1.909   1.389
 5201TIP3    H215610   2.958   2.041   1.379
 5202TIP3   OH215611   2.699   5.889   2.707
 5202TIP3    H115612   2.771   5.847   2.754
 5202TIP3    H215613   2.742   5.950   2.647
 5203TIP3   OH215614   0.154   0.765   1.663
 5203TIP3    H115615   0.075   0.804   1.699
 5203TIP3    H215616   0.175   0.817   1.586
 5204TIP3   OH215617   3.365   1.205   0.604
 5204TIP3    H115618   3.350   1.298   0.622
 5204TIP3    H215619   3.287   1.161   0.637
 5205TIP3   OH215620   1.269   2.798  -0.028
 5205TIP3    H115621   1.340   2.856   0.002
 5205TIP3    H215622   1.189   2.839   0.004
 5206TIP3   OH215623   5.946   2.545   1.120
 5206TIP3    H115624   5.905   2.460   1.106
 5206TIP3    H215625   6.036   2.525   1.145
 5207TIP3   OH215626   1.423   0.143   1.552
 5207TIP3    H115627   1.463   0.171   1.634
 5207TIP3    H215628   1.433   0.218   1.493
 5208TIP3   OH215629   4.414   4.688   1.226
 5208TIP3    H115630   4.409   4.781   1.244
 5208TIP3    H215631   4.484   4.656   1.284
 5209TIP3   OH215632   4.490   3.506   4.725
 5209TIP3    H115633   4.544   3.584   4.713
 5209TIP3    H215634   4.531   3.460   4.798
 5210TIP3   OH215635   4.490   0.519   4.547
 5210TIP3    H115636   4.566   0.505   4.604
 5210TIP3    H215637   4.525   0.572   4.475
 5211TIP3   OH215638   1.498   4.514   1.838
 5211TIP3    H115639   1.478   4.491   1.748
 5211TIP3    H215640   1.522   4.607   1.835
 5212TIP3   OH215641   2.380   5.192   1.049
 5212TIP3    H115642   2.416   5.213   1.135
 5212TIP3    H215643   2.369   5.278   1.006
 5213TIP3   OH215644   4.103   0.256   3.149
 5213TIP3    H115645   4.128   0.343   3.116
 5213TIP3    H215646   4.186   0.211   3.162
 5214TIP3   OH215647   1.325   0.778   4.253
 5214TIP3    H115648   1.326   0.685   4.276
 5214TIP3    H215649   1.353   0.781   4.162
 5215TIP3   OH215650   1.241   4.421   4.949
 5215TIP3    H115651   1.194   4.358   4.894
 5215TIP3    H215652   1.178   4.491   4.965
 5216TIP3   OH215653   1.981   0.146   1.115
 5216TIP3    H115654   1.962   0.062   1.074
 5216TIP3    H215655   1.967   0.132   1.208
 5217TIP3   OH215656   2.069   0.174   4.494
 5217TIP3    H115657   1.982   0.144   4.468
 5217TIP3    H215658   2.099   0.109   4.557
 5218TIP3   OH215659   3.936   0.366   1.944
 5218TIP3    H115660   3.899   0.444   1.903
 5218TIP3    H215661   4.026   0.363   1.914
 5219TIP3   OH215662   1.115   5.383   4.634
 5219TIP3    H115663   1.186   5.386   4.570
 5219TIP3    H215664   1.122   5.295   4.672
 5220TIP3   OH215665   2.225   0.406   4.855
 5220TIP3    H115666   2.259   0.327   4.897
 5220TIP3    H215667   2.302   0.452   4.823
 5221TIP3   OH215668   4.551   2.595   1.974
 5221TIP3    H115669   4.629   2.566   1.926
 5221TIP3    H215670   4.478   2.551   1.931
 5222TIP3   OH215671   0.507   4.510   0.936
 5222TIP3    H115672   0.501   4.420   0.902
 5222TIP3    H215673   0.433   4.518   0.996
 5223TIP3   OH215674   4.303   2.565   4.523
 5223TIP3    H115675   4.248   2.551   4.600
 5223TIP3    H215676   4.327   2.657   4.526
 5224TIP3   OH215677   4.517   4.138   3.468
 5224TIP3    H115678   4.584   4.166   3.529
 5224TIP3    H215679   4.540   4.180   3.385
 5225TIP3   OH215680   3.226   2.426   3.849
 5225TIP3    H115681   3.154   2.385   3.897
 5225TIP3    H215682   3.303   2.377   3.875
 5226TIP3   OH215683   5.302   0.866   1.591
 5226TIP3    H115684   5.356   0.790   1.613
 5226TIP3    H215685   5.241   0.874   1.664
 5227TIP3   OH215686   2.813   0.348   4.989
 5227TIP3    H115687   2.902   0.383   4.986
 5227TIP3    H215688   2.824   0.254   4.975
 5228TIP3   OH215689   0.333   0.424   2.152
 5228TIP3    H115690   0.418   0.396   2.187
 5228TIP3    H215691   0.273   0.418   2.227
 5229TIP3   OH215692   0.622   1.508   0.398
 5229TIP3    H115693   0.559   1.449   0.439
 5229TIP3    H215694   0.693   1.451   0.370
 5230TIP3   OH215695   2.348   5.620   0.316
 5230TIP3    H115696   2.395   5.697   0.284
 5230TIP3    H215697   2.267   5.618   0.265
 5231TIP3   OH215698   5.036   2.629   1.973
 5231TIP3    H115699   5.047   2.720   1.944
 5231TIP3    H215700   5.095   2.579   1.918
 5232TIP3   OH215701   2.808   0.619   4.108
 5232TIP3    H115702   2.774   0.618   4.197
 5232TIP3    H215703   2.794   0.530   4.075
 5233TIP3   OH215704   3.101   4.098   3.342
 5233TIP3    H115705   3.018   4.061   3.372
 5233TIP3    H215706   3.076   4.177   3.293
 5234TIP3   OH215707   4.985   4.897   3.821
 5234TIP3    H115708   4.933   4.817   3.815
 5234TIP3    H215709   5.051   4.878   3.887
 5235TIP3   OH215710   1.508   3.723   1.325
 5235TIP3    H115711   1.415   3.745   1.333
 5235TIP3    H215712   1.552   3.784   1.384
 5236TIP3   OH215713   0.749   4.564   2.380
 5236TIP3    H115714   0.804   4.620   2.434
 5236TIP3    H215715   0.718   4.496   2.439
 5237TIP3   OH215716   1.128   4.372   1.003
 5237TIP3    H115717   1.137   4.366   0.908
 5237TIP3    H215718   1.211   4.410   1.033
 5238TIP3   OH215719   2.197   2.244   5.008
 5238TIP3    H115720   2.246   2.254   5.090
 5238TIP3    H215721   2.240   2.172   4.963
 5239TIP3   OH215722   4.676   2.582   1.334
 5239TIP3    H115723   4.729   2.655   1.366
 5239TIP3    H215724   4.587   2.600   1.366
 5240TIP3   OH215725   5.718   3.288   4.766
 5240TIP3    H115726   5.664   3.236   4.825
 5240TIP3    H215727   5.784   3.329   4.823
 5241TIP3   OH215728   4.103   4.979   4.504
 5241TIP3    H115729   4.069   5.000   4.591
 5241TIP3    H215730   4.184   5.029   4.498
 5242TIP3   OH215731   0.846   0.414   0.348
 5242TIP3    H115732   0.848   0.470   0.270
 5242TIP3    H215733   0.936   0.411   0.378
 5243TIP3   OH215734   2.629   4.455   2.232
 5243TIP3    H115735   2.688   4.519   2.272
 5243TIP3    H215736   2.580   4.418   2.306
 5244TIP3   OH215737   1.142   3.613   4.494
 5244TIP3    H115738   1.216   3.633   4.436
 5244TIP3    H215739   1.142   3.685   4.557
 5245TIP3   OH215740   4.478   2.031   1.442
 5245TIP3    H115741   4.486   1.944   1.482
 5245TIP3    H215742   4.418   2.079   1.500
 5246TIP3   OH215743   1.847   5.518   4.414
 5246TIP3    H115744   1.891   5.579   4.473
 5246TIP3    H215745   1.791   5.466   4.471
 5247TIP3   OH215746   0.135   0.878   4.825
 5247TIP3    H115747   0.153   0.932   4.902
 5247TIP3    H215748   0.127   0.940   4.753
 5248TIP3   OH215749   2.858   0.988   1.417
 5248TIP3    H115750   2.820   0.929   1.351
 5248TIP3    H215751   2.893   0.930   1.484
 5249TIP3   OH215752   5.926   5.902   3.427
 5249TIP3    H115753   5.953   5.929   3.339
 5249TIP3    H215754   5.958   5.812   3.435
 5250TIP3   OH215755   0.654   5.331   2.616
 5250TIP3    H115756   0.612   5.345   2.531
 5250TIP3    H215757   0.744   5.305   2.594
 5251TIP3   OH215758   4.885   3.093   3.318
 5251TIP3    H115759   4.882   3.063   3.227
 5251TIP3    H215760   4.877   3.188   3.312
 5252TIP3   OH215761   5.829   2.154   3.563
 5252TIP3    H115762   5.869   2.218   3.504
 5252TIP3    H215763   5.784   2.093   3.505
 5253TIP3   OH215764   2.494   1.779   1.484
 5253TIP3    H115765   2.442   1.830   1.422
 5253TIP3    H215766   2.494   1.832   1.564
 5254TIP3   OH215767   3.495   0.306   4.738
 5254TIP3    H115768   3.464   0.227   4.694
 5254TIP3    H215769   3.437   0.317   4.812
 5255TIP3   OH215770   3.390   4.393   4.260
 5255TIP3    H115771   3.390   4.434   4.347
 5255TIP3    H215772   3.298   4.374   4.242
 5256TIP3   OH215773   2.433   4.038   3.685
 5256TIP3    H115774   2.517   4.057   3.727
 5256TIP3    H215775   2.368   4.077   3.742
 5257TIP3   OH215776   4.831   5.625   0.162
 5257TIP3    H115777   4.858   5.536   0.137
 5257TIP3    H215778   4.880   5.642   0.243
 5258TIP3   OH215779   4.266   3.135   2.080
 5258TIP3    H115780   4.302   3.180   2.156
 5258TIP3    H215781   4.173   3.127   2.099
 5259TIP3   OH215782   3.660   2.616   0.242
 5259TIP3    H115783   3.617   2.543   0.287
 5259TIP3    H215784   3.589   2.659   0.193
 5260TIP3   OH215785   6.387   3.353   2.943
 5260TIP3    H115786   6.311   3.373   2.999
 5260TIP3    H215787   6.360   3.380   2.856
 5261TIP3   OH215788   3.269   0.093   1.335
 5261TIP3    H115789   3.316   0.060   1.258
 5261TIP3    H215790   3.338   0.108   1.400
 5262TIP3   OH215791   5.985   5.280   1.018
 5262TIP3    H115792   6.024   5.360   1.053
 5262TIP3    H215793   6.050   5.247   0.955
 5263TIP3   OH215794   3.516   5.762   0.684
 5263TIP3    H115795   3.560   5.734   0.764
 5263TIP3    H215796   3.561   5.715   0.614
 5264TIP3   OH215797   3.201   2.937   1.582
 5264TIP3    H115798   3.244   2.927   1.667
 5264TIP3    H215799   3.259   2.893   1.520
 5265TIP3   OH215800   2.545   3.752   4.736
 5265TIP3    H115801   2.526   3.718   4.649
 5265TIP3    H215802   2.512   3.842   4.734
 5266TIP3   OH215803   1.215   3.645   0.092
 5266TIP3    H115804   1.164   3.600   0.159
 5266TIP3    H215805   1.283   3.691   0.140
 5267TIP3   OH215806   5.349   4.485   0.929
 5267TIP3    H115807   5.303   4.493   0.846
 5267TIP3    H215808   5.428   4.538   0.918
 5268TIP3   OH215809   5.714   5.327   0.842
 5268TIP3    H115810   5.678   5.275   0.770
 5268TIP3    H215811   5.746   5.263   0.905
 5269TIP3   OH215812   0.505   1.955   4.277
 5269TIP3    H115813   0.426   1.981   4.230
 5269TIP3    H215814   0.496   1.861   4.290
 5270TIP3   OH215815   5.997   3.561   0.565
 5270TIP3    H115816   6.001   3.607   0.649
 5270TIP3    H215817   6.075   3.588   0.518
 5271TIP3   OH215818   0.447   5.482   3.589
 5271TIP3    H115819   0.370   5.482   3.532
 5271TIP3    H215820   0.510   5.539   3.545
 5272TIP3   OH215821   3.143   2.635   4.867
 5272TIP3    H115822   3.050   2.646   4.847
 5272TIP3    H215823   3.189   2.663   4.788
 5273TIP3   OH215824   2.867   3.312   1.252
 5273TIP3    H115825   2.961   3.329   1.255
 5273TIP3    H215826   2.849   3.262   1.332
 5274TIP3   OH215827   1.236   2.371   2.425
 5274TIP3    H115828   1.198   2.352   2.340
 5274TIP3    H215829   1.318   2.416   2.405
 5275TIP3   OH215830   1.233   2.464   4.430
 5275TIP3    H115831   1.174   2.520   4.380
 5275TIP3    H215832   1.299   2.436   4.366
 5276TIP3   OH215833   2.711   1.411   2.534
 5276TIP3    H115834   2.799   1.419   2.497
 5276TIP3    H215835   2.692   1.317   2.531
 5277TIP3   OH215836   5.028   3.513   2.369
 5277TIP3    H115837   4.961   3.581   2.361
 5277TIP3    H215838   5.053   3.514   2.461
 5278TIP3   OH215839   2.539   2.562   3.485
 5278TIP3    H115840   2.618   2.616   3.484
 5278TIP3    H215841   2.560   2.487   3.429
 5279TIP3   OH215842   0.152   2.438   1.914
 5279TIP3    H115843   0.241   2.456   1.942
 5279TIP3    H215844   0.127   2.359   1.962
 5280TIP3   OH215845   3.749   4.855   0.407
 5280TIP3    H115846   3.672   4.814   0.445
 5280TIP3    H215847   3.754   4.819   0.318
 5281TIP3   OH215848   2.024   5.495   2.525
 5281TIP3    H115849   1.938   5.475   2.563
 5281TIP3    H215850   2.084   5.496   2.600
 5282TIP3   OH215851   0.084   1.724   5.144
 5282TIP3    H115852   0.151   1.776   5.099
 5282TIP3    H215853   0.087   1.639   5.100
 5283TIP3   OH215854   3.607   3.050   5.014
 5283TIP3    H115855   3.554   3.013   5.085
 5283TIP3    H215856   3.684   2.994   5.010
 5284TIP3   OH215857   0.769   1.054   1.354
 5284TIP3    H115858   0.752   0.980   1.296
 5284TIP3    H215859   0.851   1.031   1.399
 5285TIP3   OH215860   3.453   1.462   1.949
 5285TIP3    H115861   3.548   1.452   1.941
 5285TIP3    H215862   3.423   1.474   1.859
 5286TIP3   OH215863   1.263   5.038   4.490
 5286TIP3    H115864   1.208   4.964   4.465
 5286TIP3    H215865   1.297   5.072   4.407
 5287TIP3   OH215866   1.389   1.343   0.246
 5287TIP3    H115867   1.395   1.292   0.166
 5287TIP3    H215868   1.313   1.399   0.233
 5288TIP3   OH215869   4.956   2.886   1.094
 5288TIP3    H115870   4.928   2.798   1.071
 5288TIP3    H215871   5.046   2.891   1.063
 5289TIP3   OH215872   0.510   5.413   2.397
 5289TIP3    H115873   0.494   5.401   2.303
 5289TIP3    H215874   0.471   5.336   2.438
 5290TIP3   OH215875   3.125   4.404   1.604
 5290TIP3    H115876   3.183   4.333   1.577
 5290TIP3    H215877   3.084   4.433   1.523
 5291TIP3   OH215878   1.148   1.101   3.372
 5291TIP3    H115879   1.243   1.100   3.384
 5291TIP3    H215880   1.119   1.014   3.398
 5292TIP3   OH215881   0.073   4.487   3.801
 5292TIP3    H115882   0.110   4.451   3.881
 5292TIP3    H215883   0.139   4.472   3.734
 5293TIP3   OH215884   4.404   3.901   0.974
 5293TIP3    H115885   4.426   3.810   0.956
 5293TIP3    H215886   4.330   3.920   0.916
 5294TIP3   OH215887   0.064   1.830   3.897
 5294TIP3    H115888   0.068   1.833   3.801
 5294TIP3    H215889   0.130   1.893   3.926
 5295TIP3   OH215890   2.087   5.061   0.289
 5295TIP3    H115891   2.044   5.011   0.219
 5295TIP3    H215892   2.155   5.112   0.244
 5296TIP3   OH215893   1.451   1.317   3.856
 5296TIP3    H115894   1.430   1.224   3.848
 5296TIP3    H215895   1.490   1.340   3.771
 5297TIP3   OH215896   2.422   5.395   3.382
 5297TIP3    H115897   2.423   5.477   3.332
 5297TIP3    H215898   2.454   5.329   3.321
 5298TIP3   OH215899   2.769   2.526   0.623
 5298TIP3    H115900   2.746   2.595   0.685
 5298TIP3    H215901   2.848   2.559   0.580
 5299TIP3   OH215902   2.692   1.961   3.010
 5299TIP3    H115903   2.740   1.976   3.092
 5299TIP3    H215904   2.743   2.006   2.943
 5300TIP3   OH215905   2.384   4.651   1.855
 5300TIP3    H115906   2.428   4.643   1.940
 5300TIP3    H215907   2.292   4.635   1.874
 5301TIP3   OH215908   2.362   4.770   0.577
 5301TIP3    H115909   2.406   4.685   0.587
 5301TIP3    H215910   2.390   4.821   0.653
 5302TIP3   OH215911   2.902   0.468   0.297
 5302TIP3    H115912   2.831   0.530   0.285
 5302TIP3    H215913   2.956   0.506   0.367
 5303TIP3   OH215914   1.214   2.889   2.960
 5303TIP3    H115915   1.188   2.968   2.914
 5303TIP3    H215916   1.136   2.863   3.010
 5304TIP3   OH215917   0.959   3.975   4.454
 5304TIP3    H115918   0.996   3.926   4.527
 5304TIP3    H215919   0.864   3.966   4.465
 5305TIP3   OH215920   2.184   0.795   1.472
 5305TIP3    H115921   2.262   0.803   1.417
 5305TIP3    H215922   2.169   0.701   1.480
 5306TIP3   OH215923   1.106   5.158   5.118
 5306TIP3    H115924   1.140   5.084   5.067
 5306TIP3    H215925   1.184   5.201   5.153
 5307TIP3   OH215926   1.855   4.863   4.980
 5307TIP3    H115927   1.947   4.884   4.966
 5307TIP3    H215928   1.854   4.809   5.060
 5308TIP3   OH215929   2.938   1.837   3.696
 5308TIP3    H115930   2.849   1.816   3.726
 5308TIP3    H215931   2.974   1.892   3.766
 5309TIP3   OH215932   4.505   3.677   1.519
 5309TIP3    H115933   4.454   3.642   1.445
 5309TIP3    H215934   4.533   3.763   1.489
 5310TIP3   OH215935   4.153   5.800   3.173
 5310TIP3    H115936   4.060   5.814   3.187
 5310TIP3    H215937   4.159   5.714   3.130
 5311TIP3   OH215938   5.679   3.149   0.942
 5311TIP3    H115939   5.674   3.062   0.903
 5311TIP3    H215940   5.588   3.176   0.953
 5312TIP3   OH215941   1.377   5.374   3.187
 5312TIP3    H115942   1.410   5.340   3.270
 5312TIP3    H215943   1.444   5.351   3.123
 5313TIP3   OH215944   0.673   0.990   5.066
 5313TIP3    H115945   0.679   0.997   5.161
 5313TIP3    H215946   0.737   1.053   5.033
 5314TIP3   OH215947   0.772   5.694   1.269
 5314TIP3    H115948   0.843   5.659   1.324
 5314TIP3    H215949   0.774   5.788   1.285
 5315TIP3   OH215950   3.349   4.431   0.823
 5315TIP3    H115951   3.321   4.340   0.831
 5315TIP3    H215952   3.390   4.437   0.736
 5316TIP3   OH215953   2.961   1.360   2.959
 5316TIP3    H115954   2.928   1.394   3.042
 5316TIP3    H215955   2.892   1.382   2.896
 5317TIP3   OH215956   3.451   3.037   4.781
 5317TIP3    H115957   3.388   3.104   4.807
 5317TIP3    H215958   3.511   3.030   4.855
 5318TIP3   OH215959   2.177   5.591   0.827
 5318TIP3    H115960   2.156   5.658   0.892
 5318TIP3    H215961   2.250   5.542   0.866
 5319TIP3   OH215962   3.577   1.002   2.756
 5319TIP3    H115963   3.576   0.907   2.743
 5319TIP3    H215964   3.486   1.024   2.774
 5320TIP3   OH215965   0.973   2.879   2.063
 5320TIP3    H115966   0.897   2.839   2.105
 5320TIP3    H215967   1.030   2.903   2.136
 5321TIP3   OH215968   4.052   1.509   2.366
 5321TIP3    H115969   4.048   1.480   2.275
 5321TIP3    H215970   4.127   1.569   2.368
 5322TIP3   OH215971   4.018   4.385   1.169
 5322TIP3    H115972   3.936   4.348   1.137
 5322TIP3    H215973   4.037   4.456   1.108
 5323TIP3   OH215974   2.458   3.696   0.704
 5323TIP3    H115975   2.528   3.705   0.769
 5323TIP3    H215976   2.459   3.603   0.680
 5324TIP3   OH215977   5.539   4.087   2.876
 5324TIP3    H115978   5.473   4.147   2.842
 5324TIP3    H215979   5.541   4.015   2.813
 5325TIP3   OH215980   4.875   5.232   0.726
 5325TIP3    H115981   4.832   5.289   0.663
 5325TIP3    H215982   4.863   5.275   0.811
 5326TIP3   OH215983   5.029   3.860   5.030
 5326TIP3    H115984   4.943   3.881   5.067
 5326TIP3    H215985   5.091   3.912   5.082
 5327TIP3   OH215986   1.253   0.047   4.497
 5327TIP3    H115987   1.297  -0.038   4.491
 5327TIP3    H215988   1.290   0.099   4.426
 5328TIP3   OH215989   6.241   2.009   4.438
 5328TIP3    H115990   6.220   2.088   4.487
 5328TIP3    H215991   6.165   1.996   4.381
 5329TIP3   OH215992   2.569   3.866   2.775
 5329TIP3    H115993   2.578   3.854   2.680
 5329TIP3    H215994   2.658   3.882   2.805
 5330TIP3   OH215995   4.700   1.187   1.749
 5330TIP3    H115996   4.696   1.282   1.738
 5330TIP3    H215997   4.769   1.173   1.814
 5331TIP3   OH215998   1.239   1.849   2.651
 5331TIP3    H115999   1.182   1.895   2.712
 5331TIP3    H216000   1.292   1.917   2.611
 5332TIP3   OH216001   3.625   4.573   5.053
 5332TIP3    H116002   3.577   4.562   4.970
 5332TIP3    H216003   3.578   4.644   5.098
 5333TIP3   OH216004   5.404   1.215   2.118
 5333TIP3    H116005   5.462   1.145   2.145
 5333TIP3    H216006   5.321   1.197   2.163
 5334TIP3   OH216007   1.907   3.088   1.817
 5334TIP3    H116008   1.917   3.138   1.736
 5334TIP3    H216009   1.995   3.086   1.855
 5335TIP3   OH216010   5.313   5.945   3.069
 5335TIP3    H116011   5.340   5.878   3.133
 5335TIP3    H216012   5.349   5.914   2.986
 5336TIP3   OH216013   0.518   3.651   4.327
 5336TIP3    H116014   0.497   3.561   4.301
 5336TIP3    H216015   0.510   3.702   4.246
 5337TIP3   OH216016   5.801   1.211   3.467
 5337TIP3    H116017   5.781   1.301   3.492
 5337TIP3    H216018   5.717   1.165   3.474
 5338TIP3   OH216019   0.699   1.574   3.234
 5338TIP3    H116020   0.629   1.545   3.175
 5338TIP3    H216021   0.666   1.654   3.274
 5339TIP3   OH216022   0.079   3.236   5.005
 5339TIP3    H116023   0.034   3.229   4.921
 5339TIP3    H216024   0.037   3.310   5.049
 5340TIP3   OH216025   2.148   3.168   3.133
 5340TIP3    H116026   2.184   3.251   3.163
 5340TIP3    H216027   2.054   3.175   3.151
 5341TIP3   OH216028   5.686   5.693   3.940
 5341TIP3    H116029   5.712   5.674   3.850
 5341TIP3    H216030   5.590   5.699   3.937
 5342TIP3   OH216031   5.675   1.593   1.130
 5342TIP3    H116032   5.669   1.544   1.048
 5342TIP3    H216033   5.761   1.570   1.165
 5343TIP3   OH216034   1.132   0.461   1.015
 5343TIP3    H116035   1.194   0.529   1.041
 5343TIP3    H216036   1.187   0.385   0.995
 5344TIP3   OH216037   3.212   0.647   4.407
 5344TIP3    H116038   3.145   0.603   4.354
 5344TIP3    H216039   3.258   0.576   4.451
 5345TIP3   OH216040   1.878   4.077   4.591
 5345TIP3    H116041   1.865   4.145   4.524
 5345TIP3    H216042   1.824   4.105   4.664
 5346TIP3   OH216043   4.653   2.255   3.377
 5346TIP3    H116044   4.736   2.220   3.346
 5346TIP3    H216045   4.604   2.179   3.409
 5347TIP3   OH216046   4.488   4.620   2.576
 5347TIP3    H116047   4.499   4.533   2.613
 5347TIP3    H216048   4.489   4.679   2.651
 5348TIP3   OH216049   5.255   0.516   4.262
 5348TIP3    H116050   5.224   0.499   4.351
 5348TIP3    H216051   5.342   0.554   4.273
 5349TIP3   OH216052   1.536   2.559   0.908
 5349TIP3    H116053   1.614   2.503   0.905
 5349TIP3    H216054   1.526   2.580   1.001
 5350TIP3   OH216055   1.670   0.235   1.242
 5350TIP3    H116056   1.741   0.199   1.295
 5350TIP3    H216057   1.661   0.174   1.169
 5351TIP3   OH216058   5.729   1.852  -0.007
 5351TIP3    H116059   5.671   1.778   0.013
 5351TIP3    H216060   5.810   1.811  -0.037
 5352TIP3   OH216061   1.671   1.789   2.294
 5352TIP3    H116062   1.593   1.843   2.305
 5352TIP3    H216063   1.701   1.807   2.205
 5353TIP3   OH216064   1.229   3.877   2.681
 5353TIP3    H116065   1.178   3.938   2.735
 5353TIP3    H216066   1.267   3.932   2.612
 5354TIP3   OH216067   2.101   1.294   4.211
 5354TIP3    H116068   2.150   1.224   4.167
 5354TIP3    H216069   2.038   1.248   4.266
 5355TIP3   OH216070   2.673   2.419   4.509
 5355TIP3    H116071   2.629   2.469   4.440
 5355TIP3    H216072   2.758   2.396   4.470
 5356TIP3   OH216073   4.374   1.093   4.854
 5356TIP3    H116074   4.305   1.029   4.872
 5356TIP3    H216075   4.329   1.165   4.810
 5357TIP3   OH216076   0.828   2.839   2.323
 5357TIP3    H116077   0.750   2.813   2.275
 5357TIP3    H216078   0.861   2.758   2.362
 5358TIP3   OH216079   2.924   1.028   4.411
 5358TIP3    H116080   2.869   1.049   4.336
 5358TIP3    H216081   3.006   0.995   4.373
 5359TIP3   OH216082   4.547   2.001   4.052
 5359TIP3    H116083   4.549   2.092   4.081
 5359TIP3    H216084   4.636   1.982   4.025
 5360TIP3   OH216085   0.252   2.572   3.400
 5360TIP3    H116086   0.253   2.485   3.441
 5360TIP3    H216087   0.197   2.625   3.457
 5361TIP3   OH216088   3.002   1.063   1.032
 5361TIP3    H116089   3.086   1.067   1.078
 5361TIP3    H216090   2.949   1.003   1.084
 5362TIP3   OH216091   5.188   5.045   1.372
 5362TIP3    H116092   5.256   5.061   1.437
 5362TIP3    H216093   5.106   5.050   1.420
 5363TIP3   OH216094   1.491   5.081   2.444
 5363TIP3    H116095   1.434   5.005   2.453
 5363TIP3    H216096   1.488   5.101   2.350
 5364TIP3   OH216097   4.351   1.011   0.046
 5364TIP3    H116098   4.417   1.022   0.115
 5364TIP3    H216099   4.397   0.962  -0.023
 5365TIP3   OH216100   2.261   5.951   3.893
 5365TIP3    H116101   2.306   5.994   3.821
 5365TIP3    H216102   2.282   5.858   3.883
 5366TIP3   OH216103   2.036   2.776   2.133
 5366TIP3    H116104   1.954   2.726   2.127
 5366TIP3    H216105   2.093   2.721   2.186
 5367TIP3   OH216106   5.493   4.628   3.224
 5367TIP3    H116107   5.402   4.614   3.250
 5367TIP3    H216108   5.491   4.630   3.128
 5368TIP3   OH216109   4.363   2.315  -0.020
 5368TIP3    H116110   4.448   2.294   0.017
 5368TIP3    H216111   4.331   2.232  -0.056
 5369TIP3   OH216112   3.606   0.230   2.425
 5369TIP3    H116113   3.652   0.264   2.348
 5369TIP3    H216114   3.616   0.299   2.490
 5370TIP3   OH216115   0.980   4.573   2.138
 5370TIP3    H116116   1.058   4.550   2.088
 5370TIP3    H216117   0.965   4.496   2.194
 5371TIP3   OH216118   2.816   2.262   5.162
 5371TIP3    H116119   2.756   2.261   5.087
 5371TIP3    H216120   2.861   2.177   5.157
 5372TIP3   OH216121   5.758   4.679   1.485
 5372TIP3    H116122   5.680   4.732   1.467
 5372TIP3    H216123   5.737   4.633   1.566
 5373TIP3   OH216124   4.581   3.001   0.344
 5373TIP3    H116125   4.536   2.995   0.259
 5373TIP3    H216126   4.511   3.016   0.407
 5374TIP3   OH216127   3.477   1.759   2.981
 5374TIP3    H116128   3.483   1.698   3.054
 5374TIP3    H216129   3.554   1.815   2.989
 5375TIP3   OH216130   5.816   4.016   4.117
 5375TIP3    H116131   5.799   3.966   4.037
 5375TIP3    H216132   5.852   4.099   4.085
 5376TIP3   OH216133   1.031   4.715   1.030
 5376TIP3    H116134   0.970   4.643   1.046
 5376TIP3    H216135   1.055   4.705   0.938
 5377TIP3   OH216136   3.078   1.110   3.022
 5377TIP3    H116137   3.060   1.109   3.116
 5377TIP3    H216138   3.040   1.193   2.991
 5378TIP3   OH216139   0.159   5.591   4.077
 5378TIP3    H116140   0.236   5.589   4.020
 5378TIP3    H216141   0.195   5.593   4.166
 5379TIP3   OH216142   2.272   1.723   3.432
 5379TIP3    H116143   2.283   1.791   3.366
 5379TIP3    H216144   2.195   1.674   3.403
 5380TIP3   OH216145   4.703   3.986   4.113
 5380TIP3    H116146   4.777   4.008   4.058
 5380TIP3    H216147   4.628   3.985   4.054
 5381TIP3   OH216148   5.389   3.945   3.403
 5381TIP3    H116149   5.328   3.971   3.335
 5381TIP3    H216150   5.457   3.896   3.357
 5382TIP3   OH216151   2.980   1.329   2.051
 5382TIP3    H116152   2.970   1.418   2.017
 5382TIP3    H216153   3.007   1.278   1.975
 5383TIP3   OH216154   1.432   2.947   4.243
 5383TIP3    H116155   1.351   2.986   4.211
 5383TIP3    H216156   1.465   3.009   4.308
 5384TIP3   OH216157   4.940   4.868   2.669
 5384TIP3    H116158   4.973   4.903   2.586
 5384TIP3    H216159   4.883   4.796   2.643
 5385TIP3   OH216160   6.072   3.378   1.647
 5385TIP3    H116161   6.083   3.393   1.742
 5385TIP3    H216162   6.136   3.437   1.607
 5386TIP3   OH216163   1.329   5.280   0.629
 5386TIP3    H116164   1.374   5.350   0.675
 5386TIP3    H216165   1.260   5.324   0.578
 5387TIP3   OH216166   3.883   2.361   1.065
 5387TIP3    H116167   3.824   2.296   1.025
 5387TIP3    H216168   3.889   2.334   1.156
 5388TIP3   OH216169   5.087   2.913   1.956
 5388TIP3    H116170   5.059   2.953   1.873
 5388TIP3    H216171   5.025   2.946   2.020
 5389TIP3   OH216172   3.638   3.562   4.014
 5389TIP3    H116173   3.551   3.599   4.028
 5389TIP3    H216174   3.676   3.556   4.102
 5390TIP3   OH216175   3.240   4.495   5.097
 5390TIP3    H116176   3.312   4.556   5.080
 5390TIP3    H216177   3.190   4.494   5.015
 5391TIP3   OH216178   3.974   0.068   4.341
 5391TIP3    H116179   3.884   0.087   4.367
 5391TIP3    H216180   4.028   0.126   4.395
 5392TIP3   OH216181   2.341   2.622   0.944
 5392TIP3    H116182   2.324   2.540   0.990
 5392TIP3    H216183   2.437   2.629   0.941
 5393TIP3   OH216184   3.878   5.837   3.416
 5393TIP3    H116185   3.905   5.915   3.367
 5393TIP3    H216186   3.946   5.773   3.399
 5394TIP3   OH216187   0.860   2.127   0.518
 5394TIP3    H116188   0.828   2.157   0.603
 5394TIP3    H216189   0.929   2.190   0.495
 5395TIP3   OH216190   4.399   2.838   4.499
 5395TIP3    H116191   4.468   2.831   4.564
 5395TIP3    H216192   4.357   2.923   4.517
 5396TIP3   OH216193   5.989   1.514   1.531
 5396TIP3    H116194   5.922   1.482   1.470
 5396TIP3    H216195   6.003   1.441   1.591
 5397TIP3   OH216196   3.004   4.963   0.758
 5397TIP3    H116197   2.965   5.021   0.823
 5397TIP3    H216198   3.096   4.989   0.755
 5398TIP3   OH216199   0.080   3.140   3.290
 5398TIP3    H116200  -0.011   3.138   3.319
 5398TIP3    H216201   0.109   3.048   3.293
 5399TIP3   OH216202   1.567   2.576   0.197
 5399TIP3    H116203   1.658   2.554   0.181
 5399TIP3    H216204   1.517   2.500   0.167
 5400TIP3   OH216205   5.350   3.910   0.644
 5400TIP3    H116206   5.346   3.851   0.569
 5400TIP3    H216207   5.259   3.934   0.661
 5401TIP3   OH216208   0.492   0.935   3.743
 5401TIP3    H116209   0.542   1.004   3.698
 5401TIP3    H216210   0.529   0.933   3.831
 5402TIP3   OH216211   4.838   1.090   0.587
 5402TIP3    H116212   4.775   1.155   0.557
 5402TIP3    H216213   4.871   1.049   0.507
 5403TIP3   OH216214   4.348   1.396   0.719
 5403TIP3    H116215   4.375   1.449   0.794
 5403TIP3    H216216   4.255   1.379   0.734
 5404TIP3   OH216217   3.824   1.857   4.373
 5404TIP3    H116218   3.846   1.777   4.421
 5404TIP3    H216219   3.903   1.911   4.380
 5405TIP3   OH216220   2.114   0.388   2.959
 5405TIP3    H116221   2.074   0.444   3.025
 5405TIP3    H216222   2.113   0.301   2.999
 5406TIP3   OH216223   3.014   3.963   3.781
 5406TIP3    H116224   3.032   3.920   3.697
 5406TIP3    H216225   3.026   3.893   3.846
 5407TIP3   OH216226   4.999   1.648   4.408
 5407TIP3    H116227   4.971   1.558   4.420
 5407TIP3    H216228   4.963   1.695   4.484
 5408TIP3   OH216229   0.062   1.132   3.198
 5408TIP3    H116230   0.025   1.046   3.216
 5408TIP3    H216231   0.105   1.123   3.113
 5409TIP3   OH216232   6.267   0.682   0.364
 5409TIP3    H116233   6.201   0.737   0.405
 5409TIP3    H216234   6.340   0.681   0.427
 5410TIP3   OH216235   0.365   4.421   5.184
 5410TIP3    H116236   0.330   4.365   5.114
 5410TIP3    H216237   0.299   4.490   5.194
 5411TIP3   OH216238   1.790   3.309   4.778
 5411TIP3    H116239   1.886   3.309   4.783
 5411TIP3    H216240   1.763   3.244   4.843
 5412TIP3   OH216241   6.070   2.207   4.301
 5412TIP3    H116242   6.059   2.213   4.396
 5412TIP3    H216243   5.981   2.194   4.267
 5413TIP3   OH216244   5.633   2.553   2.518
 5413TIP3    H116245   5.631   2.490   2.446
 5413TIP3    H216246   5.542   2.582   2.527
 5414TIP3   OH216247   2.919   0.770   2.332
 5414TIP3    H116248   2.827   0.752   2.351
 5414TIP3    H216249   2.953   0.810   2.411
 5415TIP3   OH216250   1.347   2.880   0.581
 5415TIP3    H116251   1.330   2.830   0.661
 5415TIP3    H216252   1.355   2.814   0.512
 5416TIP3   OH216253   0.835   1.346   4.623
 5416TIP3    H116254   0.870   1.387   4.702
 5416TIP3    H216255   0.910   1.299   4.585
 5417TIP3   OH216256   0.705   3.782   1.964
 5417TIP3    H116257   0.789   3.829   1.957
 5417TIP3    H216258   0.718   3.720   2.035
 5418TIP3   OH216259   3.667   2.797   3.328
 5418TIP3    H116260   3.648   2.836   3.413
 5418TIP3    H216261   3.582   2.790   3.285
 5419TIP3   OH216262   0.238   3.076   3.816
 5419TIP3    H116263   0.283   2.995   3.838
 5419TIP3    H216264   0.148   3.063   3.845
 5420TIP3   OH216265   4.162   4.606   1.382
 5420TIP3    H116266   4.242   4.587   1.333
 5420TIP3    H216267   4.119   4.675   1.332
 5421TIP3   OH216268   2.613   5.908   0.473
 5421TIP3    H116269   2.654   5.881   0.391
 5421TIP3    H216270   2.571   5.991   0.454
 5422TIP3   OH216271   0.253   2.087   4.202
 5422TIP3    H116272   0.265   2.064   4.110
 5422TIP3    H216273   0.310   2.163   4.216
 5423TIP3   OH216274   0.597   0.882   1.216
 5423TIP3    H116275   0.577   0.821   1.145
 5423TIP3    H216276   0.553   0.846   1.292
 5424TIP3   OH216277   1.149   5.547   3.436
 5424TIP3    H116278   1.096   5.624   3.455
 5424TIP3    H216279   1.088   5.486   3.393
 5425TIP3   OH216280   1.079   3.757   2.173
 5425TIP3    H116281   1.058   3.709   2.253
 5425TIP3    H216282   1.086   3.848   2.200
 5426TIP3   OH216283   4.570   5.672   0.135
 5426TIP3    H116284   4.666   5.673   0.125
 5426TIP3    H216285   4.555   5.696   0.226
 5427TIP3   OH216286   4.598   0.986   4.613
 5427TIP3    H116287   4.636   1.056   4.560
 5427TIP3    H216288   4.653   0.982   4.690
 5428TIP3   OH216289   1.393   1.778   0.001
 5428TIP3    H116290   1.346   1.854  -0.034
 5428TIP3    H216291   1.340   1.749   0.075
 5429TIP3   OH216292   3.422   4.110   1.129
 5429TIP3    H116293   3.356   4.165   1.171
 5429TIP3    H216294   3.492   4.104   1.195
 5430TIP3   OH216295   3.989   0.996   4.306
 5430TIP3    H116296   3.930   1.070   4.315
 5430TIP3    H216297   4.025   1.004   4.217
 5431TIP3   OH216298   5.243   2.571   3.019
 5431TIP3    H116299   5.202   2.645   2.974
 5431TIP3    H216300   5.334   2.574   2.990
 5432TIP3   OH216301   3.996   5.131   1.610
 5432TIP3    H116302   4.053   5.178   1.672
 5432TIP3    H216303   3.912   5.176   1.617
 5433TIP3   OH216304   0.904   0.075   2.609
 5433TIP3    H116305   0.892   0.045   2.519
 5433TIP3    H216306   0.855   0.012   2.663
 5434TIP3   OH216307   5.048   2.754   0.125
 5434TIP3    H116308   5.114   2.808   0.081
 5434TIP3    H216309   5.033   2.681   0.066
 5435TIP3   OH216310   2.553   3.900   0.915
 5435TIP3    H116311   2.506   3.857   0.986
 5435TIP3    H216312   2.568   3.989   0.948
 5436TIP3   OH216313   2.363   5.300   4.046
 5436TIP3    H116314   2.399   5.378   4.089
 5436TIP3    H216315   2.332   5.245   4.118
 5437TIP3   OH216316   5.628   3.727   3.352
 5437TIP3    H116317   5.667   3.738   3.439
 5437TIP3    H216318   5.693   3.765   3.293
 5438TIP3   OH216319   3.366   2.883   1.792
 5438TIP3    H116320   3.342   2.807   1.846
 5438TIP3    H216321   3.456   2.865   1.764
 5439TIP3   OH216322   5.442   1.199   4.078
 5439TIP3    H116323   5.395   1.264   4.027
 5439TIP3    H216324   5.498   1.154   4.015
 5440TIP3   OH216325   4.736   2.439   3.157
 5440TIP3    H116326   4.804   2.388   3.202
 5440TIP3    H216327   4.695   2.490   3.227
 5441TIP3   OH216328   5.577   2.866   3.240
 5441TIP3    H116329   5.596   2.790   3.296
 5441TIP3    H216330   5.664   2.900   3.218
 5442TIP3   OH216331   0.314   5.764   0.846
 5442TIP3    H116332   0.297   5.712   0.768
 5442TIP3    H216333   0.382   5.716   0.893
 5443TIP3   OH216334   5.058   3.985   2.951
 5443TIP3    H116335   4.984   3.967   3.009
 5443TIP3    H216336   5.028   4.055   2.894
 5444TIP3   OH216337   5.520   5.451   4.636
 5444TIP3    H116338   5.586   5.424   4.571
 5444TIP3    H216339   5.499   5.370   4.683
 5445TIP3   OH216340   5.782   5.036   2.473
 5445TIP3    H116341   5.729   5.096   2.421
 5445TIP3    H216342   5.872   5.064   2.459
 5446TIP3   OH216343   4.644   4.149   2.309
 5446TIP3    H116344   4.616   4.087   2.242
 5446TIP3    H216345   4.598   4.230   2.287
 5447TIP3   OH216346   1.791   0.529   3.378
 5447TIP3    H116347   1.719   0.473   3.348
 5447TIP3    H216348   1.759   0.618   3.365
 5448TIP3   OH216349   1.974   0.521   3.134
 5448TIP3    H116350   1.951   0.480   3.218
 5448TIP3    H216351   1.896   0.571   3.109
 5449TIP3   OH216352   4.679   3.294   0.855
 5449TIP3    H116353   4.728   3.363   0.899
 5449TIP3    H216354   4.596   3.335   0.832
 5450TIP3   OH216355   0.747   5.215   4.170
 5450TIP3    H116356   0.821   5.156   4.183
 5450TIP3    H216357   0.687   5.195   4.242
 5451TIP3   OH216358   5.953   4.417   3.670
 5451TIP3    H116359   5.995   4.378   3.746
 5451TIP3    H216360   6.020   4.476   3.634
 5452TIP3   OH216361   4.947   1.464   0.990
 5452TIP3    H116362   4.852   1.454   0.978
 5452TIP3    H216363   4.969   1.400   1.058
 5453TIP3   OH216364   3.675   3.876   0.467
 5453TIP3    H116365   3.717   3.885   0.553
 5453TIP3    H216366   3.747   3.888   0.405
 5454TIP3   OH216367   3.842   1.227   4.307
 5454TIP3    H116368   3.752   1.243   4.281
 5454TIP3    H216369   3.890   1.305   4.277
 5455TIP3   OH216370   3.471   0.102   1.539
 5455TIP3    H116371   3.514   0.025   1.502
 5455TIP3    H216372   3.462   0.081   1.633
 5456TIP3   OH216373   4.508   3.616   0.500
 5456TIP3    H116374   4.444   3.567   0.448
 5456TIP3    H216375   4.459   3.692   0.531
 5457TIP3   OH216376   1.593   0.574   1.157
 5457TIP3    H116377   1.578   0.631   1.233
 5457TIP3    H216378   1.625   0.633   1.089
 5458TIP3   OH216379   5.730   0.320   4.395
 5458TIP3    H116380   5.717   0.407   4.433
 5458TIP3    H216381   5.793   0.334   4.325
 5459TIP3   OH216382   1.416   5.574   2.390
 5459TIP3    H116383   1.351   5.507   2.410
 5459TIP3    H216384   1.426   5.622   2.472
 5460TIP3   OH216385   4.561   1.146   2.686
 5460TIP3    H116386   4.593   1.119   2.773
 5460TIP3    H216387   4.638   1.183   2.643
 5461TIP3   OH216388   2.647   5.612   0.076
 5461TIP3    H116389   2.653   5.633  -0.017
 5461TIP3    H216390   2.696   5.530   0.086
 5462TIP3   OH216391   2.225   4.131   3.874
 5462TIP3    H116392   2.264   4.073   3.940
 5462TIP3    H216393   2.131   4.115   3.880
 5463TIP3   OH216394   3.085   2.499   3.600
 5463TIP3    H116395   3.096   2.577   3.546
 5463TIP3    H216396   3.087   2.532   3.690
 5464TIP3   OH216397   6.104   2.768   4.973
 5464TIP3    H116398   6.196   2.790   4.964
 5464TIP3    H216399   6.096   2.682   4.932
 5465TIP3   OH216400   3.097   1.365   4.311
 5465TIP3    H116401   3.075   1.454   4.281
 5465TIP3    H216402   3.068   1.363   4.402
 5466TIP3   OH216403   6.206   3.050   0.256
 5466TIP3    H116404   6.155   3.097   0.323
 5466TIP3    H216405   6.270   3.000   0.306
 5467TIP3   OH216406   2.741   1.015   2.261
 5467TIP3    H116407   2.814   1.029   2.200
 5467TIP3    H216408   2.730   0.920   2.264
 5468TIP3   OH216409   3.840   0.941   3.868
 5468TIP3    H116410   3.904   0.880   3.905
 5468TIP3    H216411   3.833   0.916   3.776
 5469TIP3   OH216412   3.120   0.600   2.535
 5469TIP3    H116413   3.135   0.667   2.602
 5469TIP3    H216414   3.047   0.548   2.569
 5470TIP3   OH216415   1.147   4.432   0.738
 5470TIP3    H116416   1.216   4.454   0.675
 5470TIP3    H216417   1.078   4.496   0.720
 5471TIP3   OH216418   0.242   4.436   3.153
 5471TIP3    H116419   0.253   4.419   3.060
 5471TIP3    H216420   0.275   4.525   3.166
 5472TIP3   OH216421   4.186   3.957   3.556
 5472TIP3    H116422   4.104   3.958   3.508
 5472TIP3    H216423   4.167   3.908   3.636
 5473TIP3   OH216424   6.136   0.156   3.377
 5473TIP3    H116425   6.226   0.186   3.365
 5473TIP3    H216426   6.120   0.096   3.304
 5474TIP3   OH216427   6.041   4.836   2.913
 5474TIP3    H116428   6.073   4.774   2.847
 5474TIP3    H216429   5.945   4.831   2.906
 5475TIP3   OH216430   3.791   1.443   1.207
 5475TIP3    H116431   3.787   1.441   1.112
 5475TIP3    H216432   3.818   1.355   1.232
 5476TIP3   OH216433   3.410   0.058   4.637
 5476TIP3    H116434   3.327   0.027   4.600
 5476TIP3    H216435   3.459  -0.022   4.654
 5477TIP3   OH216436   1.192   2.988   4.179
 5477TIP3    H116437   1.204   2.916   4.240
 5477TIP3    H216438   1.103   2.977   4.145
 5478TIP3   OH216439   0.486   2.303   5.123
 5478TIP3    H116440   0.423   2.234   5.143
 5478TIP3    H216441   0.440   2.384   5.141
 5479TIP3   OH216442   4.569   0.312   0.873
 5479TIP3    H116443   4.510   0.237   0.860
 5479TIP3    H216444   4.584   0.347   0.786
 5480TIP3   OH216445   2.120   2.972   1.967
 5480TIP3    H116446   2.214   2.962   1.950
 5480TIP3    H216447   2.096   2.892   2.014
 5481TIP3   OH216448   3.099   3.441   2.837
 5481TIP3    H116449   3.069   3.529   2.857
 5481TIP3    H216450   3.019   3.391   2.820
 5482TIP3   OH216451   6.225   2.298   1.285
 5482TIP3    H116452   6.210   2.308   1.192
 5482TIP3    H216453   6.291   2.229   1.292
 5483TIP3   OH216454   0.942   5.288   4.939
 5483TIP3    H116455   0.880   5.216   4.946
 5483TIP3    H216456   1.026   5.249   4.966
 5484TIP3   OH216457   0.395   5.139   0.408
 5484TIP3    H116458   0.451   5.195   0.353
 5484TIP3    H216459   0.457   5.078   0.449
 5485TIP3   OH216460   4.298   3.470   1.054
 5485TIP3    H116461   4.273   3.383   1.024
 5485TIP3    H216462   4.267   3.529   0.985
 5486TIP3   OH216463   4.440   3.132   4.800
 5486TIP3    H116464   4.387   3.127   4.720
 5486TIP3    H216465   4.530   3.117   4.770
 5487TIP3   OH216466   2.868   4.015   3.462
 5487TIP3    H116467   2.929   3.956   3.508
 5487TIP3    H216468   2.781   3.980   3.482
 5488TIP3   OH216469   5.347   2.628   4.593
 5488TIP3    H116470   5.427   2.578   4.575
 5488TIP3    H216471   5.366   2.717   4.563
 5489TIP3   OH216472   5.432   4.674   2.500
 5489TIP3    H116473   5.493   4.714   2.562
 5489TIP3    H216474   5.475   4.593   2.472
 5490TIP3   OH216475   2.087   1.082   1.742
 5490TIP3    H116476   2.092   1.177   1.733
 5490TIP3    H216477   2.011   1.057   1.690
 5491TIP3   OH216478   5.512   2.520   4.848
 5491TIP3    H116479   5.498   2.451   4.913
 5491TIP3    H216480   5.433   2.573   4.852
 5492TIP3   OH216481   0.740   0.027   1.472
 5492TIP3    H116482   0.797   0.043   1.397
 5492TIP3    H216483   0.767   0.092   1.537
 5493TIP3   OH216484   3.264   0.870   2.205
 5493TIP3    H116485   3.208   0.913   2.269
 5493TIP3    H216486   3.260   0.926   2.127
 5494TIP3   OH216487   0.745   5.457   4.352
 5494TIP3    H116488   0.752   5.486   4.261
 5494TIP3    H216489   0.825   5.407   4.368
 5495TIP3   OH216490   1.401   0.961   0.426
 5495TIP3    H116491   1.379   0.871   0.400
 5495TIP3    H216492   1.396   0.960   0.522
 5496TIP3   OH216493   5.506   2.750   2.206
 5496TIP3    H116494   5.435   2.788   2.155
 5496TIP3    H216495   5.557   2.700   2.141
 5497TIP3   OH216496   3.025   0.293   0.116
 5497TIP3    H116497   2.970   0.348   0.171
 5497TIP3    H216498   3.085   0.354   0.073
 5498TIP3   OH216499   3.578   5.361   0.404
 5498TIP3    H116500   3.594   5.328   0.492
 5498TIP3    H216501   3.663   5.397   0.377
 5499TIP3   OH216502   4.207   2.501   3.957
 5499TIP3    H116503   4.254   2.550   3.889
 5499TIP3    H216504   4.274   2.482   4.023
 5500TIP3   OH216505   4.377   2.042   0.250
 5500TIP3    H116506   4.282   2.033   0.261
 5500TIP3    H216507   4.409   1.952   0.247
 5501TIP3   OH216508   5.047   4.125   1.742
 5501TIP3    H116509   5.101   4.114   1.664
 5501TIP3    H216510   5.099   4.085   1.812
 5502TIP3   OH216511   0.945   5.145   0.287
 5502TIP3    H116512   0.929   5.237   0.306
 5502TIP3    H216513   1.024   5.145   0.232
 5503TIP3   OH216514   1.039   2.620   3.658
 5503TIP3    H116515   1.007   2.710   3.662
 5503TIP3    H216516   0.990   2.574   3.726
 5504TIP3   OH216517   1.699   2.911   1.764
 5504TIP3    H116518   1.786   2.939   1.793
 5504TIP3    H216519   1.659   2.873   1.842
 5505TIP3   OH216520   5.227   4.657   3.953
 5505TIP3    H116521   5.295   4.590   3.958
 5505TIP3    H216522   5.195   4.654   3.863
 5506TIP3   OH216523   4.994   3.414   0.831
 5506TIP3    H116524   4.960   3.434   0.744
 5506TIP3    H216525   4.918   3.419   0.888
 5507TIP3   OH216526   4.883   5.107   4.020
 5507TIP3    H116527   4.837   5.102   4.104
 5507TIP3    H216528   4.834   5.049   3.962
 5508TIP3   OH216529   2.819   3.668   2.668
 5508TIP3    H116530   2.784   3.599   2.724
 5508TIP3    H216531   2.886   3.711   2.722
 5509TIP3   OH216532   4.545   1.356   4.726
 5509TIP3    H116533   4.566   1.304   4.648
 5509TIP3    H216534   4.449   1.363   4.725
 5510TIP3   OH216535   0.457   3.545   2.369
 5510TIP3    H116536   0.549   3.523   2.359
 5510TIP3    H216537   0.430   3.576   2.283
 5511TIP3   OH216538   1.439   1.941   0.637
 5511TIP3    H116539   1.525   1.940   0.596
 5511TIP3    H216540   1.433   2.026   0.679
 5512TIP3   OH216541   0.363   5.827   5.087
 5512TIP3    H116542   0.432   5.819   5.154
 5512TIP3    H216543   0.411   5.849   5.007
 5513TIP3   OH216544   0.144   2.852   4.775
 5513TIP3    H116545   0.188   2.820   4.854
 5513TIP3    H216546   0.098   2.931   4.804
 5514TIP3   OH216547   6.096   1.008   3.242
 5514TIP3    H116548   6.183   1.006   3.282
 5514TIP3    H216549   6.038   0.976   3.311
 5515TIP3   OH216550   5.845   0.977   4.990
 5515TIP3    H116551   5.789   0.966   4.913
 5515TIP3    H216552   5.872   1.069   4.988
 5516TIP3   OH216553   3.884   3.710   3.891
 5516TIP3    H116554   3.798   3.729   3.855
 5516TIP3    H216555   3.876   3.730   3.984
 5517TIP3   OH216556   5.837   5.700   2.829
 5517TIP3    H116557   5.757   5.698   2.775
 5517TIP3    H216558   5.861   5.793   2.830
 5518TIP3   OH216559   5.453   3.937   0.337
 5518TIP3    H116560   5.456   3.847   0.370
 5518TIP3    H216561   5.360   3.961   0.342
 5519TIP3   OH216562   5.060   5.230   3.024
 5519TIP3    H116563   5.037   5.304   2.967
 5519TIP3    H216564   5.010   5.156   2.988
 5520TIP3   OH216565   1.917   1.355   2.835
 5520TIP3    H116566   1.932   1.300   2.912
 5520TIP3    H216567   1.854   1.305   2.782
 5521TIP3   OH216568   5.396   4.071   2.535
 5521TIP3    H116569   5.361   4.134   2.598
 5521TIP3    H216570   5.318   4.027   2.499
 5522TIP3   OH216571   3.195   0.914   3.602
 5522TIP3    H116572   3.259   0.976   3.567
 5522TIP3    H216573   3.232   0.885   3.685
 5523TIP3   OH216574   3.492   4.888   2.723
 5523TIP3    H116575   3.441   4.969   2.724
 5523TIP3    H216576   3.495   4.860   2.814
 5524TIP3   OH216577   5.670   2.547   2.050
 5524TIP3    H116578   5.713   2.518   2.130
 5524TIP3    H216579   5.742   2.558   1.987
 5525TIP3   OH216580   4.245   5.534   3.478
 5525TIP3    H116581   4.218   5.499   3.563
 5525TIP3    H216582   4.336   5.561   3.490
 5526TIP3   OH216583   1.163   2.626   4.036
 5526TIP3    H116584   1.162   2.536   4.001
 5526TIP3    H216585   1.255   2.652   4.031
 5527TIP3   OH216586   5.673   2.860   0.957
 5527TIP3    H116587   5.604   2.815   1.007
 5527TIP3    H216588   5.685   2.805   0.879
 5528TIP3   OH216589   5.604   2.855   4.053
 5528TIP3    H116590   5.680   2.908   4.076
 5528TIP3    H216591   5.546   2.916   4.007
 5529TIP3   OH216592   5.375   4.748   0.476
 5529TIP3    H116593   5.289   4.765   0.516
 5529TIP3    H216594   5.362   4.768   0.384
 5530TIP3   OH216595   4.301   0.465   3.215
 5530TIP3    H116596   4.390   0.475   3.181
 5530TIP3    H216597   4.300   0.378   3.253
 5531TIP3   OH216598   3.594   3.978   1.819
 5531TIP3    H116599   3.579   3.915   1.890
 5531TIP3    H216600   3.561   4.061   1.854
 5532TIP3   OH216601   4.823   3.447   4.983
 5532TIP3    H116602   4.811   3.537   5.011
 5532TIP3    H216603   4.917   3.437   4.971
 5533TIP3   OH216604   2.046   2.588   1.339
 5533TIP3    H116605   2.087   2.578   1.424
 5533TIP3    H216606   1.954   2.567   1.354
 5534TIP3   OH216607   5.543   4.700   2.951
 5534TIP3    H116608   5.596   4.733   2.879
 5534TIP3    H216609   5.504   4.778   2.991
 5535TIP3   OH216610   1.899   0.319   4.300
 5535TIP3    H116611   1.950   0.313   4.381
 5535TIP3    H216612   1.940   0.391   4.252
 5536TIP3   OH216613   3.826   1.986   3.513
 5536TIP3    H116614   3.772   1.927   3.461
 5536TIP3    H216615   3.802   2.074   3.482
 5537TIP3   OH216616   1.381   2.422   4.203
 5537TIP3    H116617   1.405   2.512   4.181
 5537TIP3    H216618   1.460   2.370   4.183
 5538TIP3   OH216619   1.679   5.250   2.782
 5538TIP3    H116620   1.728   5.250   2.700
 5538TIP3    H216621   1.587   5.244   2.756
 5539TIP3   OH216622   3.281   2.606   2.272
 5539TIP3    H116623   3.343   2.633   2.340
 5539TIP3    H216624   3.327   2.539   2.222
 5540TIP3   OH216625   0.353   5.718   4.293
 5540TIP3    H116626   0.401   5.789   4.335
 5540TIP3    H216627   0.386   5.639   4.335
 5541TIP3   OH216628   2.061   1.086   0.492
 5541TIP3    H116629   2.114   1.077   0.413
 5541TIP3    H216630   2.065   1.179   0.513
 5542TIP3   OH216631   1.477   2.345   0.577
 5542TIP3    H116632   1.447   2.270   0.628
 5542TIP3    H216633   1.567   2.324   0.553
 5543TIP3   OH216634   0.579   1.401   0.975
 5543TIP3    H116635   0.585   1.315   1.016
 5543TIP3    H216636   0.668   1.419   0.945
 5544TIP3   OH216637   0.216   3.515   4.348
 5544TIP3    H116638   0.278   3.493   4.279
 5544TIP3    H216639   0.228   3.446   4.413
 5545TIP3   OH216640   0.412   3.419   4.121
 5545TIP3    H116641   0.490   3.407   4.068
 5545TIP3    H216642   0.340   3.385   4.067
 5546TIP3   OH216643   1.041   1.340   4.867
 5546TIP3    H116644   0.999   1.412   4.914
 5546TIP3    H216645   1.131   1.369   4.855
 5547TIP3   OH216646   4.063   4.158   4.027
 5547TIP3    H116647   4.031   4.135   4.114
 5547TIP3    H216648   4.146   4.202   4.042
 5548TIP3   OH216649   3.635   0.931   1.020
 5548TIP3    H116650   3.587   0.851   0.999
 5548TIP3    H216651   3.571   0.985   1.067
 5549TIP3   OH216652   5.613   3.706   2.698
 5549TIP3    H116653   5.602   3.724   2.604
 5549TIP3    H216654   5.525   3.710   2.734
 5550TIP3   OH216655   0.463   1.767   3.181
 5550TIP3    H116656   0.420   1.819   3.113
 5550TIP3    H216657   0.483   1.683   3.139
 5551TIP3   OH216658   0.609   2.802   0.878
 5551TIP3    H116659   0.550   2.738   0.918
 5551TIP3    H216660   0.662   2.751   0.817
 5552TIP3   OH216661   3.163   1.001   0.401
 5552TIP3    H116662   3.091   1.055   0.433
 5552TIP3    H216663   3.231   1.063   0.377
 5553TIP3   OH216664   2.679   3.305   1.061
 5553TIP3    H116665   2.737   3.337   1.130
 5553TIP3    H216666   2.717   3.222   1.033
 5554TIP3   OH216667   5.213   1.995   1.414
 5554TIP3    H116668   5.120   1.975   1.424
 5554TIP3    H216669   5.249   1.920   1.367
 5555TIP3   OH216670   0.198   2.905   4.519
 5555TIP3    H116671   0.272   2.846   4.508
 5555TIP3    H216672   0.167   2.889   4.608
 5556TIP3   OH216673   1.007   3.296   0.376
 5556TIP3    H116674   1.102   3.289   0.365
 5556TIP3    H216675   0.996   3.312   0.470
 5557TIP3   OH216676   4.007   4.960   0.332
 5557TIP3    H116677   4.019   4.908   0.253
 5557TIP3    H216678   3.927   4.925   0.372
 5558TIP3   OH216679   4.826   3.057   1.449
 5558TIP3    H116680   4.904   3.111   1.459
 5558TIP3    H216681   4.770   3.082   1.523
 5559TIP3   OH216682   0.234   3.395   1.273
 5559TIP3    H116683   0.291   3.359   1.340
 5559TIP3    H216684   0.207   3.320   1.221
 5560TIP3   OH216685   5.094   0.554   0.043
 5560TIP3    H116686   5.051   0.630   0.004
 5560TIP3    H216687   5.182   0.585   0.064
 5561TIP3   OH216688   5.790  -0.013   2.281
 5561TIP3    H116689   5.855   0.018   2.344
 5561TIP3    H216690   5.835  -0.014   2.197
 5562TIP3   OH216691   5.573   1.553   2.644
 5562TIP3    H116692   5.488   1.595   2.658
 5562TIP3    H216693   5.627   1.622   2.606
 5563TIP3   OH216694   6.157   3.049   1.314
 5563TIP3    H116695   6.118   2.965   1.288
 5563TIP3    H216696   6.169   3.096   1.231
 5564TIP3   OH216697   1.413   5.297   1.727
 5564TIP3    H116698   1.420   5.380   1.679
 5564TIP3    H216699   1.319   5.283   1.739
 5565TIP3   OH216700   2.040   4.761   0.184
 5565TIP3    H116701   2.091   4.788   0.261
 5565TIP3    H216702   2.101   4.769   0.111
 5566TIP3   OH216703   6.065   5.822   1.340
 5566TIP3    H116704   5.973   5.823   1.367
 5566TIP3    H216705   6.104   5.752   1.392
 5567TIP3   OH216706   6.249   0.281   1.914
 5567TIP3    H116707   6.300   0.239   1.844
 5567TIP3    H216708   6.195   0.210   1.950
 5568TIP3   OH216709   1.987   5.873   0.195
 5568TIP3    H116710   2.059   5.918   0.238
 5568TIP3    H216711   2.014   5.781   0.194
 5569TIP3   OH216712   4.498   3.868   0.060
 5569TIP3    H116713   4.515   3.921  -0.017
 5569TIP3    H216714   4.402   3.866   0.068
 5570TIP3   OH216715   4.009   4.700   3.587
 5570TIP3    H116716   3.946   4.769   3.571
 5570TIP3    H216717   3.957   4.620   3.595
 5571TIP3   OH216718   0.265   5.087   2.428
 5571TIP3    H116719   0.203   5.069   2.358
 5571TIP3    H216720   0.238   5.172   2.463
 5572TIP3   OH216721   3.900   5.622   4.415
 5572TIP3    H116722   3.949   5.571   4.479
 5572TIP3    H216723   3.851   5.685   4.467
 5573TIP3   OH216724   4.411   3.119   1.823
 5573TIP3    H116725   4.349   3.183   1.788
 5573TIP3    H216726   4.385   3.110   1.915
 5574TIP3   OH216727   2.508   2.040   2.721
 5574TIP3    H116728   2.445   2.082   2.662
 5574TIP3    H216729   2.476   1.950   2.730
 5575TIP3   OH216730   2.818   0.976   2.982
 5575TIP3    H116731   2.873   1.054   2.978
 5575TIP3    H216732   2.848   0.930   3.061
 5576TIP3   OH216733   5.571   1.013   2.598
 5576TIP3    H116734   5.559   0.957   2.521
 5576TIP3    H216735   5.621   1.088   2.565
 5577TIP3   OH216736   5.609   4.642   0.490
 5577TIP3    H116737   5.686   4.697   0.508
 5577TIP3    H216738   5.536   4.703   0.489
 5578TIP3   OH216739   5.064   2.364   2.993
 5578TIP3    H116740   5.137   2.425   3.006
 5578TIP3    H216741   5.090   2.285   3.040
 5579TIP3   OH216742   4.896   0.329   0.793
 5579TIP3    H116743   4.809   0.369   0.784
 5579TIP3    H216744   4.957   0.400   0.774
 5580TIP3   OH216745   0.716   4.361   4.686
 5580TIP3    H116746   0.659   4.317   4.624
 5580TIP3    H216747   0.658   4.417   4.738
 5581TIP3   OH216748   1.605   2.776   4.886
 5581TIP3    H116749   1.687   2.728   4.896
 5581TIP3    H216750   1.540   2.722   4.930
 5582TIP3   OH216751   4.115   1.385   3.554
 5582TIP3    H116752   4.203   1.350   3.566
 5582TIP3    H216753   4.065   1.313   3.516
 5583TIP3   OH216754   2.666   1.365   1.921
 5583TIP3    H116755   2.650   1.454   1.890
 5583TIP3    H216756   2.745   1.338   1.875
 5584TIP3   OH216757   0.668   3.983   4.599
 5584TIP3    H116758   0.659   3.951   4.509
 5584TIP3    H216759   0.668   3.905   4.653
 5585TIP3   OH216760   5.392   5.809   3.574
 5585TIP3    H116761   5.324   5.742   3.567
 5585TIP3    H216762   5.442   5.801   3.493
 5586TIP3   OH216763   2.748   1.679   1.905
 5586TIP3    H116764   2.753   1.640   1.818
 5586TIP3    H216765   2.788   1.613   1.963
 5587TIP3   OH216766   5.329   1.737   2.302
 5587TIP3    H116767   5.369   1.771   2.382
 5587TIP3    H216768   5.359   1.646   2.297
 5588TIP3   OH216769   4.631   5.709   0.400
 5588TIP3    H116770   4.722   5.680   0.408
 5588TIP3    H216771   4.622   5.777   0.467
 5589TIP3   OH216772   3.512   2.790   0.531
 5589TIP3    H116773   3.575   2.837   0.477
 5589TIP3    H216774   3.551   2.788   0.618
 5590TIP3   OH216775   5.736   0.654   2.102
 5590TIP3    H116776   5.748   0.749   2.109
 5590TIP3    H216777   5.782   0.629   2.022
 5591TIP3   OH216778   2.976   0.337   4.645
 5591TIP3    H116779   3.005   0.307   4.559
 5591TIP3    H216780   2.901   0.282   4.666
 5592TIP3   OH216781   4.860   0.926   4.277
 5592TIP3    H116782   4.777   0.974   4.282
 5592TIP3    H216783   4.912   0.960   4.350
 5593TIP3   OH216784   2.703   5.638   4.400
 5593TIP3    H116785   2.675   5.713   4.454
 5593TIP3    H216786   2.631   5.576   4.407
 5594TIP3   OH216787   1.683   4.099   2.825
 5594TIP3    H116788   1.593   4.093   2.794
 5594TIP3    H216789   1.677   4.078   2.918
 5595TIP3   OH216790   4.542   4.474   0.451
 5595TIP3    H116791   4.609   4.533   0.485
 5595TIP3    H216792   4.547   4.397   0.508
 5596TIP3   OH216793   4.954   5.165   3.747
 5596TIP3    H116794   4.988   5.219   3.818
 5596TIP3    H216795   4.966   5.075   3.778
 5597TIP3   OH216796   6.037   3.086   1.915
 5597TIP3    H116797   6.062   3.168   1.959
 5597TIP3    H216798   6.104   3.023   1.942
 5598TIP3   OH216799   1.472   0.375   1.399
 5598TIP3    H116800   1.540   0.345   1.339
 5598TIP3    H216801   1.510   0.451   1.443
 5599TIP3   OH216802   3.181   5.115   2.010
 5599TIP3    H116803   3.104   5.088   2.060
 5599TIP3    H216804   3.186   5.209   2.023
 5600TIP3   OH216805   0.906   4.213   1.651
 5600TIP3    H116806   0.866   4.285   1.602
 5600TIP3    H216807   0.931   4.149   1.584
 5601TIP3   OH216808   0.623   1.578   1.551
 5601TIP3    H116809   0.608   1.650   1.490
 5601TIP3    H216810   0.701   1.534   1.519
 5602TIP3   OH216811   3.706   4.251   0.695
 5602TIP3    H116812   3.662   4.305   0.630
 5602TIP3    H216813   3.748   4.313   0.755
 5603TIP3   OH216814   2.571   5.904   0.734
 5603TIP3    H116815   2.600   5.902   0.643
 5603TIP3    H216816   2.652   5.902   0.785
 5604TIP3   OH216817   1.197   4.726   0.319
 5604TIP3    H116818   1.150   4.735   0.235
 5604TIP3    H216819   1.152   4.787   0.377
 5605TIP3   OH216820   5.199   3.856   0.425
 5605TIP3    H116821   5.199   3.808   0.341
 5605TIP3    H216822   5.108   3.849   0.456
 5606TIP3   OH216823   2.744   1.442   4.230
 5606TIP3    H116824   2.831   1.478   4.248
 5606TIP3    H216825   2.686   1.518   4.229
 5607TIP3   OH216826   0.315   2.645   2.159
 5607TIP3    H116827   0.354   2.580   2.101
 5607TIP3    H216828   0.273   2.593   2.228
 5608TIP3   OH216829   1.882   0.762   1.180
 5608TIP3    H116830   1.861   0.855   1.169
 5608TIP3    H216831   1.974   0.755   1.154
 5609TIP3   OH216832   5.170   0.946   2.948
 5609TIP3    H116833   5.228   0.870   2.935
 5609TIP3    H216834   5.154   0.979   2.860
 5610TIP3   OH216835   4.378   5.100   3.564
 5610TIP3    H116836   4.415   5.087   3.476
 5610TIP3    H216837   4.284   5.107   3.549
 5611TIP3   OH216838   3.531   3.617   3.692
 5611TIP3    H116839   3.450   3.667   3.697
 5611TIP3    H216840   3.591   3.673   3.643
 5612TIP3   OH216841   4.347   5.405   1.586
 5612TIP3    H116842   4.390   5.454   1.516
 5612TIP3    H216843   4.417   5.383   1.648
 5613TIP3   OH216844   1.236   1.485   3.915
 5613TIP3    H116845   1.264   1.524   3.998
 5613TIP3    H216846   1.306   1.423   3.893
 5614TIP3   OH216847   5.954   5.702   4.961
 5614TIP3    H116848   6.015   5.662   5.023
 5614TIP3    H216849   5.900   5.630   4.930
 5615TIP3   OH216850   0.464   0.097   1.361
 5615TIP3    H116851   0.437   0.179   1.401
 5615TIP3    H216852   0.551   0.080   1.397
 5616TIP3   OH216853   3.521   1.194   1.823
 5616TIP3    H116854   3.465   1.136   1.875
 5616TIP3    H216855   3.568   1.246   1.887
 5617TIP3   OH216856   2.812   5.609   1.365
 5617TIP3    H116857   2.745   5.663   1.325
 5617TIP3    H216858   2.811   5.633   1.458
 5618TIP3   OH216859   2.329   1.642   4.238
 5618TIP3    H116860   2.296   1.599   4.317
 5618TIP3    H216861   2.298   1.587   4.166
 5619TIP3   OH216862   0.297   0.185   0.289
 5619TIP3    H116863   0.228   0.178   0.223
 5619TIP3    H216864   0.278   0.267   0.335
 5620TIP3   OH216865   4.502   0.972   3.619
 5620TIP3    H116866   4.417   1.012   3.600
 5620TIP3    H216867   4.558   0.999   3.546
 5621TIP3   OH216868   1.286   2.372   3.455
 5621TIP3    H116869   1.206   2.424   3.452
 5621TIP3    H216870   1.274   2.306   3.387
 5622TIP3   OH216871   3.893   2.959   1.574
 5622TIP3    H116872   3.895   3.044   1.619
 5622TIP3    H216873   3.899   2.895   1.645
 5623TIP3   OH216874   1.795   0.142   1.876
 5623TIP3    H116875   1.772   0.070   1.935
 5623TIP3    H216876   1.836   0.207   1.933
 5624TIP3   OH216877   5.449   4.089   3.641
 5624TIP3    H116878   5.440   4.055   3.552
 5624TIP3    H216879   5.488   4.175   3.631
 5625TIP3   OH216880   2.577   1.933   2.420
 5625TIP3    H116881   2.599   1.851   2.464
 5625TIP3    H216882   2.655   1.987   2.428
 5626TIP3   OH216883   4.024   4.043   4.520
 5626TIP3    H116884   4.039   4.071   4.610
 5626TIP3    H216885   4.077   4.103   4.467
 5627TIP3   OH216886   2.036   5.916   3.536
 5627TIP3    H116887   1.959   5.934   3.591
 5627TIP3    H216888   2.048   5.822   3.544
 5628TIP3   OH216889   2.845   2.325   0.392
 5628TIP3    H116890   2.763   2.373   0.382
 5628TIP3    H216891   2.913   2.392   0.385
 5629TIP3   OH216892   5.493   3.901   5.025
 5629TIP3    H116893   5.541   3.861   4.953
 5629TIP3    H216894   5.421   3.948   4.983
 5630TIP3   OH216895   4.241   1.722   2.323
 5630TIP3    H116896   4.215   1.745   2.412
 5630TIP3    H216897   4.329   1.686   2.332
 5631TIP3   OH216898   4.646   4.558   2.891
 5631TIP3    H116899   4.739   4.581   2.893
 5631TIP3    H216900   4.644   4.464   2.909
 5632TIP3   OH216901   1.265   3.148   0.363
 5632TIP3    H116902   1.249   3.062   0.325
 5632TIP3    H216903   1.334   3.133   0.427
 5633TIP3   OH216904   3.888   2.812   0.264
 5633TIP3    H116905   3.841   2.732   0.290
 5633TIP3    H216906   3.964   2.814   0.322
 5634TIP3   OH216907   5.198   0.268   3.962
 5634TIP3    H116908   5.129   0.226   4.014
 5634TIP3    H216909   5.271   0.205   3.963
 5635TIP3   OH216910   0.569   2.435   3.871
 5635TIP3    H116911   0.583   2.528   3.889
 5635TIP3    H216912   0.549   2.431   3.778
 5636TIP3   OH216913   4.368   5.573   2.419
 5636TIP3    H116914   4.291   5.620   2.388
 5636TIP3    H216915   4.342   5.537   2.504
 5637TIP3   OH216916   0.129   3.805   3.737
 5637TIP3    H116917   0.044   3.798   3.780
 5637TIP3    H216918   0.193   3.791   3.807
 5638TIP3   OH216919   2.402   2.292   1.937
 5638TIP3    H116920   2.358   2.244   1.867
 5638TIP3    H216921   2.480   2.329   1.895
 5639TIP3   OH216922   5.591   2.842   5.083
 5639TIP3    H116923   5.650   2.777   5.047
 5639TIP3    H216924   5.568   2.809   5.170
 5640TIP3   OH216925   5.852   2.514   4.167
 5640TIP3    H116926   5.758   2.531   4.162
 5640TIP3    H216927   5.862   2.452   4.239
 5641TIP3   OH216928   4.185   1.284   0.397
 5641TIP3    H116929   4.259   1.269   0.338
 5641TIP3    H216930   4.170   1.200   0.440
 5642TIP3   OH216931   4.007   5.777   0.581
 5642TIP3    H116932   3.916   5.756   0.559
 5642TIP3    H216933   4.058   5.735   0.512
 5643TIP3   OH216934   3.606   3.460   4.348
 5643TIP3    H116935   3.613   3.397   4.276
 5643TIP3    H216936   3.514   3.459   4.372
 5644TIP3   OH216937   4.793   1.230   2.584
 5644TIP3    H116938   4.886   1.251   2.588
 5644TIP3    H216939   4.766   1.260   2.497
 5645TIP3   OH216940   3.133   5.340   2.981
 5645TIP3    H116941   3.091   5.359   3.065
 5645TIP3    H216942   3.200   5.275   3.002
 5646TIP3   OH216943   1.699   0.492   4.064
 5646TIP3    H116944   1.716   0.468   3.973
 5646TIP3    H216945   1.775   0.544   4.090
 5647TIP3   OH216946   5.509   1.462   5.075
 5647TIP3    H116947   5.427   1.428   5.112
 5647TIP3    H216948   5.492   1.555   5.060
 5648TIP3   OH216949   2.524   3.438   4.598
 5648TIP3    H116950   2.526   3.357   4.548
 5648TIP3    H216951   2.432   3.461   4.603
 5649TIP3   OH216952   3.422   2.214   2.269
 5649TIP3    H116953   3.394   2.266   2.194
 5649TIP3    H216954   3.388   2.126   2.251
 5650TIP3   OH216955   5.691   4.852   3.228
 5650TIP3    H116956   5.602   4.819   3.220
 5650TIP3    H216957   5.707   4.900   3.147
 5651TIP3   OH216958   5.556   4.796   1.844
 5651TIP3    H116959   5.603   4.725   1.800
 5651TIP3    H216960   5.573   4.873   1.790
 5652TIP3   OH216961   3.490   3.438   2.413
 5652TIP3    H116962   3.478   3.385   2.492
 5652TIP3    H216963   3.402   3.471   2.393
 5653TIP3   OH216964   0.412   0.741   3.986
 5653TIP3    H116965   0.459   0.673   4.035
 5653TIP3    H216966   0.473   0.769   3.918
 5654TIP3   OH216967   1.570   1.711   4.559
 5654TIP3    H116968   1.508   1.737   4.490
 5654TIP3    H216969   1.645   1.675   4.512
 5655TIP3   OH216970   0.941   0.095   1.830
 5655TIP3    H116971   0.992   0.034   1.776
 5655TIP3    H216972   0.871   0.124   1.772
 5656TIP3   OH216973   3.558   4.842   1.491
 5656TIP3    H116974   3.571   4.753   1.523
 5656TIP3    H216975   3.644   4.882   1.493
 5657TIP3   OH216976   6.267   0.211   2.699
 5657TIP3    H116977   6.295   0.255   2.779
 5657TIP3    H216978   6.213   0.275   2.653
 5658TIP3   OH216979   0.799   2.613   1.643
 5658TIP3    H116980   0.842   2.691   1.678
 5658TIP3    H216981   0.824   2.610   1.551
 5659TIP3   OH216982   3.286   3.209   5.056
 5659TIP3    H116983   3.248   3.125   5.083
 5659TIP3    H216984   3.214   3.256   5.014
 5660TIP3   OH216985   1.729   2.652   4.125
 5660TIP3    H116986   1.774   2.736   4.132
 5660TIP3    H216987   1.793   2.593   4.084
 5661TIP3   OH216988   5.139   5.791   3.842
 5661TIP3    H116989   5.147   5.742   3.760
 5661TIP3    H216990   5.047   5.815   3.847
 5662TIP3   OH216991   3.805   2.500   1.667
 5662TIP3    H116992   3.808   2.488   1.572
 5662TIP3    H216993   3.877   2.559   1.687
 5663TIP3   OH216994   4.033   0.837   1.152
 5663TIP3    H116995   4.120   0.822   1.116
 5663TIP3    H216996   4.047   0.893   1.228
 5664TIP3   OH216997   3.320   4.017   2.032
 5664TIP3    H116998   3.245   3.970   2.068
 5664TIP3    H216999   3.288   4.055   1.950
 5665TIP3   OH217000   0.648   3.307   3.077
 5665TIP3    H117001   0.670   3.331   3.166
 5665TIP3    H217002   0.620   3.388   3.035
 5666TIP3   OH217003   5.150   3.888   2.694
 5666TIP3    H117004   5.104   3.920   2.772
 5666TIP3    H217005   5.093   3.911   2.621
 5667TIP3   OH217006   4.597   5.385   1.745
 5667TIP3    H117007   4.649   5.458   1.778
 5667TIP3    H217008   4.624   5.310   1.797
 5668TIP3   OH217009   5.081   4.878   0.491
 5668TIP3    H117010   5.087   4.788   0.459
 5668TIP3    H217011   4.989   4.889   0.515
 5669TIP3   OH217012   2.737   5.435   4.063
 5669TIP3    H117013   2.661   5.481   4.100
 5669TIP3    H217014   2.726   5.441   3.969
 5670TIP3   OH217015   4.561   3.391   4.961
 5670TIP3    H117016   4.644   3.417   5.000
 5670TIP3    H217017   4.528   3.322   5.018
 5671TIP3   OH217018   2.588   3.061   3.428
 5671TIP3    H117019   2.494   3.061   3.408
 5671TIP3    H217020   2.621   2.983   3.385
 5672TIP3   OH217021   5.857   0.705   3.988
 5672TIP3    H117022   5.862   0.788   3.942
 5672TIP3    H217023   5.947   0.686   4.013
 5673TIP3   OH217024   1.285   1.627   4.852
 5673TIP3    H117025   1.273   1.533   4.843
 5673TIP3    H217026   1.348   1.637   4.923
 5674TIP3   OH217027   4.951   2.455   3.792
 5674TIP3    H117028   4.877   2.485   3.844
 5674TIP3    H217029   4.912   2.421   3.712
 5675TIP3   OH217030   0.226   3.750   4.046
 5675TIP3    H117031   0.268   3.667   4.022
 5675TIP3    H217032   0.132   3.732   4.042
 5676TIP3   OH217033   0.813   4.117   2.017
 5676TIP3    H117034   0.773   4.109   2.103
 5676TIP3    H217035   0.856   4.033   2.002
 5677TIP3   OH217036   3.834   5.661   4.785
 5677TIP3    H117037   3.793   5.668   4.871
 5677TIP3    H217038   3.763   5.632   4.727
 5678TIP3   OH217039   4.817   5.965   0.508
 5678TIP3    H117040   4.850   6.054   0.517
 5678TIP3    H217041   4.787   5.942   0.596
 5679TIP3   OH217042   0.524   5.182   1.616
 5679TIP3    H117043   0.586   5.250   1.589
 5679TIP3    H217044   0.505   5.133   1.537
 5680TIP3   OH217045   2.000   2.313   0.225
 5680TIP3    H117046   2.093   2.298   0.209
 5680TIP3    H217047   1.975   2.244   0.286
 5681TIP3   OH217048   1.725   4.464   4.536
 5681TIP3    H117049   1.639   4.452   4.576
 5681TIP3    H217050   1.779   4.393   4.571
 5682TIP3   OH217051   2.444   2.226   0.367
 5682TIP3    H117052   2.475   2.156   0.425
 5682TIP3    H217053   2.350   2.231   0.385
 5683TIP3   OH217054   1.365   0.543   1.771
 5683TIP3    H117055   1.394   0.507   1.854
 5683TIP3    H217056   1.289   0.490   1.747
 5684TIP3   OH217057   2.544   3.863   0.140
 5684TIP3    H117058   2.536   3.950   0.101
 5684TIP3    H217059   2.559   3.805   0.065
 5685TIP3   OH217060   1.430   5.758   2.599
 5685TIP3    H117061   1.510   5.808   2.614
 5685TIP3    H217062   1.368   5.821   2.563
 5686TIP3   OH217063   3.160   5.607   4.256
 5686TIP3    H117064   3.131   5.584   4.168
 5686TIP3    H217065   3.189   5.524   4.294
 5687TIP3   OH217066   1.261   3.507   4.156
 5687TIP3    H117067   1.294   3.595   4.136
 5687TIP3    H217068   1.167   3.512   4.137
 5688TIP3   OH217069   2.291   2.853   0.786
 5688TIP3    H117070   2.359   2.915   0.813
 5688TIP3    H217071   2.291   2.787   0.856
 5689TIP3   OH217072   4.324   1.788   3.764
 5689TIP3    H117073   4.336   1.777   3.669
 5689TIP3    H217074   4.276   1.871   3.772
 5690TIP3   OH217075   2.632   1.304   3.226
 5690TIP3    H117076   2.563   1.341   3.170
 5690TIP3    H217077   2.711   1.311   3.173
 5691TIP3   OH217078   3.458   4.707   4.330
 5691TIP3    H117079   3.384   4.765   4.347
 5691TIP3    H217080   3.461   4.649   4.406
 5692TIP3   OH217081   0.576   5.371   4.989
 5692TIP3    H117082   0.523   5.366   5.069
 5692TIP3    H217083   0.526   5.323   4.924
 5693TIP3   OH217084   0.796   3.667   4.306
 5693TIP3    H117085   0.756   3.752   4.284
 5693TIP3    H217086   0.805   3.669   4.401
 5694TIP3   OH217087   5.394   3.975   4.137
 5694TIP3    H117088   5.341   3.943   4.064
 5694TIP3    H217089   5.330   4.012   4.198
 5695TIP3   OH217090   4.721   2.584   2.430
 5695TIP3    H117091   4.762   2.519   2.487
 5695TIP3    H217092   4.788   2.605   2.365
 5696TIP3   OH217093   4.171   3.942   2.589
 5696TIP3    H117094   4.138   3.931   2.678
 5696TIP3    H217095   4.094   3.968   2.538
 5697TIP3   OH217096   2.593   0.661   2.793
 5697TIP3    H117097   2.556   0.702   2.872
 5697TIP3    H217098   2.551   0.708   2.721
 5698TIP3   OH217099   3.402   3.231   0.975
 5698TIP3    H117100   3.445   3.185   1.047
 5698TIP3    H217101   3.364   3.161   0.922
 5699TIP3   OH217102   1.961   3.620   1.043
 5699TIP3    H117103   1.930   3.624   0.953
 5699TIP3    H217104   2.051   3.588   1.037
 5700TIP3   OH217105   2.581   5.847   3.071
 5700TIP3    H117106   2.542   5.793   3.002
 5700TIP3    H217107   2.663   5.802   3.093
 5701TIP3   OH217108   3.954   2.221   0.418
 5701TIP3    H117109   3.900   2.300   0.414
 5701TIP3    H217110   3.944   2.180   0.332
 5702TIP3   OH217111   0.820   2.544   2.360
 5702TIP3    H117112   0.797   2.538   2.453
 5702TIP3    H217113   0.740   2.519   2.314
 5703TIP3   OH217114   3.637   0.742   2.660
 5703TIP3    H117115   3.722   0.705   2.637
 5703TIP3    H217116   3.599   0.771   2.577
 5704TIP3   OH217117   0.545   3.599   1.790
 5704TIP3    H117118   0.490   3.675   1.773
 5704TIP3    H217119   0.621   3.635   1.836
 5705TIP3   OH217120   0.766   4.787   0.468
 5705TIP3    H117121   0.723   4.745   0.543
 5705TIP3    H217122   0.815   4.716   0.426
 5706TIP3   OH217123   0.355   0.686   3.578
 5706TIP3    H117124   0.405   0.753   3.623
 5706TIP3    H217125   0.320   0.630   3.648
 5707TIP3   OH217126   5.785   4.222   2.757
 5707TIP3    H117127   5.871   4.224   2.713
 5707TIP3    H217128   5.806   4.203   2.848
 5708TIP3   OH217129   2.261   6.002   4.628
 5708TIP3    H117130   2.306   5.997   4.712
 5708TIP3    H217131   2.177   5.959   4.643
 5709TIP3   OH217132   2.713   1.769   0.515
 5709TIP3    H117133   2.751   1.749   0.429
 5709TIP3    H217134   2.684   1.684   0.548
 5710TIP3   OH217135   2.063   1.640   4.470
 5710TIP3    H117136   2.027   1.618   4.384
 5710TIP3    H217137   1.989   1.675   4.519
 5711TIP3   OH217138   4.182   2.227   3.954
 5711TIP3    H117139   4.143   2.311   3.980
 5711TIP3    H217140   4.169   2.170   4.030
 5712TIP3   OH217141   5.494   2.182   1.039
 5712TIP3    H117142   5.540   2.108   1.080
 5712TIP3    H217143   5.509   2.255   1.100
 5713TIP3   OH217144   2.986   1.808   3.409
 5713TIP3    H117145   3.073   1.796   3.371
 5713TIP3    H217146   3.003   1.836   3.499
 5714TIP3   OH217147   1.180   4.241   4.760
 5714TIP3    H117148   1.086   4.222   4.766
 5714TIP3    H217149   1.187   4.302   4.686
 5715TIP3   OH217150   5.299   1.635   0.364
 5715TIP3    H117151   5.371   1.595   0.316
 5715TIP3    H217152   5.247   1.561   0.396
 5716TIP3   OH217153   5.993   5.264   2.394
 5716TIP3    H117154   6.079   5.229   2.415
 5716TIP3    H217155   5.982   5.339   2.451
 5717TIP3   OH217156   1.255   0.512   4.236
 5717TIP3    H117157   1.259   0.511   4.331
 5717TIP3    H217158   1.225   0.425   4.211
 5718TIP3   OH217159   2.311   1.415   2.197
 5718TIP3    H117160   2.387   1.455   2.155
 5718TIP3    H217161   2.345   1.381   2.280
 5719TIP3   OH217162   5.632   0.093   1.169
 5719TIP3    H117163   5.687   0.015   1.156
 5719TIP3    H217164   5.557   0.062   1.220
 5720TIP3   OH217165   2.574   1.780   3.435
 5720TIP3    H117166   2.589   1.866   3.397
 5720TIP3    H217167   2.485   1.757   3.409
 5721TIP3   OH217168   3.879   3.495   4.415
 5721TIP3    H117169   3.795   3.512   4.373
 5721TIP3    H217170   3.857   3.440   4.491
 5722TIP3   OH217171   2.217   1.193   3.184
 5722TIP3    H117172   2.147   1.254   3.207
 5722TIP3    H217173   2.250   1.161   3.268
 5723TIP3   OH217174   2.709   0.337   0.927
 5723TIP3    H117175   2.787   0.284   0.915
 5723TIP3    H217176   2.701   0.388   0.846
 5724TIP3   OH217177   1.070   3.690   4.937
 5724TIP3    H117178   1.140   3.749   4.966
 5724TIP3    H217179   1.083   3.611   4.989
 5725TIP3   OH217180   1.005   5.443   0.229
 5725TIP3    H117181   0.992   5.538   0.224
 5725TIP3    H217182   1.012   5.415   0.137
 5726TIP3   OH217183   4.887   2.743   4.509
 5726TIP3    H117184   4.969   2.698   4.532
 5726TIP3    H217185   4.821   2.674   4.514
 5727TIP3   OH217186   4.828   2.357   2.142
 5727TIP3    H117187   4.904   2.315   2.180
 5727TIP3    H217188   4.847   2.451   2.147
 5728TIP3   OH217189   5.283   0.784   4.433
 5728TIP3    H117190   5.359   0.741   4.393
 5728TIP3    H217191   5.235   0.714   4.477
 5729TIP3   OH217192   1.674   4.705   4.829
 5729TIP3    H117193   1.731   4.739   4.898
 5729TIP3    H217194   1.585   4.715   4.865
 5730TIP3   OH217195   2.487   3.754   4.470
 5730TIP3    H117196   2.540   3.806   4.409
 5730TIP3    H217197   2.405   3.802   4.477
 5731TIP3   OH217198   0.059   0.878   0.076
 5731TIP3    H117199  -0.021   0.828   0.086
 5731TIP3    H217200   0.032   0.969   0.088
 5732TIP3   OH217201   5.998   3.343   1.306
 5732TIP3    H117202   6.052   3.278   1.261
 5732TIP3    H217203   5.960   3.296   1.381
 5733TIP3   OH217204   0.443   0.898   2.761
 5733TIP3    H117205   0.443   0.985   2.722
 5733TIP3    H217206   0.536   0.876   2.769
 5734TIP3   OH217207   1.551   3.252   5.065
 5734TIP3    H117208   1.594   3.281   5.146
 5734TIP3    H217209   1.464   3.222   5.093
 5735TIP3   OH217210   4.911   4.467   1.330
 5735TIP3    H117211   4.899   4.379   1.294
 5735TIP3    H217212   4.984   4.503   1.280
 5736TIP3   OH217213   2.429   0.496   1.571
 5736TIP3    H117214   2.339   0.504   1.541
 5736TIP3    H217215   2.482   0.517   1.495
 5737TIP3   OH217216   1.928   3.256   3.799
 5737TIP3    H117217   2.004   3.204   3.827
 5737TIP3    H217218   1.867   3.191   3.763
 5738TIP3   OH217219   5.345   4.574   2.779
 5738TIP3    H117220   5.434   4.569   2.813
 5738TIP3    H217221   5.323   4.667   2.782
 5739TIP3   OH217222   2.595   3.273   3.643
 5739TIP3    H117223   2.507   3.276   3.604
 5739TIP3    H217224   2.640   3.203   3.596
 5740TIP3   OH217225   3.440   1.596   5.169
 5740TIP3    H117226   3.483   1.582   5.085
 5740TIP3    H217227   3.511   1.624   5.228
 5741TIP3   OH217228   3.015   1.578   0.242
 5741TIP3    H117229   3.084   1.545   0.300
 5741TIP3    H217230   3.062   1.632   0.178
 5742TIP3   OH217231   4.065   0.618   3.626
 5742TIP3    H117232   4.155   0.593   3.603
 5742TIP3    H217233   4.033   0.544   3.678
 5743TIP3   OH217234   0.718   3.629   3.431
 5743TIP3    H117235   0.697   3.684   3.355
 5743TIP3    H217236   0.712   3.689   3.506
 5744TIP3   OH217237   1.338   4.582   3.317
 5744TIP3    H117238   1.419   4.554   3.273
 5744TIP3    H217239   1.367   4.646   3.381
 5745TIP3   OH217240   0.404   2.229   2.308
 5745TIP3    H117241   0.494   2.260   2.302
 5745TIP3    H217242   0.389   2.218   2.402
 5746TIP3   OH217243   4.736   5.061   4.273
 5746TIP3    H117244   4.708   5.141   4.317
 5746TIP3    H217245   4.806   5.026   4.328
 5747TIP3   OH217246   0.133   5.925   0.627
 5747TIP3    H117247   0.179   5.907   0.545
 5747TIP3    H217248   0.199   5.911   0.695
 5748TIP3   OH217249   3.168   2.527   1.417
 5748TIP3    H117250   3.224   2.524   1.339
 5748TIP3    H217251   3.110   2.601   1.402
 5749TIP3   OH217252   1.890   1.702   1.767
 5749TIP3    H117253   1.964   1.758   1.741
 5749TIP3    H217254   1.842   1.686   1.686
 5750TIP3   OH217255   2.453   5.858   2.609
 5750TIP3    H117256   2.448   5.942   2.656
 5750TIP3    H217257   2.546   5.834   2.614
 5751TIP3   OH217258   4.941   1.522   1.937
 5751TIP3    H117259   4.973   1.544   1.850
 5751TIP3    H217260   5.020   1.515   1.991
 5752TIP3   OH217261   4.029   4.482   0.615
 5752TIP3    H117262   4.053   4.497   0.524
 5752TIP3    H217263   4.097   4.525   0.666
 5753TIP3   OH217264   5.738   1.874   4.533
 5753TIP3    H117265   5.680   1.815   4.485
 5753TIP3    H217266   5.811   1.819   4.561
 5754TIP3   OH217267   2.474   5.630   0.810
 5754TIP3    H117268   2.410   5.700   0.822
 5754TIP3    H217269   2.526   5.657   0.734
 5755TIP3   OH217270   5.764   0.618   3.523
 5755TIP3    H117271   5.857   0.598   3.524
 5755TIP3    H217272   5.721   0.534   3.508
 5756TIP3   OH217273   4.228   2.026   1.139
 5756TIP3    H117274   4.226   2.062   1.228
 5756TIP3    H217275   4.294   2.078   1.094
 5757TIP3   OH217276   0.994   3.198   1.636
 5757TIP3    H117277   0.912   3.190   1.685
 5757TIP3    H217278   1.042   3.267   1.681
 5758TIP3   OH217279   0.708   0.244   0.506
 5758TIP3    H117280   0.740   0.247   0.596
 5758TIP3    H217281   0.754   0.315   0.462
 5759TIP3   OH217282   2.214   5.173   1.858
 5759TIP3    H117283   2.123   5.182   1.889
 5759TIP3    H217284   2.240   5.086   1.887
 5760TIP3   OH217285   5.107   4.427   3.191
 5760TIP3    H117286   5.129   4.338   3.163
 5760TIP3    H217287   5.139   4.433   3.281
 5761TIP3   OH217288   5.259   0.968   3.568
 5761TIP3    H117289   5.190   1.033   3.553
 5761TIP3    H217290   5.214   0.895   3.612
 5762TIP3   OH217291   1.924   3.362   0.065
 5762TIP3    H117292   1.903   3.270   0.052
 5762TIP3    H217293   1.972   3.365   0.148
 5763TIP3   OH217294   0.889   0.868   0.265
 5763TIP3    H117295   0.795   0.885   0.261
 5763TIP3    H217296   0.915   0.902   0.351
 5764TIP3   OH217297   3.975   3.221   2.213
 5764TIP3    H117298   3.940   3.308   2.198
 5764TIP3    H217299   3.977   3.212   2.308
 5765TIP3   OH217300   3.270   1.591   2.123
 5765TIP3    H117301   3.327   1.542   2.064
 5765TIP3    H217302   3.249   1.529   2.193
 5766TIP3   OH217303   6.006   3.924   3.666
 5766TIP3    H117304   5.976   4.011   3.692
 5766TIP3    H217305   6.007   3.927   3.570
 5767TIP3   OH217306   1.386   3.904   3.260
 5767TIP3    H117307   1.309   3.850   3.281
 5767TIP3    H217308   1.385   3.973   3.326
 5768TIP3   OH217309   1.517   2.540   2.380
 5768TIP3    H117310   1.533   2.481   2.453
 5768TIP3    H217311   1.596   2.593   2.373
 5769TIP3   OH217312   6.251   1.678   1.792
 5769TIP3    H117313   6.261   1.587   1.763
 5769TIP3    H217314   6.173   1.709   1.747
 5770TIP3   OH217315   3.840   2.167   1.271
 5770TIP3    H117316   3.824   2.073   1.276
 5770TIP3    H217317   3.935   2.176   1.284
 5771TIP3   OH217318   1.383   5.066   1.358
 5771TIP3    H117319   1.399   5.159   1.348
 5771TIP3    H217320   1.288   5.056   1.350
 5772TIP3   OH217321   5.376   2.885   2.693
 5772TIP3    H117322   5.415   2.935   2.764
 5772TIP3    H217323   5.344   2.952   2.632
 5773TIP3   OH217324   1.162   2.043   2.971
 5773TIP3    H117325   1.098   2.020   2.903
 5773TIP3    H217326   1.170   2.138   2.966
 5774TIP3   OH217327   6.085   5.533   3.922
 5774TIP3    H117328   6.083   5.449   3.876
 5774TIP3    H217329   6.015   5.527   3.986
 5775TIP3   OH217330   3.182   3.857   0.651
 5775TIP3    H117331   3.270   3.884   0.627
 5775TIP3    H217332   3.182   3.762   0.641
 5776TIP3   OH217333   0.664   5.044   4.388
 5776TIP3    H117334   0.697   5.110   4.449
 5776TIP3    H217335   0.620   4.980   4.444
 5777TIP3   OH217336   2.629   3.271   2.992
 5777TIP3    H117337   2.716   3.234   3.007
 5777TIP3    H217338   2.569   3.197   3.004
 5778TIP3   OH217339   5.310   3.644   2.678
 5778TIP3    H117340   5.284   3.735   2.666
 5778TIP3    H217341   5.229   3.594   2.666
 5779TIP3   OH217342   4.409   0.181   2.230
 5779TIP3    H117343   4.503   0.181   2.214
 5779TIP3    H217344   4.391   0.094   2.265
 5780TIP3   OH217345   6.103   5.559   5.112
 5780TIP3    H117346   6.147   5.492   5.060
 5780TIP3    H217347   6.087   5.517   5.196
 5781TIP3   OH217348   4.609   5.802   3.617
 5781TIP3    H117349   4.689   5.851   3.598
 5781TIP3    H217350   4.559   5.860   3.675
 5782TIP3   OH217351   5.883   2.838   2.833
 5782TIP3    H117352   5.817   2.805   2.894
 5782TIP3    H217353   5.890   2.770   2.766
 5783TIP3   OH217354   2.303   0.574   2.187
 5783TIP3    H117355   2.238   0.642   2.169
 5783TIP3    H217356   2.367   0.616   2.244
 5784TIP3   OH217357   3.215   2.122   1.557
 5784TIP3    H117358   3.156   2.197   1.570
 5784TIP3    H217359   3.271   2.148   1.484
 5785TIP3   OH217360   6.319   0.914   1.009
 5785TIP3    H117361   6.242   0.955   0.968
 5785TIP3    H217362   6.392   0.937   0.951
 5786TIP3   OH217363   1.032   5.768   0.572
 5786TIP3    H117364   1.109   5.801   0.618
 5786TIP3    H217365   0.980   5.725   0.640
 5787TIP3   OH217366   1.712   3.319   0.326
 5787TIP3    H117367   1.680   3.241   0.281
 5787TIP3    H217368   1.653   3.389   0.298
 5788TIP3   OH217369   2.138   5.880   1.959
 5788TIP3    H117370   2.053   5.902   1.921
 5788TIP3    H217371   2.119   5.858   2.050
 5789TIP3   OH217372   0.710   5.044   2.662
 5789TIP3    H117373   0.682   5.044   2.754
 5789TIP3    H217374   0.793   5.092   2.662
 5790TIP3   OH217375   4.651   1.687   4.430
 5790TIP3    H117376   4.617   1.621   4.369
 5790TIP3    H217377   4.678   1.760   4.374
 5791TIP3   OH217378   1.129   5.235   3.987
 5791TIP3    H117379   1.189   5.215   3.915
 5791TIP3    H217380   1.042   5.219   3.951
 5792TIP3   OH217381   0.985   3.558   0.252
 5792TIP3    H117382   0.990   3.462   0.253
 5792TIP3    H217383   0.925   3.579   0.323
 5793TIP3   OH217384   0.367   0.633   0.148
 5793TIP3    H117385   0.290   0.583   0.122
 5793TIP3    H217386   0.433   0.612   0.082
 5794TIP3   OH217387   3.524   0.336   2.849
 5794TIP3    H117388   3.460   0.266   2.834
 5794TIP3    H217389   3.543   0.331   2.943
 5795TIP3   OH217390   5.125   0.340   2.091
 5795TIP3    H117391   5.117   0.288   2.010
 5795TIP3    H217392   5.039   0.336   2.131
 5796TIP3   OH217393   1.620   4.397   2.710
 5796TIP3    H117394   1.623   4.422   2.803
 5796TIP3    H217395   1.528   4.381   2.692
 5797TIP3   OH217396   2.343   3.824   1.108
 5797TIP3    H117397   2.291   3.826   1.188
 5797TIP3    H217398   2.279   3.822   1.037
 5798TIP3   OH217399   1.997   0.482   3.558
 5798TIP3    H117400   2.035   0.556   3.606
 5798TIP3    H217401   1.917   0.518   3.518
 5799TIP3   OH217402   0.785   4.234   0.549
 5799TIP3    H117403   0.813   4.220   0.640
 5799TIP3    H217404   0.820   4.158   0.502
 5800TIP3   OH217405   2.925   3.712   4.094
 5800TIP3    H117406   2.972   3.689   4.014
 5800TIP3    H217407   2.967   3.793   4.124
 5801TIP3   OH217408   5.360   4.307   3.316
 5801TIP3    H117409   5.390   4.295   3.225
 5801TIP3    H217410   5.328   4.397   3.318
 5802TIP3   OH217411   3.683   0.383   0.224
 5802TIP3    H117412   3.707   0.401   0.314
 5802TIP3    H217413   3.745   0.433   0.171
 5803TIP3   OH217414   1.588   0.600   0.559
 5803TIP3    H117415   1.674   0.599   0.517
 5803TIP3    H217416   1.602   0.555   0.643
 5804TIP3   OH217417   3.380   1.150   5.124
 5804TIP3    H117418   3.407   1.224   5.180
 5804TIP3    H217419   3.429   1.075   5.158
 5805TIP3   OH217420   3.792   5.333   1.396
 5805TIP3    H117421   3.787   5.238   1.382
 5805TIP3    H217422   3.701   5.361   1.404
 5806TIP3   OH217423   3.727   3.808   4.499
 5806TIP3    H117424   3.814   3.776   4.475
 5806TIP3    H217425   3.724   3.898   4.466
 5807TIP3   OH217426   4.249   3.456   1.491
 5807TIP3    H117427   4.331   3.500   1.470
 5807TIP3    H217428   4.189   3.480   1.420
 5808TIP3   OH217429   2.059   2.665   0.987
 5808TIP3    H117430   2.145   2.702   1.008
 5808TIP3    H217431   2.072   2.620   0.904
 5809TIP3   OH217432   5.551   2.027   1.441
 5809TIP3    H117433   5.465   2.042   1.480
 5809TIP3    H217434   5.585   2.115   1.423
 5810TIP3   OH217435   4.284   2.433   0.435
 5810TIP3    H117436   4.258   2.417   0.526
 5810TIP3    H217437   4.374   2.465   0.441
 5811TIP3   OH217438   6.217   5.402   2.191
 5811TIP3    H117439   6.266   5.367   2.265
 5811TIP3    H217440   6.146   5.340   2.177
 5812TIP3   OH217441   1.146   2.130   1.394
 5812TIP3    H117442   1.228   2.097   1.429
 5812TIP3    H217443   1.093   2.052   1.379
 5813TIP3   OH217444   3.743   2.429   1.382
 5813TIP3    H117445   3.726   2.335   1.387
 5813TIP3    H217446   3.658   2.466   1.357
 5814TIP3   OH217447   6.198   1.190   4.318
 5814TIP3    H117448   6.273   1.173   4.375
 5814TIP3    H217449   6.231   1.253   4.254
 5815TIP3   OH217450   5.065   1.316   2.557
 5815TIP3    H117451   5.065   1.405   2.523
 5815TIP3    H217452   5.119   1.319   2.635
 5816TIP3   OH217453   1.802   0.290   3.651
 5816TIP3    H117454   1.849   0.207   3.659
 5816TIP3    H217455   1.868   0.352   3.621
 5817TIP3   OH217456   4.649   5.794   1.772
 5817TIP3    H117457   4.646   5.764   1.863
 5817TIP3    H217458   4.559   5.781   1.740
 5818TIP3   OH217459   2.172   2.578   0.385
 5818TIP3    H117460   2.096   2.570   0.442
 5818TIP3    H217461   2.241   2.530   0.431
 5819TIP3   OH217462   0.723   5.796   5.012
 5819TIP3    H117463   0.755   5.706   5.010
 5819TIP3    H217464   0.672   5.805   4.931
 5820TIP3   OH217465   4.367   1.757   0.301
 5820TIP3    H117466   4.297   1.774   0.238
 5820TIP3    H217467   4.335   1.683   0.352
 5821TIP3   OH217468   0.123   2.135   1.364
 5821TIP3    H117469   0.122   2.176   1.450
 5821TIP3    H217470   0.216   2.127   1.342
 5822TIP3   OH217471   2.061   5.476   3.793
 5822TIP3    H117472   2.039   5.423   3.869
 5822TIP3    H217473   2.143   5.438   3.760
 5823TIP3   OH217474   0.069   0.495   3.618
 5823TIP3    H117475   0.011   0.445   3.676
 5823TIP3    H217476   0.136   0.531   3.676
 5824TIP3   OH217477   4.801   1.763   2.876
 5824TIP3    H117478   4.834   1.841   2.830
 5824TIP3    H217479   4.864   1.694   2.855
 5825TIP3   OH217480   0.859   3.229   2.620
 5825TIP3    H117481   0.835   3.315   2.655
 5825TIP3    H217482   0.805   3.218   2.543
 5826TIP3   OH217483   0.721   3.413   1.709
 5826TIP3    H117484   0.656   3.483   1.717
 5826TIP3    H217485   0.706   3.357   1.785
 5827TIP3   OH217486   6.173   1.565   3.078
 5827TIP3    H117487   6.185   1.648   3.125
 5827TIP3    H217488   6.249   1.513   3.101
 5828TIP3   OH217489   1.075   4.023   2.837
 5828TIP3    H117490   1.105   4.084   2.905
 5828TIP3    H217491   1.013   3.965   2.883
 5829TIP3   OH217492   4.349   3.666   4.944
 5829TIP3    H117493   4.412   3.626   4.885
 5829TIP3    H217494   4.339   3.603   5.015
 5830TIP3   OH217495   0.105   0.379   5.145
 5830TIP3    H117496   0.099   0.292   5.106
 5830TIP3    H217497   0.071   0.439   5.078
 5831TIP3   OH217498   5.645   2.240   3.164
 5831TIP3    H117499   5.706   2.264   3.234
 5831TIP3    H217500   5.692   2.256   3.083
 5832TIP3   OH217501   2.715   4.079   3.780
 5832TIP3    H117502   2.796   4.095   3.730
 5832TIP3    H217503   2.720   3.986   3.804
 5833TIP3   OH217504   0.165   1.925   4.393
 5833TIP3    H117505   0.178   1.997   4.331
 5833TIP3    H217506   0.072   1.903   4.386
 5834TIP3   OH217507   3.479   0.752   3.154
 5834TIP3    H117508   3.511   0.728   3.067
 5834TIP3    H217509   3.425   0.829   3.140
 5835TIP3   OH217510   5.651   5.133   2.695
 5835TIP3    H117511   5.694   5.204   2.743
 5835TIP3    H217512   5.724   5.084   2.656
 5836TIP3   OH217513   2.951   5.875   3.612
 5836TIP3    H117514   2.976   5.835   3.696
 5836TIP3    H217515   3.033   5.878   3.562
 5837TIP3   OH217516   1.484   1.257   0.493
 5837TIP3    H117517   1.507   1.167   0.471
 5837TIP3    H217518   1.454   1.295   0.411
 5838TIP3   OH217519   5.589   0.111   3.469
 5838TIP3    H117520   5.499   0.143   3.476
 5838TIP3    H217521   5.583   0.033   3.415
 5839TIP3   OH217522   2.914   4.698   2.972
 5839TIP3    H117523   2.987   4.687   2.912
 5839TIP3    H217524   2.858   4.764   2.931
 5840TIP3   OH217525   0.293   1.124   1.231
 5840TIP3    H117526   0.334   1.194   1.282
 5840TIP3    H217527   0.338   1.126   1.147
 5841TIP3   OH217528   0.890   0.945   4.574
 5841TIP3    H117529   0.924   0.862   4.541
 5841TIP3    H217530   0.968   0.998   4.590
 5842TIP3   OH217531   3.959   3.273   4.086
 5842TIP3    H117532   3.940   3.353   4.036
 5842TIP3    H217533   4.001   3.214   4.023
 5843TIP3   OH217534   2.970   2.962   4.906
 5843TIP3    H117535   2.900   2.907   4.873
 5843TIP3    H217536   2.925   3.038   4.943
 5844TIP3   OH217537   6.133   5.877   1.029
 5844TIP3    H117538   6.157   5.900   0.940
 5844TIP3    H217539   6.150   5.783   1.035
 5845TIP3   OH217540   1.810   2.775   1.560
 5845TIP3    H117541   1.883   2.838   1.554
 5845TIP3    H217542   1.740   2.824   1.603
 5846TIP3   OH217543   2.262   0.124   0.965
 5846TIP3    H117544   2.215   0.153   1.043
 5846TIP3    H217545   2.278   0.031   0.980
 5847TIP3   OH217546   2.590   3.878   1.466
 5847TIP3    H117547   2.558   3.968   1.464
 5847TIP3    H217548   2.680   3.885   1.497
 5848TIP3   OH217549   4.843   2.401   4.566
 5848TIP3    H117550   4.782   2.439   4.503
 5848TIP3    H217551   4.924   2.451   4.553
 5849TIP3   OH217552   3.888   4.928   1.887
 5849TIP3    H117553   3.809   4.917   1.833
 5849TIP3    H217554   3.944   4.855   1.861
 5850TIP3   OH217555   6.302   4.000   4.130
 5850TIP3    H117556   6.271   3.928   4.185
 5850TIP3    H217557   6.293   3.968   4.040
 5851TIP3   OH217558   2.965   5.651   4.465
 5851TIP3    H117559   2.876   5.657   4.431
 5851TIP3    H217560   3.017   5.623   4.390
 5852TIP3   OH217561   4.035   2.413   2.423
 5852TIP3    H117562   3.953   2.449   2.457
 5852TIP3    H217563   4.102   2.475   2.450
 5853TIP3   OH217564   4.415   4.679   2.298
 5853TIP3    H117565   4.320   4.678   2.313
 5853TIP3    H217566   4.453   4.676   2.385
 5854TIP3   OH217567   2.226   5.148   4.211
 5854TIP3    H117568   2.236   5.059   4.243
 5854TIP3    H217569   2.146   5.180   4.252
 5855TIP3   OH217570   5.357   2.371   2.735
 5855TIP3    H117571   5.367   2.458   2.696
 5855TIP3    H217572   5.410   2.314   2.680
 5856TIP3   OH217573   0.281   3.528   3.837
 5856TIP3    H117574   0.312   3.449   3.883
 5856TIP3    H217575   0.262   3.498   3.748
 5857TIP3   OH217576   3.705   3.298   2.007
 5857TIP3    H117577   3.622   3.340   2.028
 5857TIP3    H217578   3.735   3.261   2.090
 5858TIP3   OH217579   2.457   0.980   4.175
 5858TIP3    H117580   2.484   0.894   4.143
 5858TIP3    H217581   2.400   0.961   4.250
 5859TIP3   OH217582   3.433   5.692   3.171
 5859TIP3    H117583   3.364   5.667   3.110
 5859TIP3    H217584   3.410   5.782   3.197
 5860TIP3   OH217585   5.140   5.510   2.019
 5860TIP3    H117586   5.103   5.593   1.989
 5860TIP3    H217587   5.132   5.451   1.944
 5861TIP3   OH217588   3.967   2.729   2.299
 5861TIP3    H117589   3.898   2.671   2.267
 5861TIP3    H217590   4.047   2.676   2.291
 5862TIP3   OH217591   0.828   5.568   0.518
 5862TIP3    H117592   0.831   5.636   0.585
 5862TIP3    H217593   0.815   5.487   0.567
 5863TIP3   OH217594   4.336   1.099   1.086
 5863TIP3    H117595   4.328   1.062   0.998
 5863TIP3    H217596   4.390   1.177   1.074
 5864TIP3   OH217597   3.202   3.511   3.693
 5864TIP3    H117598   3.142   3.570   3.737
 5864TIP3    H217599   3.220   3.553   3.609
 5865TIP3   OH217600   6.310   5.327   2.921
 5865TIP3    H117601   6.226   5.282   2.916
 5865TIP3    H217602   6.360   5.291   2.848
 5866TIP3   OH217603   2.185   2.880   3.730
 5866TIP3    H117604   2.102   2.872   3.777
 5866TIP3    H217605   2.169   2.839   3.645
 5867TIP3   OH217606   3.665   3.606   2.568
 5867TIP3    H117607   3.689   3.514   2.580
 5867TIP3    H217608   3.596   3.605   2.502
 5868TIP3   OH217609   2.980   1.610   4.255
 5868TIP3    H117610   3.016   1.671   4.320
 5868TIP3    H217611   2.966   1.663   4.177
 5869TIP3   OH217612   0.580   3.789   4.983
 5869TIP3    H117613   0.507   3.834   4.939
 5869TIP3    H217614   0.539   3.741   5.054
 5870TIP3   OH217615   2.293   5.533   4.306
 5870TIP3    H117616   2.270   5.488   4.387
 5870TIP3    H217617   2.314   5.623   4.334
 5871TIP3   OH217618   3.172   4.727   3.448
 5871TIP3    H117619   3.096   4.749   3.394
 5871TIP3    H217620   3.138   4.720   3.537
 5872TIP3   OH217621   4.176   5.373   0.533
 5872TIP3    H117622   4.209   5.418   0.611
 5872TIP3    H217623   4.225   5.291   0.529
 5873TIP3   OH217624   0.136   3.676   3.385
 5873TIP3    H117625   0.146   3.759   3.431
 5873TIP3    H217626   0.077   3.625   3.439
 5874TIP3   OH217627   4.721   3.700   0.685
 5874TIP3    H117628   4.768   3.616   0.687
 5874TIP3    H217629   4.665   3.694   0.608
 5875TIP3   OH217630   1.842   1.453   4.002
 5875TIP3    H117631   1.817   1.361   4.007
 5875TIP3    H217632   1.827   1.477   3.910
 5876TIP3   OH217633   3.542   2.418   1.600
 5876TIP3    H117634   3.626   2.440   1.640
 5876TIP3    H217635   3.533   2.479   1.527
 5877TIP3   OH217636   4.947   4.155   1.306
 5877TIP3    H117637   4.891   4.171   1.230
 5877TIP3    H217638   4.904   4.083   1.353
 5878TIP3   OH217639   1.218   0.385   3.732
 5878TIP3    H117640   1.219   0.295   3.699
 5878TIP3    H217641   1.156   0.431   3.675
 5879TIP3   OH217642   3.149   3.272   1.744
 5879TIP3    H117643   3.226   3.220   1.767
 5879TIP3    H217644   3.181   3.336   1.681
 5880TIP3   OH217645   4.184   0.422   1.550
 5880TIP3    H117646   4.119   0.368   1.504
 5880TIP3    H217647   4.233   0.466   1.481
 5881TIP3   OH217648   3.779   1.678   2.175
 5881TIP3    H117649   3.742   1.691   2.088
 5881TIP3    H217650   3.784   1.765   2.213
 5882TIP3   OH217651   4.422   1.325   1.996
 5882TIP3    H117652   4.515   1.323   1.975
 5882TIP3    H217653   4.406   1.242   2.041
 5883TIP3   OH217654   4.094   4.262   1.648
 5883TIP3    H117655   4.016   4.217   1.683
 5883TIP3    H217656   4.094   4.240   1.555
 5884TIP3   OH217657   2.812   3.059   1.000
 5884TIP3    H117658   2.768   3.035   0.918
 5884TIP3    H217659   2.878   3.123   0.974
 5885TIP3   OH217660   1.220   2.889   4.831
 5885TIP3    H117661   1.209   2.984   4.842
 5885TIP3    H217662   1.185   2.852   4.912
 5886TIP3   OH217663   6.170   1.215   1.636
 5886TIP3    H117664   6.218   1.298   1.632
 5886TIP3    H217665   6.094   1.233   1.690
 5887TIP3   OH217666   2.003   5.068   2.754
 5887TIP3    H117667   1.979   5.059   2.662
 5887TIP3    H217668   2.083   5.122   2.752
 5888TIP3   OH217669   5.663   1.793   0.863
 5888TIP3    H117670   5.617   1.712   0.840
 5888TIP3    H217671   5.620   1.861   0.811
 5889TIP3   OH217672   5.186   4.685   3.058
 5889TIP3    H117673   5.176   4.590   3.050
 5889TIP3    H217674   5.179   4.701   3.152
 5890TIP3   OH217675   4.080   4.437   4.673
 5890TIP3    H117676   4.098   4.520   4.718
 5890TIP3    H217677   4.052   4.463   4.585
 5891TIP3   OH217678   5.774   2.429   5.186
 5891TIP3    H117679   5.721   2.351   5.168
 5891TIP3    H217680   5.710   2.499   5.197
 5892TIP3   OH217681   2.502   3.113   2.544
 5892TIP3    H117682   2.540   3.162   2.617
 5892TIP3    H217683   2.422   3.161   2.521
 5893TIP3   OH217684   3.102   3.318   0.481
 5893TIP3    H117685   3.166   3.250   0.458
 5893TIP3    H217686   3.022   3.269   0.501
 5894TIP3   OH217687   1.701   0.477   2.631
 5894TIP3    H117688   1.745   0.432   2.703
 5894TIP3    H217689   1.666   0.557   2.671
 5895TIP3   OH217690   3.514   4.208   5.186
 5895TIP3    H117691   3.527   4.123   5.143
 5895TIP3    H217692   3.516   4.271   5.114
 5896TIP3   OH217693   2.354   1.644   1.109
 5896TIP3    H117694   2.376   1.599   1.027
 5896TIP3    H217695   2.258   1.639   1.114
 5897TIP3   OH217696   4.772   4.190   1.731
 5897TIP3    H117697   4.866   4.200   1.746
 5897TIP3    H217698   4.766   4.136   1.652
 5898TIP3   OH217699   2.330   2.620   0.633
 5898TIP3    H117700   2.291   2.698   0.671
 5898TIP3    H217701   2.423   2.641   0.625
 5899TIP3   OH217702   2.564   0.664   0.759
 5899TIP3    H117703   2.527   0.656   0.847
 5899TIP3    H217704   2.492   0.701   0.707
 5900TIP3   OH217705   3.014   4.687  -0.019
 5900TIP3    H117706   2.995   4.708   0.072
 5900TIP3    H217707   3.096   4.734  -0.038
 5901TIP3   OH217708   0.151   0.486   3.199
 5901TIP3    H117709   0.241   0.497   3.169
 5901TIP3    H217710   0.148   0.530   3.284
 5902TIP3   OH217711   2.387   2.850   2.226
 5902TIP3    H117712   2.323   2.913   2.260
 5902TIP3    H217713   2.336   2.770   2.212
 5903TIP3   OH217714   1.504   2.921   3.408
 5903TIP3    H117715   1.485   2.994   3.467
 5903TIP3    H217716   1.465   2.844   3.450
 5904TIP3   OH217717   5.759   4.916   4.260
 5904TIP3    H117718   5.722   4.854   4.324
 5904TIP3    H217719   5.682   4.958   4.221
 5905TIP3   OH217720   5.778   3.385   3.280
 5905TIP3    H117721   5.781   3.362   3.187
 5905TIP3    H217722   5.743   3.306   3.323
 5906TIP3   OH217723   4.283   2.793   3.249
 5906TIP3    H117724   4.279   2.832   3.162
 5906TIP3    H217725   4.331   2.856   3.302
 5907TIP3   OH217726   4.444   0.670   5.026
 5907TIP3    H117727   4.488   0.750   4.997
 5907TIP3    H217728   4.447   0.612   4.950
 5908TIP3   OH217729   1.039   4.933   0.069
 5908TIP3    H117730   1.119   4.979   0.091
 5908TIP3    H217731   1.002   4.983  -0.004
 5909TIP3   OH217732   3.912   5.362   1.151
 5909TIP3    H117733   3.845   5.354   1.219
 5909TIP3    H217734   3.866   5.398   1.076
 5910TIP3   OH217735   3.765   5.846   4.458
 5910TIP3    H117736   3.681   5.854   4.413
 5910TIP3    H217737   3.759   5.908   4.531
 5911TIP3   OH217738   0.249   5.597   0.602
 5911TIP3    H117739   0.264   5.503   0.603
 5911TIP3    H217740   0.155   5.607   0.613
 5912TIP3   OH217741   5.510   3.697   0.453
 5912TIP3    H117742   5.445   3.627   0.455
 5912TIP3    H217743   5.524   3.719   0.545
 5913TIP3   OH217744   0.142   2.873   3.292
 5913TIP3    H117745   0.059   2.836   3.260
 5913TIP3    H217746   0.143   2.850   3.385
 5914TIP3   OH217747   4.286   0.989   0.816
 5914TIP3    H117748   4.218   0.929   0.786
 5914TIP3    H217749   4.363   0.966   0.765
 5915TIP3   OH217750   2.745   4.952   2.806
 5915TIP3    H117751   2.813   5.011   2.841
 5915TIP3    H217752   2.664   4.981   2.849
 5916TIP3   OH217753   2.684   4.838   0.938
 5916TIP3    H117754   2.717   4.918   0.978
 5916TIP3    H217755   2.621   4.868   0.872
 5917TIP3   OH217756   1.470   0.371   2.007
 5917TIP3    H117757   1.540   0.313   2.038
 5917TIP3    H217758   1.481   0.451   2.058
 5918TIP3   OH217759   1.140   3.758   3.301
 5918TIP3    H117760   1.072   3.700   3.266
 5918TIP3    H217761   1.154   3.727   3.390
 5919TIP3   OH217762   2.570   2.335   4.090
 5919TIP3    H117763   2.613   2.257   4.056
 5919TIP3    H217764   2.581   2.401   4.022
 5920TIP3   OH217765   0.202   1.972   0.120
 5920TIP3    H117766   0.230   2.054   0.159
 5920TIP3    H217767   0.280   1.917   0.119
 5921TIP3   OH217768   0.720   4.717   3.422
 5921TIP3    H117769   0.676   4.634   3.404
 5921TIP3    H217770   0.771   4.700   3.501
 5922TIP3   OH217771   2.538   0.592   5.054
 5922TIP3    H117772   2.616   0.537   5.061
 5922TIP3    H217773   2.516   0.614   5.144
 5923TIP3   OH217774   4.683   1.110   3.444
 5923TIP3    H117775   4.645   1.088   3.359
 5923TIP3    H217776   4.761   1.055   3.450
 5924TIP3   OH217777   2.288   1.400   5.077
 5924TIP3    H117778   2.365   1.401   5.020
 5924TIP3    H217779   2.255   1.490   5.074
 5925TIP3   OH217780   0.942   1.961   1.325
 5925TIP3    H117781   0.950   1.903   1.401
 5925TIP3    H217782   0.895   1.908   1.261
 5926TIP3   OH217783   0.272   6.047   4.604
 5926TIP3    H117784   0.266   6.054   4.508
 5926TIP3    H217785   0.277   5.953   4.620
 5927TIP3   OH217786   4.473   0.630   2.728
 5927TIP3    H117787   4.547   0.637   2.668
 5927TIP3    H217788   4.405   0.686   2.689
 5928TIP3   OH217789   4.565   0.272   4.004
 5928TIP3    H117790   4.598   0.291   4.092
 5928TIP3    H217791   4.639   0.233   3.958
 5929TIP3   OH217792   1.563   1.487   4.056
 5929TIP3    H117793   1.655   1.462   4.047
 5929TIP3    H217794   1.519   1.441   3.985
 5930TIP3   OH217795   3.471   2.530   2.879
 5930TIP3    H117796   3.411   2.543   2.805
 5930TIP3    H217797   3.449   2.443   2.912
 5931TIP3   OH217798   5.146   1.404   0.424
 5931TIP3    H117799   5.174   1.323   0.466
 5931TIP3    H217800   5.099   1.374   0.345
 5932TIP3   OH217801   0.167   1.606   3.656
 5932TIP3    H117802   0.168   1.701   3.646
 5932TIP3    H217803   0.216   1.573   3.581
 5933TIP3   OH217804   2.740   0.864   4.989
 5933TIP3    H117805   2.658   0.903   4.961
 5933TIP3    H217806   2.802   0.937   4.991
 5934TIP3   OH217807   4.060   5.698   4.217
 5934TIP3    H117808   4.003   5.639   4.267
 5934TIP3    H217809   4.062   5.778   4.269
 5935TIP3   OH217810   4.472   5.920   5.011
 5935TIP3    H117811   4.395   5.941   5.064
 5935TIP3    H217812   4.511   6.005   4.991
 5936TIP3   OH217813   3.737   2.592   4.167
 5936TIP3    H117814   3.776   2.648   4.100
 5936TIP3    H217815   3.812   2.550   4.210
 5937TIP3   OH217816   3.464   5.583   4.997
 5937TIP3    H117817   3.431   5.657   5.048
 5937TIP3    H217818   3.394   5.565   4.934
 5938TIP3   OH217819   3.277   5.465   1.385
 5938TIP3    H117820   3.206   5.420   1.337
 5938TIP3    H217821   3.240   5.480   1.472
 5939TIP3   OH217822   1.558   5.956   0.179
 5939TIP3    H117823   1.629   5.925   0.122
 5939TIP3    H217824   1.485   5.971   0.120
 5940TIP3   OH217825   5.681   4.335   3.846
 5940TIP3    H117826   5.647   4.362   3.761
 5940TIP3    H217827   5.747   4.400   3.868
 5941TIP3   OH217828   2.042   5.018   3.847
 5941TIP3    H117829   1.977   5.022   3.917
 5941TIP3    H217830   2.092   5.099   3.856
 5942TIP3   OH217831   0.793   5.608   1.769
 5942TIP3    H117832   0.811   5.586   1.678
 5942TIP3    H217833   0.737   5.686   1.764
 5943TIP3   OH217834   0.577   0.589   2.917
 5943TIP3    H117835   0.534   0.656   2.970
 5943TIP3    H217836   0.642   0.551   2.975
 5944TIP3   OH217837   3.770   3.477   1.818
 5944TIP3    H117838   3.857   3.506   1.842
 5944TIP3    H217839   3.749   3.409   1.883
 5945TIP3   OH217840   3.232   2.335   2.498
 5945TIP3    H117841   3.209   2.289   2.417
 5945TIP3    H217842   3.318   2.302   2.521
 5946TIP3   OH217843   3.022   0.073   2.322
 5946TIP3    H117844   2.986  -0.001   2.370
 5946TIP3    H217845   3.108   0.043   2.291
 5947TIP3   OH217846   4.537   4.224   0.608
 5947TIP3    H117847   4.585   4.150   0.572
 5947TIP3    H217848   4.447   4.212   0.575
 5948TIP3   OH217849   2.847   1.106   0.510
 5948TIP3    H117850   2.757   1.139   0.504
 5948TIP3    H217851   2.844   1.046   0.585
 5949TIP3   OH217852   4.038   1.845   3.598
 5949TIP3    H117853   3.960   1.896   3.577
 5949TIP3    H217854   4.111   1.907   3.590
 5950TIP3   OH217855   4.032   3.985   2.854
 5950TIP3    H117856   4.002   3.997   2.945
 5950TIP3    H217857   3.974   3.918   2.819
 5951TIP3   OH217858   0.734   4.030   0.013
 5951TIP3    H117859   0.793   4.022  -0.063
 5951TIP3    H217860   0.771   3.970   0.078
 5952TIP3   OH217861   1.195   2.130   4.752
 5952TIP3    H117862   1.184   2.177   4.669
 5952TIP3    H217863   1.245   2.052   4.728
 5953TIP3   OH217864   1.832   3.465   3.144
 5953TIP3    H117865   1.744   3.494   3.167
 5953TIP3    H217866   1.845   3.384   3.195
 5954TIP3   OH217867  -0.025   3.439   1.202
 5954TIP3    H117868   0.067   3.457   1.221
 5954TIP3    H217869  -0.069   3.523   1.216
 5955TIP3   OH217870   4.695   0.865   0.391
 5955TIP3    H117871   4.779   0.830   0.361
 5955TIP3    H217872   4.709   0.889   0.482
 5956TIP3   OH217873   0.182   5.233   0.225
 5956TIP3    H117874   0.238   5.163   0.259
 5956TIP3    H217875   0.107   5.235   0.285
 5957TIP3   OH217876   4.775   4.838   1.052
 5957TIP3    H117877   4.726   4.868   0.976
 5957TIP3    H217878   4.841   4.779   1.015
 5958TIP3   OH217879   5.122   0.713   3.670
 5958TIP3    H117880   5.093   0.628   3.701
 5958TIP3    H217881   5.175   0.694   3.592
 5959TIP3   OH217882   1.139   1.762   5.061
 5959TIP3    H117883   1.144   1.857   5.050
 5959TIP3    H217884   1.226   1.738   5.095
 5960TIP3   OH217885   5.396   2.948   4.886
 5960TIP3    H117886   5.464   2.889   4.921
 5960TIP3    H217887   5.316   2.923   4.933
 5961TIP3   OH217888   5.392   1.407   4.412
 5961TIP3    H117889   5.439   1.364   4.341
 5961TIP3    H217890   5.346   1.480   4.369
 5962TIP3   OH217891   0.377   5.760   3.600
 5962TIP3    H117892   0.301   5.754   3.543
 5962TIP3    H217893   0.452   5.757   3.541
 5963TIP3   OH217894   4.787   1.680   1.624
 5963TIP3    H117895   4.876   1.662   1.592
 5963TIP3    H217896   4.748   1.735   1.555
 5964TIP3   OH217897   3.468   5.901   4.094
 5964TIP3    H117898   3.464   5.808   4.076
 5964TIP3    H217899   3.507   5.907   4.181
 5965TIP3   OH217900   4.375   0.360   1.746
 5965TIP3    H117901   4.318   0.400   1.680
 5965TIP3    H217902   4.314   0.327   1.813
 5966TIP3   OH217903   3.647   1.846   4.745
 5966TIP3    H117904   3.625   1.802   4.663
 5966TIP3    H217905   3.713   1.790   4.786
 5967TIP3   OH217906   5.384   1.582   0.818
 5967TIP3    H117907   5.460   1.618   0.863
 5967TIP3    H217908   5.309   1.624   0.859
 5968TIP3   OH217909   3.092   2.748   3.478
 5968TIP3    H117910   3.168   2.801   3.499
 5968TIP3    H217911   3.017   2.801   3.505
 5969TIP3   OH217912   5.302   4.200   4.273
 5969TIP3    H117913   5.260   4.254   4.341
 5969TIP3    H217914   5.390   4.237   4.266
 5970TIP3   OH217915   5.149   5.128   3.993
 5970TIP3    H117916   5.190   5.062   4.049
 5970TIP3    H217917   5.056   5.123   4.013
 5971TIP3   OH217918   5.638   0.787   3.720
 5971TIP3    H117919   5.603   0.705   3.756
 5971TIP3    H217920   5.671   0.762   3.634
 5972TIP3   OH217921   0.964   0.555   2.644
 5972TIP3    H117922   0.990   0.614   2.715
 5972TIP3    H217923   1.006   0.591   2.566
 5973TIP3   OH217924   5.467   1.778   0.527
 5973TIP3    H117925   5.400   1.730   0.479
 5973TIP3    H217926   5.516   1.825   0.460
 5974TIP3   OH217927   2.014   5.285   4.328
 5974TIP3    H117928   2.035   5.362   4.380
 5974TIP3    H217929   1.925   5.261   4.355
 5975TIP3   OH217930   0.825   2.732   1.061
 5975TIP3    H117931   0.758   2.763   1.001
 5975TIP3    H217932   0.791   2.649   1.094
 5976TIP3   OH217933   3.239   5.404   2.741
 5976TIP3    H117934   3.199   5.380   2.657
 5976TIP3    H217935   3.170   5.390   2.805
 5977TIP3   OH217936   3.697   1.552   0.147
 5977TIP3    H117937   3.773   1.553   0.089
 5977TIP3    H217938   3.729   1.511   0.228
 5978TIP3   OH217939   2.975   2.213   3.724
 5978TIP3    H117940   3.007   2.140   3.777
 5978TIP3    H217941   2.885   2.225   3.753
 5979TIP3   OH217942   3.256   5.331   5.217
 5979TIP3    H117943   3.285   5.310   5.129
 5979TIP3    H217944   3.160   5.328   5.213
 5980TIP3   OH217945   4.477   0.240   4.473
 5980TIP3    H117946   4.427   0.175   4.523
 5980TIP3    H217947   4.463   0.322   4.521
 5981TIP3   OH217948   1.298   3.627   1.544
 5981TIP3    H117949   1.254   3.684   1.606
 5981TIP3    H217950   1.285   3.668   1.459
 5982TIP3   OH217951   5.533   2.331   5.066
 5982TIP3    H117952   5.494   2.410   5.104
 5982TIP3    H217953   5.480   2.259   5.100
 5983TIP3   OH217954   4.707   5.190   0.431
 5983TIP3    H117955   4.709   5.215   0.339
 5983TIP3    H217956   4.738   5.268   0.478
 5984TIP3   OH217957   3.675   0.756   1.800
 5984TIP3    H117958   3.669   0.826   1.864
 5984TIP3    H217959   3.609   0.778   1.734
 5985TIP3   OH217960   5.818   4.977   3.915
 5985TIP3    H117961   5.902   4.965   3.872
 5985TIP3    H217962   5.774   4.892   3.908
 5986TIP3   OH217963   5.647   5.689   0.933
 5986TIP3    H117964   5.693   5.641   1.002
 5986TIP3    H217965   5.581   5.628   0.901
 5987TIP3   OH217966   1.725   2.264   3.728
 5987TIP3    H117967   1.779   2.321   3.674
 5987TIP3    H217968   1.664   2.323   3.771
 5988TIP3   OH217969   5.260   3.816   2.362
 5988TIP3    H117970   5.268   3.725   2.333
 5988TIP3    H217971   5.175   3.844   2.329
 5989TIP3   OH217972   2.635   2.748   4.995
 5989TIP3    H117973   2.662   2.792   4.914
 5989TIP3    H217974   2.588   2.815   5.044
 5990TIP3   OH217975   5.086   0.580   1.532
 5990TIP3    H117976   5.112   0.557   1.443
 5990TIP3    H217977   5.168   0.585   1.581
 5991TIP3   OH217978   3.472   0.396   1.482
 5991TIP3    H117979   3.530   0.427   1.551
 5991TIP3    H217980   3.438   0.313   1.515
 5992TIP3   OH217981   1.165   3.351   1.792
 5992TIP3    H117982   1.233   3.418   1.777
 5992TIP3    H217983   1.175   3.327   1.884
 5993TIP3   OH217984   4.317   1.965   4.427
 5993TIP3    H117985   4.371   1.914   4.487
 5993TIP3    H217986   4.341   1.933   4.340
 5994TIP3   OH217987   6.150   0.930   4.235
 5994TIP3    H117988   6.156   1.025   4.245
 5994TIP3    H217989   6.202   0.911   4.157
 5995TIP3   OH217990   4.909   4.316   4.164
 5995TIP3    H117991   4.969   4.386   4.191
 5995TIP3    H217992   4.949   4.279   4.086
 5996TIP3   OH217993   1.774   3.901   1.846
 5996TIP3    H117994   1.684   3.900   1.814
 5996TIP3    H217995   1.827   3.915   1.768
 5997TIP3   OH217996   5.908   1.495   3.047
 5997TIP3    H117997   5.999   1.519   3.066
 5997TIP3    H217998   5.902   1.402   3.068
 5998TIP3   OH217999   0.567   3.301   1.234
 5998TIP3    H118000   0.578   3.230   1.296
 5998TIP3    H218001   0.633   3.366   1.260
 5999TIP3   OH218002   2.032   4.720   1.512
 5999TIP3    H118003   2.128   4.716   1.509
 5999TIP3    H218004   2.013   4.768   1.593
 6000TIP3   OH218005   1.021   0.033   2.183
 6000TIP3    H118006   1.101   0.083   2.197
 6000TIP3    H218007   1.043  -0.031   2.116
 6001TIP3   OH218008   5.176   4.569   2.527
 6001TIP3    H118009   5.178   4.559   2.622
 6001TIP3    H218010   5.260   4.611   2.506
 6002TIP3   OH218011   2.743   1.670   3.051
 6002TIP3    H118012   2.708   1.607   2.988
 6002TIP3    H218013   2.690   1.749   3.037
 6003TIP3   OH218014   2.537   3.588   3.403
 6003TIP3    H118015   2.536   3.665   3.345
 6003TIP3    H218016   2.484   3.615   3.478
 6004TIP3   OH218017   1.566   2.123   2.182
 6004TIP3    H118018   1.514   2.185   2.130
 6004TIP3    H218019   1.503   2.058   2.213
 6005TIP3   OH218020   3.572   0.777   3.923
 6005TIP3    H118021   3.552   0.868   3.948
 6005TIP3    H218022   3.639   0.785   3.856
 6006TIP3   OH218023   2.166   1.157   1.364
 6006TIP3    H118024   2.088   1.119   1.402
 6006TIP3    H218025   2.156   1.144   1.270
 6007TIP3   OH218026   4.046   5.424   2.729
 6007TIP3    H118027   3.964   5.423   2.679
 6007TIP3    H218028   4.047   5.339   2.774
 6008TIP3   OH218029   2.549   2.385   4.810
 6008TIP3    H118030   2.540   2.461   4.753
 6008TIP3    H218031   2.548   2.421   4.898
 6009TIP3   OH218032   3.233   0.471   2.867
 6009TIP3    H118033   3.269   0.450   2.953
 6009TIP3    H218034   3.280   0.549   2.840
 6010TIP3   OH218035   5.941   2.115   0.748
 6010TIP3    H118036   5.961   2.025   0.775
 6010TIP3    H218037   5.853   2.132   0.783
 6011TIP3   OH218038   2.613   1.915   4.066
 6011TIP3    H118039   2.525   1.943   4.042
 6011TIP3    H218040   2.630   1.959   4.150
 6012TIP3   OH218041   6.121   0.271   1.581
 6012TIP3    H118042   6.216   0.262   1.586
 6012TIP3    H218043   6.107   0.353   1.533
 6013TIP3   OH218044   2.140   4.731   3.150
 6013TIP3    H118045   2.167   4.669   3.217
 6013TIP3    H218046   2.081   4.682   3.093
 6014TIP3   OH218047   3.638   4.036   1.315
 6014TIP3    H118048   3.618   3.991   1.398
 6014TIP3    H218049   3.670   3.966   1.258
 6015TIP3   OH218050   4.287   3.922   5.004
 6015TIP3    H118051   4.347   3.980   4.955
 6015TIP3    H218052   4.312   3.834   4.976
 6016TIP3   OH218053   0.090   4.504   3.366
 6016TIP3    H118054   0.057   4.587   3.331
 6016TIP3    H218055   0.151   4.473   3.299
 6017TIP3   OH218056   5.232   4.826   2.811
 6017TIP3    H118057   5.152   4.828   2.758
 6017TIP3    H218058   5.201   4.820   2.901
 6018TIP3   OH218059   0.795   5.827   3.375
 6018TIP3    H118060   0.886   5.822   3.405
 6018TIP3    H218061   0.800   5.872   3.291
 6019TIP3   OH218062   1.785   2.627   2.087
 6019TIP3    H118063   1.782   2.533   2.066
 6019TIP3    H218064   1.716   2.666   2.033
 6020TIP3   OH218065   4.778   5.513   1.971
 6020TIP3    H118066   4.798   5.545   2.059
 6020TIP3    H218067   4.728   5.433   1.986
 6021TIP3   OH218068   2.522   5.386   5.076
 6021TIP3    H118069   2.503   5.480   5.071
 6021TIP3    H218070   2.552   5.372   5.166
 6022TIP3   OH218071   5.951   4.612   4.762
 6022TIP3    H118072   5.928   4.704   4.779
 6022TIP3    H218073   5.870   4.573   4.728
 6023TIP3   OH218074   3.424   1.646   4.265
 6023TIP3    H118075   3.463   1.587   4.200
 6023TIP3    H218076   3.467   1.624   4.347
 6024TIP3   OH218077   0.878   1.140   0.167
 6024TIP3    H118078   0.887   1.206   0.097
 6024TIP3    H218079   0.960   1.091   0.164
 6025TIP3   OH218080   3.787   2.184   2.328
 6025TIP3    H118081   3.718   2.233   2.374
 6025TIP3    H218082   3.813   2.241   2.256
 6026TIP3   OH218083   4.844   3.613   2.656
 6026TIP3    H118084   4.823   3.635   2.565
 6026TIP3    H218085   4.858   3.698   2.699
 6027TIP3   OH218086   0.266   1.859   2.136
 6027TIP3    H118087   0.250   1.864   2.230
 6027TIP3    H218088   0.256   1.949   2.105
 6028TIP3   OH218089   2.045   2.239   4.020
 6028TIP3    H118090   2.064   2.270   3.932
 6028TIP3    H218091   2.132   2.232   4.061
 6029TIP3   OH218092   5.828   5.676   3.111
 6029TIP3    H118093   5.913   5.669   3.153
 6029TIP3    H218094   5.847   5.706   3.022
 6030TIP3   OH218095   2.103   5.532   4.735
 6030TIP3    H118096   2.116   5.450   4.782
 6030TIP3    H218097   2.133   5.600   4.795
 6031TIP3   OH218098   2.281   1.085   3.426
 6031TIP3    H118099   2.210   1.049   3.479
 6031TIP3    H218100   2.360   1.039   3.457
 6032TIP3   OH218101   1.340   3.951   0.624
 6032TIP3    H118102   1.300   3.868   0.650
 6032TIP3    H218103   1.288   4.018   0.667
 6033TIP3   OH218104   6.201   1.479   1.021
 6033TIP3    H118105   6.178   1.441   0.936
 6033TIP3    H218106   6.261   1.550   1.000
 6034TIP3   OH218107   1.560   3.107   0.201
 6034TIP3    H118108   1.567   3.016   0.174
 6034TIP3    H218109   1.535   3.102   0.294
 6035TIP3   OH218110   5.057   3.699   1.505
 6035TIP3    H118111   5.104   3.636   1.559
 6035TIP3    H218112   4.984   3.728   1.559
 6036TIP3   OH218113   4.330   1.193   3.474
 6036TIP3    H118114   4.307   1.103   3.452
 6036TIP3    H218115   4.309   1.243   3.396
 6037TIP3   OH218116   3.455   1.239   2.999
 6037TIP3    H118117   3.401   1.162   2.985
 6037TIP3    H218118   3.398   1.313   2.979
 6038TIP3   OH218119   4.598   1.865   2.619
 6038TIP3    H118120   4.682   1.821   2.603
 6038TIP3    H218121   4.559   1.816   2.692
 6039TIP3   OH218122   2.987   1.443   1.317
 6039TIP3    H118123   2.907   1.420   1.271
 6039TIP3    H218124   3.012   1.364   1.365
 6040TIP3   OH218125   3.833   3.033   0.597
 6040TIP3    H118126   3.761   3.072   0.646
 6040TIP3    H218127   3.902   3.100   0.600
 6041TIP3   OH218128   5.368   1.344   0.688
 6041TIP3    H118129   5.369   1.433   0.724
 6041TIP3    H218130   5.314   1.294   0.749
 6042TIP3   OH218131   2.189   5.427   3.201
 6042TIP3    H118132   2.212   5.519   3.192
 6042TIP3    H218133   2.140   5.422   3.283
 6043TIP3   OH218134   2.345   1.804   3.697
 6043TIP3    H118135   2.335   1.751   3.618
 6043TIP3    H218136   2.321   1.892   3.671
 6044TIP3   OH218137   6.060   2.969   3.089
 6044TIP3    H118138   6.138   2.928   3.053
 6044TIP3    H218139   6.057   2.940   3.180
 6045TIP3   OH218140   3.556   5.867   2.728
 6045TIP3    H118141   3.503   5.879   2.649
 6045TIP3    H218142   3.494   5.833   2.793
 6046TIP3   OH218143   3.495   4.237   1.876
 6046TIP3    H118144   3.492   4.327   1.841
 6046TIP3    H218145   3.521   4.248   1.967
 6047TIP3   OH218146   0.524   0.430   3.698
 6047TIP3    H118147   0.547   0.432   3.605
 6047TIP3    H218148   0.489   0.342   3.712
 6048TIP3   OH218149   1.812   4.292   4.760
 6048TIP3    H118150   1.769   4.312   4.843
 6048TIP3    H218151   1.905   4.280   4.783
 6049TIP3   OH218152   5.705   0.707   0.297
 6049TIP3    H118153   5.632   0.688   0.239
 6049TIP3    H218154   5.680   0.788   0.342
 6050TIP3   OH218155   1.518   2.439   1.470
 6050TIP3    H118156   1.587   2.455   1.406
 6050TIP3    H218157   1.514   2.344   1.478
 6051TIP3   OH218158   5.710   0.245   5.142
 6051TIP3    H118159   5.733   0.207   5.226
 6051TIP3    H218160   5.668   0.174   5.094
 6052TIP3   OH218161   4.788   4.452   3.905
 6052TIP3    H118162   4.730   4.376   3.907
 6052TIP3    H218163   4.875   4.415   3.889
 6053TIP3   OH218164   5.971   1.114   1.448
 6053TIP3    H118165   6.012   1.200   1.451
 6053TIP3    H218166   5.958   1.090   1.539
 6054TIP3   OH218167   5.484   3.473   3.267
 6054TIP3    H118168   5.563   3.428   3.236
 6054TIP3    H218169   5.516   3.554   3.306
 6055TIP3   OH218170   0.068   0.566   2.794
 6055TIP3    H118171   0.048   0.571   2.701
 6055TIP3    H218172   0.113   0.648   2.813
 6056TIP3   OH218173   1.195   3.231   4.036
 6056TIP3    H118174   1.184   3.164   4.104
 6056TIP3    H218175   1.281   3.212   3.999
 6057TIP3   OH218176   3.964   0.401   4.692
 6057TIP3    H118177   3.879   0.381   4.653
 6057TIP3    H218178   4.027   0.391   4.621
 6058TIP3   OH218179   5.964   5.465   1.808
 6058TIP3    H118180   5.971   5.446   1.901
 6058TIP3    H218181   5.943   5.558   1.804
 6059TIP3   OH218182   3.612   4.591   1.086
 6059TIP3    H118183   3.675   4.659   1.108
 6059TIP3    H218184   3.645   4.513   1.131
 6060TIP3   OH218185   1.724   3.368   0.914
 6060TIP3    H118186   1.711   3.295   0.854
 6060TIP3    H218187   1.767   3.435   0.861
 6061TIP3   OH218188   4.412   4.533   3.907
 6061TIP3    H118189   4.339   4.494   3.955
 6061TIP3    H218190   4.466   4.573   3.975
 6062TIP3   OH218191   3.051   2.341   1.582
 6062TIP3    H118192   3.077   2.409   1.519
 6062TIP3    H218193   3.079   2.376   1.667
 6063TIP3   OH218194   5.171   4.076   1.495
 6063TIP3    H118195   5.086   4.077   1.451
 6063TIP3    H218196   5.219   4.005   1.452
 6064TIP3   OH218197   5.941   3.449   2.993
 6064TIP3    H118198   5.987   3.366   2.981
 6064TIP3    H218199   5.851   3.424   3.012
 6065TIP3   OH218200   5.348   3.544   2.301
 6065TIP3    H118201   5.401   3.487   2.357
 6065TIP3    H218202   5.372   3.520   2.212
 6066TIP3   OH218203   0.261   4.251   0.377
 6066TIP3    H118204   0.268   4.259   0.281
 6066TIP3    H218205   0.342   4.206   0.403
 6067TIP3   OH218206   0.737   1.651   3.611
 6067TIP3    H118207   0.733   1.695   3.526
 6067TIP3    H218208   0.722   1.721   3.675
 6068TIP3   OH218209   1.686   0.469   1.597
 6068TIP3    H118210   1.618   0.441   1.660
 6068TIP3    H218211   1.732   0.540   1.642
 6069TIP3   OH218212   0.841   4.575   0.296
 6069TIP3    H118213   0.836   4.489   0.256
 6069TIP3    H218214   0.835   4.636   0.223
 6070TIP3   OH218215   1.579   5.582   4.225
 6070TIP3    H118216   1.663   5.610   4.190
 6070TIP3    H218217   1.536   5.663   4.252
 6071TIP3   OH218218   5.661   0.294   2.172
 6071TIP3    H118219   5.608   0.324   2.246
 6071TIP3    H218220   5.665   0.199   2.182
 6072TIP3   OH218221   2.793   5.919   4.246
 6072TIP3    H118222   2.827   5.830   4.253
 6072TIP3    H218223   2.753   5.936   4.332
 6073TIP3   OH218224   5.781   5.477   4.896
 6073TIP3    H118225   5.817   5.453   4.810
 6073TIP3    H218226   5.722   5.405   4.918
 6074TIP3   OH218227   0.112   2.666   0.301
 6074TIP3    H118228   0.202   2.697   0.287
 6074TIP3    H218229   0.096   2.606   0.228
 6075TIP3   OH218230   6.320   5.693   5.026
 6075TIP3    H118231   6.244   5.653   5.069
 6075TIP3    H218232   6.354   5.623   4.970
 6076TIP3   OH218233   1.756   2.412   1.872
 6076TIP3    H118234   1.763   2.474   1.799
 6076TIP3    H218235   1.663   2.392   1.877
 6077TIP3   OH218236   4.901   0.209   2.318
 6077TIP3    H118237   4.809   0.224   2.293
 6077TIP3    H218238   4.933   0.296   2.344
 6078TIP3   OH218239   1.643   1.804   0.118
 6078TIP3    H118240   1.559   1.796   0.074
 6078TIP3    H218241   1.644   1.732   0.181
 6079TIP3   OH218242   2.373   3.611   0.224
 6079TIP3    H118243   2.411   3.692   0.257
 6079TIP3    H218244   2.415   3.598   0.138
 6080TIP3   OH218245   5.450   5.510   2.590
 6080TIP3    H118246   5.448   5.431   2.644
 6080TIP3    H218247   5.500   5.486   2.513
 6081TIP3   OH218248   3.892   4.386   4.012
 6081TIP3    H118249   3.969   4.331   3.997
 6081TIP3    H218250   3.913   4.470   3.971
 6082TIP3   OH218251   4.401   4.328   0.860
 6082TIP3    H118252   4.482   4.304   0.905
 6082TIP3    H218253   4.418   4.310   0.768
 6083TIP3   OH218254   5.935   3.623   1.339
 6083TIP3    H118255   6.015   3.672   1.321
 6083TIP3    H218256   5.960   3.531   1.328
 6084TIP3   OH218257   4.802   5.310   5.040
 6084TIP3    H118258   4.861   5.244   5.005
 6084TIP3    H218259   4.719   5.265   5.051
 6085TIP3   OH218260   0.494   4.865   1.700
 6085TIP3    H118261   0.461   4.915   1.626
 6085TIP3    H218262   0.521   4.931   1.764
 6086TIP3   OH218263   0.058   2.800   2.977
 6086TIP3    H118264   0.042   2.737   3.048
 6086TIP3    H218265  -0.015   2.787   2.917
 6087TIP3   OH218266   4.016   0.562   0.779
 6087TIP3    H118267   4.097   0.514   0.797
 6087TIP3    H218268   3.957   0.536   0.850
 6088TIP3   OH218269   2.002   3.888   2.915
 6088TIP3    H118270   1.962   3.895   2.829
 6088TIP3    H218271   2.030   3.977   2.936
 6089TIP3   OH218272   4.424   0.896   2.333
 6089TIP3    H118273   4.408   0.969   2.274
 6089TIP3    H218274   4.341   0.848   2.335
 6090TIP3   OH218275   0.642   2.786   4.837
 6090TIP3    H118276   0.676   2.784   4.926
 6090TIP3    H218277   0.632   2.879   4.816
 6091TIP3   OH218278  -0.009   1.271   4.065
 6091TIP3    H118279   0.062   1.267   4.130
 6091TIP3    H218280   0.035   1.252   3.982
 6092TIP3   OH218281   6.272   0.926   2.971
 6092TIP3    H118282   6.342   0.876   3.014
 6092TIP3    H218283   6.314   1.009   2.947
 6093TIP3   OH218284   5.925   2.621   3.167
 6093TIP3    H118285   5.845   2.638   3.117
 6093TIP3    H218286   5.905   2.654   3.255
 6094TIP3   OH218287   4.223   2.573   5.006
 6094TIP3    H118288   4.283   2.574   5.080
 6094TIP3    H218289   4.270   2.617   4.936
 6095TIP3   OH218290   0.290   4.050   1.209
 6095TIP3    H118291   0.326   4.009   1.287
 6095TIP3    H218292   0.199   4.020   1.205
 6096TIP3   OH218293   0.316   5.536   2.726
 6096TIP3    H118294   0.267   5.550   2.807
 6096TIP3    H218295   0.350   5.622   2.703
 6097TIP3   OH218296   2.629   5.486   3.794
 6097TIP3    H118297   2.630   5.575   3.829
 6097TIP3    H218298   2.716   5.474   3.756
 6098TIP3   OH218299   5.915   3.083   2.722
 6098TIP3    H118300   6.002   3.063   2.689
 6098TIP3    H218301   5.877   2.998   2.745
 6099TIP3   OH218302   4.599   5.745   3.913
 6099TIP3    H118303   4.609   5.700   3.829
 6099TIP3    H218304   4.573   5.677   3.974
 6100TIP3   OH218305   3.183   5.231   2.438
 6100TIP3    H118306   3.235   5.277   2.372
 6100TIP3    H218307   3.112   5.191   2.388
 6101TIP3   OH218308   1.401   1.916   3.054
 6101TIP3    H118309   1.382   1.824   3.036
 6101TIP3    H218310   1.319   1.962   3.033
 6102TIP3   OH218311   4.241   4.732   3.689
 6102TIP3    H118312   4.174   4.718   3.622
 6102TIP3    H218313   4.228   4.823   3.716
 6103TIP3   OH218314   1.798   4.928   2.223
 6103TIP3    H118315   1.795   5.012   2.269
 6103TIP3    H218316   1.889   4.900   2.230
 6104TIP3   OH218317   2.077   4.157   2.202
 6104TIP3    H118318   2.024   4.101   2.145
 6104TIP3    H218319   2.150   4.185   2.148
 6105TIP3   OH218320   5.803   5.005   5.110
 6105TIP3    H118321   5.745   4.999   5.186
 6105TIP3    H218322   5.838   5.094   5.114
 6106TIP3   OH218323   2.344   1.328   1.147
 6106TIP3    H118324   2.319   1.369   1.230
 6106TIP3    H218325   2.264   1.286   1.115
 6107TIP3   OH218326   1.386   5.931   2.898
 6107TIP3    H118327   1.477   5.932   2.869
 6107TIP3    H218328   1.366   5.839   2.911
 6108TIP3   OH218329   4.013   5.705   2.879
 6108TIP3    H118330   4.053   5.621   2.853
 6108TIP3    H218331   3.943   5.680   2.939
 6109TIP3   OH218332   5.583   0.914   0.435
 6109TIP3    H118333   5.539   0.889   0.516
 6109TIP3    H218334   5.643   0.984   0.462
 6110TIP3   OH218335   5.518   1.427   3.363
 6110TIP3    H118336   5.462   1.504   3.377
 6110TIP3    H218337   5.474   1.379   3.292
 6111TIP3   OH218338   5.409   3.082   4.242
 6111TIP3    H118339   5.498   3.095   4.208
 6111TIP3    H218340   5.417   3.004   4.298
 6112TIP3   OH218341   5.127   2.658   3.838
 6112TIP3    H118342   5.084   2.585   3.795
 6112TIP3    H218343   5.194   2.687   3.776
 6113TIP3   OH218344   3.300   3.438   0.177
 6113TIP3    H118345   3.266   3.514   0.129
 6113TIP3    H218346   3.275   3.363   0.124
 6114TIP3   OH218347   1.519   4.065   4.871
 6114TIP3    H118348   1.598   4.013   4.855
 6114TIP3    H218349   1.552   4.147   4.908
 6115TIP3   OH218350   4.995   1.203   4.768
 6115TIP3    H118351   4.969   1.201   4.860
 6115TIP3    H218352   4.986   1.113   4.738
 6116TIP3   OH218353   4.608   3.247   0.063
 6116TIP3    H118354   4.579   3.242  -0.029
 6116TIP3    H218355   4.682   3.308   0.061
 6117TIP3   OH218356   2.583   4.401   3.824
 6117TIP3    H118357   2.579   4.327   3.885
 6117TIP3    H218358   2.500   4.396   3.775
 6118TIP3   OH218359   3.441   3.823   4.859
 6118TIP3    H118360   3.438   3.778   4.774
 6118TIP3    H218361   3.352   3.813   4.894
 6119TIP3   OH218362   3.605   2.841   1.509
 6119TIP3    H118363   3.622   2.823   1.602
 6119TIP3    H218364   3.690   2.870   1.475
 6120TIP3   OH218365  -0.064   3.200   2.457
 6120TIP3    H118366   0.004   3.137   2.434
 6120TIP3    H218367  -0.068   3.259   2.382
 6121TIP3   OH218368   2.885   0.813   3.237
 6121TIP3    H118369   2.968   0.798   3.283
 6121TIP3    H218370   2.831   0.738   3.260
 6122TIP3   OH218371   2.403   3.216   0.850
 6122TIP3    H118372   2.427   3.268   0.928
 6122TIP3    H218373   2.461   3.248   0.781
 6123TIP3   OH218374   2.882   3.725   4.376
 6123TIP3    H118375   2.836   3.650   4.411
 6123TIP3    H218376   2.903   3.701   4.286
 6124TIP3   OH218377   3.012   3.688   2.909
 6124TIP3    H118378   3.097   3.725   2.934
 6124TIP3    H218379   2.964   3.680   2.991
 6125TIP3   OH218380   3.775   4.506   4.247
 6125TIP3    H118381   3.810   4.454   4.175
 6125TIP3    H218382   3.700   4.456   4.279
 6126TIP3   OH218383   2.534   0.490   0.526
 6126TIP3    H118384   2.439   0.476   0.518
 6126TIP3    H218385   2.542   0.582   0.551
 6127TIP3   OH218386   4.600   5.341   3.512
 6127TIP3    H118387   4.686   5.301   3.502
 6127TIP3    H218388   4.539   5.275   3.478
 6128TIP3   OH218389   4.021   3.571   1.590
 6128TIP3    H118390   4.026   3.620   1.673
 6128TIP3    H218391   4.107   3.532   1.580
 6129TIP3   OH218392   4.966   4.972   0.842
 6129TIP3    H118393   4.888   4.958   0.787
 6129TIP3    H218394   4.978   5.067   0.842
 6130TIP3   OH218395   2.390   4.291   0.262
 6130TIP3    H118396   2.477   4.315   0.291
 6130TIP3    H218397   2.360   4.226   0.325
 6131TIP3   OH218398   3.926   0.683   3.903
 6131TIP3    H118399   3.967   0.697   3.988
 6131TIP3    H218400   3.912   0.588   3.898
 6132TIP3   OH218401   3.559   0.870   2.142
 6132TIP3    H118402   3.550   0.778   2.116
 6132TIP3    H218403   3.470   0.904   2.139
 6133TIP3   OH218404   3.075   4.940   2.630
 6133TIP3    H118405   3.000   4.978   2.675
 6133TIP3    H218406   3.061   4.960   2.538
 6134TIP3   OH218407   3.886   3.244   5.158
 6134TIP3    H118408   3.816   3.218   5.218
 6134TIP3    H218409   3.863   3.333   5.130
 6135TIP3   OH218410   1.212   5.702   1.643
 6135TIP3    H118411   1.154   5.777   1.655
 6135TIP3    H218412   1.177   5.635   1.703
 6136TIP3   OH218413   3.768   4.567   2.267
 6136TIP3    H118414   3.828   4.579   2.194
 6136TIP3    H218415   3.711   4.495   2.241
 6137TIP3   OH218416   4.501   5.388   0.708
 6137TIP3    H118417   4.530   5.304   0.746
 6137TIP3    H218418   4.494   5.447   0.784
 6138TIP3   OH218419   6.230   0.629   3.298
 6138TIP3    H118420   6.293   0.699   3.286
 6138TIP3    H218421   6.247   0.568   3.226
 6139TIP3   OH218422   4.137   5.496   1.984
 6139TIP3    H118423   4.220   5.450   1.979
 6139TIP3    H218424   4.145   5.551   2.062
 6140TIP3   OH218425   3.869   5.534   3.576
 6140TIP3    H118426   3.870   5.478   3.654
 6140TIP3    H218427   3.776   5.548   3.558
 6141TIP3   OH218428   5.313   0.196   2.219
 6141TIP3    H118429   5.288   0.153   2.138
 6141TIP3    H218430   5.276   0.284   2.213
 6142TIP3   OH218431   3.757   2.394   2.734
 6142TIP3    H118432   3.717   2.391   2.821
 6142TIP3    H218433   3.848   2.369   2.749
 6143TIP3   OH218434   2.008   5.253   2.157
 6143TIP3    H118435   2.085   5.208   2.192
 6143TIP3    H218436   1.938   5.232   2.220
 6144TIP3   OH218437   0.652   0.361   5.009
 6144TIP3    H118438   0.629   0.397   4.924
 6144TIP3    H218439   0.655   0.437   5.067
 6145TIP3   OH218440   5.774   1.892   3.959
 6145TIP3    H118441   5.681   1.913   3.966
 6145TIP3    H218442   5.820   1.975   3.972
 6146TIP3   OH218443   3.697   5.942   1.945
 6146TIP3    H118444   3.691   5.907   1.856
 6146TIP3    H218445   3.644   5.882   1.997
 6147TIP3   OH218446   1.193   5.202   3.417
 6147TIP3    H118447   1.183   5.130   3.479
 6147TIP3    H218448   1.127   5.265   3.443
 6148TIP3   OH218449   0.750   0.645   0.516
 6148TIP3    H118450   0.833   0.621   0.556
 6148TIP3    H218451   0.757   0.616   0.425
 6149TIP3   OH218452   1.087   2.581   1.843
 6149TIP3    H118453   1.022   2.628   1.791
 6149TIP3    H218454   1.070   2.609   1.933
 6150TIP3   OH218455   0.136   0.667   3.417
 6150TIP3    H118456   0.098   0.597   3.470
 6150TIP3    H218457   0.209   0.699   3.469
 6151TIP3   OH218458   3.404   3.137   3.896
 6151TIP3    H118459   3.412   3.219   3.846
 6151TIP3    H218460   3.330   3.092   3.857
 6152TIP3   OH218461   2.312   0.270   0.012
 6152TIP3    H118462   2.329   0.249   0.103
 6152TIP3    H218463   2.224   0.237  -0.005
 6153TIP3   OH218464   4.029   2.309   2.752
 6153TIP3    H118465   4.068   2.287   2.837
 6153TIP3    H218466   4.061   2.397   2.732
 6154TIP3   OH218467   4.296   1.088   2.064
 6154TIP3    H118468   4.352   1.051   1.996
 6154TIP3    H218469   4.207   1.061   2.041
 6155TIP3   OH218470   1.934   2.452   1.116
 6155TIP3    H118471   2.017   2.406   1.123
 6155TIP3    H218472   1.958   2.544   1.103
 6156TIP3   OH218473   5.406   2.128   0.380
 6156TIP3    H118474   5.327   2.092   0.421
 6156TIP3    H218475   5.374   2.173   0.302
 6157TIP3   OH218476   3.087   5.078   3.917
 6157TIP3    H118477   3.124   5.098   4.003
 6157TIP3    H218478   2.997   5.110   3.923
 6158TIP3   OH218479   2.214   3.709   3.219
 6158TIP3    H118480   2.188   3.664   3.299
 6158TIP3    H218481   2.153   3.782   3.212
 6159TIP3   OH218482   5.922   2.419   1.589
 6159TIP3    H118483   5.998   2.390   1.639
 6159TIP3    H218484   5.876   2.479   1.648
 6160TIP3   OH218485   0.480   3.735   4.607
 6160TIP3    H118486   0.531   3.671   4.656
 6160TIP3    H218487   0.505   3.720   4.516
 6161TIP3   OH218488   2.869   1.966   4.558
 6161TIP3    H118489   2.821   1.883   4.551
 6161TIP3    H218490   2.935   1.962   4.489
 6162TIP3   OH218491   1.456   2.386   3.847
 6162TIP3    H118492   1.383   2.430   3.890
 6162TIP3    H218493   1.510   2.354   3.919
 6163TIP3   OH218494   4.132   3.337   2.660
 6163TIP3    H118495   4.105   3.391   2.585
 6163TIP3    H218496   4.206   3.385   2.698
 6164TIP3   OH218497   2.949   3.484   3.387
 6164TIP3    H118498   3.027   3.449   3.344
 6164TIP3    H218499   2.883   3.416   3.375
 6165TIP3   OH218500   5.147   0.623   4.023
 6165TIP3    H118501   5.090   0.669   4.085
 6165TIP3    H218502   5.195   0.560   4.077
 6166TIP3   OH218503   3.752   5.662   1.863
 6166TIP3    H118504   3.840   5.697   1.873
 6166TIP3    H218505   3.764   5.582   1.811
 6167TIP3   OH218506   5.844   3.120   1.428
 6167TIP3    H118507   5.903   3.068   1.482
 6167TIP3    H218508   5.846   3.078   1.342
 6168TIP3   OH218509   5.070   4.741   0.114
 6168TIP3    H118510   5.145   4.776   0.162
 6168TIP3    H218511   5.109   4.688   0.044
 6169TIP3   OH218512   2.014   4.142   1.012
 6169TIP3    H118513   2.055   4.224   1.039
 6169TIP3    H218514   2.059   4.119   0.931
 6170TIP3   OH218515   4.173   5.453   4.458
 6170TIP3    H118516   4.227   5.527   4.485
 6170TIP3    H218517   4.112   5.440   4.530
 6171TIP3   OH218518   4.676   4.478   4.920
 6171TIP3    H118519   4.702   4.392   4.887
 6171TIP3    H218520   4.586   4.465   4.950
 6172TIP3   OH218521   1.349   2.122   3.797
 6172TIP3    H118522   1.375   2.213   3.783
 6172TIP3    H218523   1.288   2.125   3.871
 6173TIP3   OH218524   4.560   5.592   4.146
 6173TIP3    H118525   4.570   5.663   4.210
 6173TIP3    H218526   4.486   5.541   4.178
 6174TIP3   OH218527   2.399   2.539   2.058
 6174TIP3    H118528   2.426   2.592   1.984
 6174TIP3    H218529   2.379   2.453   2.020
 6175TIP3   OH218530   1.113   1.920   0.716
 6175TIP3    H118531   1.185   1.870   0.754
 6175TIP3    H218532   1.089   1.983   0.784
 6176TIP3   OH218533   2.600   4.079   1.992
 6176TIP3    H118534   2.666   4.052   2.057
 6176TIP3    H218535   2.646   4.141   1.936
 6177TIP3   OH218536   0.115   5.777   1.331
 6177TIP3    H118537   0.085   5.824   1.254
 6177TIP3    H218538   0.191   5.727   1.301
 6178TIP3   OH218539   1.751   2.672   2.369
 6178TIP3    H118540   1.831   2.638   2.410
 6178TIP3    H218541   1.763   2.655   2.276
 6179TIP3   OH218542   3.534   2.993   4.252
 6179TIP3    H118543   3.621   3.033   4.253
 6179TIP3    H218544   3.497   3.013   4.339
 6180TIP3   OH218545   0.489   4.650   1.392
 6180TIP3    H118546   0.456   4.624   1.478
 6180TIP3    H218547   0.440   4.596   1.330
 6181TIP3   OH218548   4.081   0.807   2.799
 6181TIP3    H118549   4.121   0.781   2.882
 6181TIP3    H218550   3.996   0.842   2.824
 6182TIP3   OH218551   2.273   3.525   3.028
 6182TIP3    H118552   2.338   3.490   3.088
 6182TIP3    H218553   2.222   3.586   3.081
 6183TIP3   OH218554   5.053   2.750   4.079
 6183TIP3    H118555   5.086   2.725   3.993
 6183TIP3    H218556   5.038   2.844   4.073
 6184TIP3   OH218557   0.704   1.510   2.115
 6184TIP3    H118558   0.707   1.525   2.021
 6184TIP3    H218559   0.615   1.534   2.141
 6185TIP3   OH218560   1.757   2.987   2.623
 6185TIP3    H118561   1.787   3.047   2.555
 6185TIP3    H218562   1.737   3.044   2.698
 6186TIP3   OH218563   0.518   5.345   0.711
 6186TIP3    H118564   0.441   5.349   0.654
 6186TIP3    H218565   0.592   5.344   0.650
 6187TIP3   OH218566   5.813   1.714   4.158
 6187TIP3    H118567   5.734   1.666   4.184
 6187TIP3    H218568   5.785   1.771   4.087
 6188TIP3   OH218569   5.820   5.307   0.242
 6188TIP3    H118570   5.873   5.349   0.310
 6188TIP3    H218571   5.876   5.238   0.207
 6189TIP3   OH218572   5.592   3.036   2.061
 6189TIP3    H118573   5.636   3.115   2.095
 6189TIP3    H218574   5.509   3.033   2.108
 6190TIP3   OH218575   2.701   3.128   0.732
 6190TIP3    H118576   2.723   3.210   0.689
 6190TIP3    H218577   2.722   3.060   0.668
 6191TIP3   OH218578   0.057   2.124   2.427
 6191TIP3    H118579   0.142   2.149   2.462
 6191TIP3    H218580   0.014   2.207   2.406
 6192TIP3   OH218581   0.930   1.703   2.169
 6192TIP3    H118582   0.952   1.728   2.259
 6192TIP3    H218583   0.876   1.624   2.178
 6193TIP3   OH218584   6.129   5.802   3.114
 6193TIP3    H118585   6.110   5.733   3.050
 6193TIP3    H218586   6.215   5.780   3.149
 6194TIP3   OH218587   1.980   5.284   3.093
 6194TIP3    H118588   1.934   5.338   3.028
 6194TIP3    H218589   2.043   5.344   3.134
 6195TIP3   OH218590   2.398   3.076   3.016
 6195TIP3    H118591   2.321   3.098   3.068
 6195TIP3    H218592   2.447   3.014   3.070
 6196TIP3   OH218593   4.478   5.698   4.851
 6196TIP3    H118594   4.477   5.767   4.917
 6196TIP3    H218595   4.529   5.627   4.890
 6197TIP3   OH218596   2.403   5.550   2.637
 6197TIP3    H118597   2.313   5.555   2.672
 6197TIP3    H218598   2.434   5.641   2.640
 6198TIP3   OH218599   3.051   5.671   3.312
 6198TIP3    H118600   3.048   5.578   3.334
 6198TIP3    H218601   3.091   5.713   3.388
 6199TIP3   OH218602   2.565   2.117   2.233
 6199TIP3    H118603   2.536   2.068   2.310
 6199TIP3    H218604   2.558   2.054   2.161
 6200TIP3   OH218605   3.939   1.811   4.098
 6200TIP3    H118606   3.881   1.751   4.053
 6200TIP3    H218607   3.887   1.847   4.170
 6201TIP3   OH218608   0.370   0.541   2.674
 6201TIP3    H118609   0.335   0.487   2.603
 6201TIP3    H218610   0.294   0.561   2.729
 6202TIP3   OH218611   2.592   1.053   3.325
 6202TIP3    H118612   2.575   1.084   3.414
 6202TIP3    H218613   2.614   1.132   3.275
 6203TIP3   OH218614   6.013   3.794   4.961
 6203TIP3    H118615   6.085   3.786   4.898
 6203TIP3    H218616   6.018   3.714   5.013
 6204TIP3   OH218617   4.935   5.583   2.559
 6204TIP3    H118618   4.961   5.563   2.649
 6204TIP3    H218619   4.846   5.548   2.552
 6205TIP3   OH218620   5.191   3.700   1.964
 6205TIP3    H118621   5.267   3.661   1.921
 6205TIP3    H218622   5.136   3.624   1.987
 6206TIP3   OH218623   1.299   3.021   1.950
 6206TIP3    H118624   1.337   2.990   2.032
 6206TIP3    H218625   1.281   2.942   1.900
 6207TIP3   OH218626   0.317   1.709   1.062
 6207TIP3    H118627   0.394   1.704   1.006
 6207TIP3    H218628   0.249   1.662   1.014
 6208TIP3   OH218629   2.705   0.483   4.714
 6208TIP3    H118630   2.760   0.561   4.710
 6208TIP3    H218631   2.750   0.425   4.776
 6209TIP3   OH218632   5.131   3.342   2.189
 6209TIP3    H118633   5.222   3.369   2.175
 6209TIP3    H218634   5.107   3.384   2.272
 6210TIP3   OH218635   2.476   5.063   2.839
 6210TIP3    H118636   2.448   5.058   2.748
 6210TIP3    H218637   2.408   5.016   2.887
 6211TIP3   OH218638   5.903   0.818   1.055
 6211TIP3    H118639   5.968   0.868   1.007
 6211TIP3    H218640   5.881   0.745   0.996
 6212TIP3   OH218641   2.773   3.810   0.782
 6212TIP3    H118642   2.766   3.716   0.800
 6212TIP3    H218643   2.695   3.848   0.822
 6213TIP3   OH218644   6.100   0.857   4.891
 6213TIP3    H118645   6.026   0.860   4.951
 6213TIP3    H218646   6.107   0.946   4.857
 6214TIP3   OH218647   0.873   4.129   3.790
 6214TIP3    H118648   0.885   4.207   3.845
 6214TIP3    H218649   0.818   4.072   3.843
 6215TIP3   OH218650   3.258   1.870   3.362
 6215TIP3    H118651   3.273   1.909   3.276
 6215TIP3    H218652   3.345   1.862   3.401
 6216TIP3   OH218653   1.203   5.948   3.948
 6216TIP3    H118654   1.297   5.928   3.949
 6216TIP3    H218655   1.199   6.041   3.924
 6217TIP3   OH218656   2.709   0.833   1.840
 6217TIP3    H118657   2.663   0.750   1.848
 6217TIP3    H218658   2.641   0.897   1.820
 6218TIP3   OH218659   1.915   0.372   1.474
 6218TIP3    H118660   1.824   0.390   1.498
 6218TIP3    H218661   1.925   0.412   1.387
 6219TIP3   OH218662   5.064   0.223   1.855
 6219TIP3    H118663   5.076   0.305   1.809
 6219TIP3    H218664   5.085   0.155   1.790
 6220TIP3   OH218665   3.183   4.142   0.282
 6220TIP3    H118666   3.192   4.217   0.224
 6220TIP3    H218667   3.198   4.066   0.226
 6221TIP3   OH218668   3.253   1.212   3.844
 6221TIP3    H118669   3.263   1.263   3.764
 6221TIP3    H218670   3.165   1.231   3.875
 6222TIP3   OH218671   5.572   5.962   2.248
 6222TIP3    H118672   5.566   6.029   2.317
 6222TIP3    H218673   5.590   5.881   2.294
 6223TIP3   OH218674   3.963   0.105   4.056
 6223TIP3    H118675   3.980   0.032   3.997
 6223TIP3    H218676   3.979   0.069   4.144
 6224TIP3   OH218677   2.354   5.190   0.182
 6224TIP3    H118678   2.294   5.250   0.137
 6224TIP3    H218679   2.399   5.144   0.111
 6225TIP3   OH218680   1.792   2.581   3.022
 6225TIP3    H118681   1.706   2.552   2.991
 6225TIP3    H218682   1.825   2.637   2.952
 6226TIP3   OH218683   2.225   0.584   0.796
 6226TIP3    H118684   2.205   0.628   0.878
 6226TIP3    H218685   2.146   0.536   0.774
 6227TIP3   OH218686   4.480   2.844   3.736
 6227TIP3    H118687   4.444   2.771   3.684
 6227TIP3    H218688   4.559   2.870   3.689
 6228TIP3   OH218689   4.919   4.207   4.414
 6228TIP3    H118690   4.825   4.223   4.419
 6228TIP3    H218691   4.943   4.230   4.324
 6229TIP3   OH218692   2.421   4.212   3.324
 6229TIP3    H118693   2.497   4.177   3.372
 6229TIP3    H218694   2.436   4.306   3.322
 6230TIP3   OH218695   2.100   5.788   1.019
 6230TIP3    H118696   2.190   5.771   1.046
 6230TIP3    H218697   2.058   5.823   1.098
 6231TIP3   OH218698   0.790   5.308   1.050
 6231TIP3    H118699   0.747   5.223   1.056
 6231TIP3    H218700   0.881   5.290   1.076
 6232TIP3   OH218701   0.493   0.598   4.312
 6232TIP3    H118702   0.496   0.512   4.354
 6232TIP3    H218703   0.542   0.587   4.231
 6233TIP3   OH218704   1.831   3.408   1.893
 6233TIP3    H118705   1.899   3.373   1.950
 6233TIP3    H218706   1.825   3.344   1.822
 6234TIP3   OH218707   2.873   4.428   1.719
 6234TIP3    H118708   2.844   4.498   1.660
 6234TIP3    H218709   2.957   4.401   1.683
 6235TIP3   OH218710   1.507   1.307   1.817
 6235TIP3    H118711   1.535   1.376   1.757
 6235TIP3    H218712   1.551   1.327   1.900
 6236TIP3   OH218713   5.848   4.138   4.740
 6236TIP3    H118714   5.779   4.170   4.797
 6236TIP3    H218715   5.810   4.138   4.653
 6237TIP3   OH218716   5.100   3.955   0.766
 6237TIP3    H118717   5.029   3.953   0.830
 6237TIP3    H218718   5.147   3.873   0.779
 6238TIP3   OH218719   0.070   0.165   2.213
 6238TIP3    H118720   0.082   0.138   2.304
 6238TIP3    H218721  -0.025   0.176   2.204
 6239TIP3   OH218722   4.330   0.548   1.383
 6239TIP3    H118723   4.357   0.573   1.295
 6239TIP3    H218724   4.378   0.606   1.441
 6240TIP3   OH218725   1.922   1.632   5.072
 6240TIP3    H118726   1.898   1.701   5.135
 6240TIP3    H218727   2.013   1.613   5.091
 6241TIP3   OH218728   2.219   2.616   2.272
 6241TIP3    H118729   2.276   2.571   2.210
 6241TIP3    H218730   2.156   2.550   2.300
 6242TIP3   OH218731   0.122   5.470   0.059
 6242TIP3    H118732   0.073   5.520   0.124
 6242TIP3    H218733   0.135   5.384   0.099
 6243TIP3   OH218734   3.459   3.645   0.270
 6243TIP3    H118735   3.431   3.557   0.246
 6243TIP3    H218736   3.389   3.702   0.239
 6244TIP3   OH218737   5.494   2.369   4.486
 6244TIP3    H118738   5.431   2.364   4.414
 6244TIP3    H218739   5.498   2.280   4.521
 6245TIP3   OH218740   3.607   5.961   0.487
 6245TIP3    H118741   3.662   5.937   0.561
 6245TIP3    H218742   3.552   5.884   0.471
 6246TIP3   OH218743   2.719   4.493   5.069
 6246TIP3    H118744   2.670   4.520   5.147
 6246TIP3    H218745   2.796   4.550   5.069
 6247TIP3   OH218746   2.214   4.389   1.363
 6247TIP3    H118747   2.219   4.295   1.378
 6247TIP3    H218748   2.232   4.428   1.448
 6248TIP3   OH218749   3.073   0.200   3.847
 6248TIP3    H118750   3.094   0.189   3.940
 6248TIP3    H218751   3.130   0.271   3.818
 6249TIP3   OH218752   3.391   1.906   2.364
 6249TIP3    H118753   3.435   1.877   2.284
 6249TIP3    H218754   3.350   1.827   2.399
 6250TIP3   OH218755   3.866   1.383   3.177
 6250TIP3    H118756   3.815   1.341   3.108
 6250TIP3    H218757   3.901   1.462   3.137
 6251TIP3   OH218758   4.506   0.969   3.961
 6251TIP3    H118759   4.531   0.888   3.918
 6251TIP3    H218760   4.411   0.960   3.976
 6252TIP3   OH218761   5.649   1.233   4.517
 6252TIP3    H118762   5.637   1.272   4.430
 6252TIP3    H218763   5.620   1.143   4.507
 6253TIP3   OH218764   3.574   3.817   4.252
 6253TIP3    H118765   3.611   3.763   4.321
 6253TIP3    H218766   3.528   3.888   4.298
 6254TIP3   OH218767   0.114   1.230   4.416
 6254TIP3    H118768   0.150   1.297   4.358
 6254TIP3    H218769   0.085   1.277   4.494
 6255TIP3   OH218770   2.067   5.886   4.250
 6255TIP3    H118771   1.991   5.925   4.293
 6255TIP3    H218772   2.126   5.959   4.234
 6256TIP3   OH218773   3.444   2.217   5.006
 6256TIP3    H118774   3.439   2.131   4.965
 6256TIP3    H218775   3.413   2.277   4.938
 6257TIP3   OH218776   1.408   2.696   4.144
 6257TIP3    H118777   1.406   2.780   4.190
 6257TIP3    H218778   1.500   2.685   4.119
 6258TIP3   OH218779   1.012   1.821   2.436
 6258TIP3    H118780   0.961   1.781   2.506
 6258TIP3    H218781   1.090   1.855   2.479
 6259TIP3   OH218782   2.549   2.066   0.769
 6259TIP3    H118783   2.600   2.142   0.796
 6259TIP3    H218784   2.614   1.995   0.764
 6260TIP3   OH218785   3.218   2.026   5.104
 6260TIP3    H118786   3.282   1.957   5.087
 6260TIP3    H218787   3.204   2.068   5.019
 6261TIP3   OH218788   4.257   1.989   2.212
 6261TIP3    H118789   4.197   2.035   2.270
 6261TIP3    H218790   4.298   1.923   2.268
 6262TIP3   OH218791   1.486   5.586   1.208
 6262TIP3    H118792   1.498   5.639   1.129
 6262TIP3    H218793   1.447   5.646   1.272
 6263TIP3   OH218794   3.408   2.755   3.793
 6263TIP3    H118795   3.324   2.725   3.827
 6263TIP3    H218796   3.461   2.771   3.870
 6264TIP3   OH218797   2.652   0.010   0.557
 6264TIP3    H118798   2.592   0.079   0.528
 6264TIP3    H218799   2.603  -0.071   0.545
 6265TIP3   OH218800   2.552   5.771   1.822
 6265TIP3    H118801   2.474   5.719   1.839
 6265TIP3    H218802   2.524   5.862   1.833
 6266TIP3   OH218803   3.348   0.109   0.196
 6266TIP3    H118804   3.257   0.082   0.197
 6266TIP3    H218805   3.349   0.189   0.142
 6267TIP3   OH218806   0.955   4.340   2.786
 6267TIP3    H118807   0.873   4.291   2.796
 6267TIP3    H218808   0.979   4.364   2.876
 6268TIP3   OH218809   4.311   5.090   2.688
 6268TIP3    H118810   4.247   5.134   2.744
 6268TIP3    H218811   4.279   4.999   2.682
 6269TIP3   OH218812   2.879   2.834   2.880
 6269TIP3    H118813   2.927   2.809   2.801
 6269TIP3    H218814   2.825   2.758   2.901
 6270TIP3   OH218815   3.176   5.843   4.886
 6270TIP3    H118816   3.154   5.893   4.807
 6270TIP3    H218817   3.103   5.859   4.945
 6271TIP3   OH218818   4.514   0.706   0.285
 6271TIP3    H118819   4.596   0.732   0.326
 6271TIP3    H218820   4.530   0.715   0.191
 6272TIP3   OH218821   3.698   2.654   2.631
 6272TIP3    H118822   3.699   2.559   2.629
 6272TIP3    H218823   3.708   2.677   2.723
 6273TIP3   OH218824   5.338   5.862   1.947
 6273TIP3    H118825   5.260   5.871   1.892
 6273TIP3    H218826   5.316   5.790   2.006
 6274TIP3   OH218827   4.839   4.211   3.139
 6274TIP3    H118828   4.805   4.124   3.161
 6274TIP3    H218829   4.930   4.195   3.115
 6275TIP3   OH218830   4.697   3.112   4.668
 6275TIP3    H118831   4.723   3.200   4.695
 6275TIP3    H218832   4.645   3.125   4.589
 6276TIP3   OH218833   0.079   1.952   1.119
 6276TIP3    H118834   0.039   2.005   1.050
 6276TIP3    H218835   0.166   1.990   1.132
 6277TIP3   OH218836   4.611   1.876   2.259
 6277TIP3    H118837   4.571   1.806   2.311
 6277TIP3    H218838   4.677   1.915   2.317
 6278TIP3   OH218839   2.728   4.955   2.523
 6278TIP3    H118840   2.641   4.914   2.528
 6278TIP3    H218841   2.758   4.959   2.614
 6279TIP3   OH218842   5.480   3.443   0.311
 6279TIP3    H118843   5.499   3.354   0.282
 6279TIP3    H218844   5.566   3.484   0.321
 6280TIP3   OH218845   4.616   3.571   3.787
 6280TIP3    H118846   4.537   3.619   3.810
 6280TIP3    H218847   4.671   3.575   3.866
 6281TIP3   OH218848   2.143   0.354   1.214
 6281TIP3    H118849   2.171   0.355   1.122
 6281TIP3    H218850   2.047   0.357   1.209
 6282TIP3   OH218851   1.806   0.176   4.819
 6282TIP3    H118852   1.750   0.249   4.844
 6282TIP3    H218853   1.887   0.191   4.868
 6283TIP3   OH218854   2.748   5.582   2.793
 6283TIP3    H118855   2.825   5.590   2.850
 6283TIP3    H218856   2.676   5.560   2.853
 6284TIP3   OH218857   4.148   4.730   2.260
 6284TIP3    H118858   4.145   4.634   2.258
 6284TIP3    H218859   4.147   4.756   2.168
 6285TIP3   OH218860   2.119   1.165   1.105
 6285TIP3    H118861   2.135   1.180   1.012
 6285TIP3    H218862   2.043   1.219   1.126
 6286TIP3   OH218863   4.171   5.001   5.021
 6286TIP3    H118864   4.260   4.999   4.986
 6286TIP3    H218865   4.148   4.909   5.033
 6287TIP3   OH218866   0.376   2.701   0.178
 6287TIP3    H118867   0.353   2.716   0.086
 6287TIP3    H218868   0.429   2.621   0.176
 6288TIP3   OH218869   5.221   3.592   3.696
 6288TIP3    H118870   5.142   3.561   3.740
 6288TIP3    H218871   5.291   3.578   3.760
 6289TIP3   OH218872   5.945   2.745   2.073
 6289TIP3    H118873   5.948   2.676   2.139
 6289TIP3    H218874   6.036   2.768   2.058
 6290TIP3   OH218875   2.492   4.252   4.037
 6290TIP3    H118876   2.476   4.164   4.071
 6290TIP3    H218877   2.408   4.297   4.049
 6291TIP3   OH218878   4.437   5.152   1.147
 6291TIP3    H118879   4.401   5.128   1.233
 6291TIP3    H218880   4.423   5.074   1.093
 6292TIP3   OH218881   3.319   1.584   3.411
 6292TIP3    H118882   3.272   1.515   3.364
 6292TIP3    H218883   3.259   1.659   3.408
 6293TIP3   OH218884   4.840   1.204   3.950
 6293TIP3    H118885   4.752   1.239   3.935
 6293TIP3    H218886   4.856   1.218   4.043
 6294TIP3   OH218887   4.277   4.881   3.036
 6294TIP3    H118888   4.196   4.831   3.024
 6294TIP3    H218889   4.338   4.819   3.076
 6295TIP3   OH218890   2.307   1.996   4.878
 6295TIP3    H118891   2.367   2.002   4.953
 6295TIP3    H218892   2.350   1.935   4.818
 6296TIP3   OH218893   1.770   0.549   3.792
 6296TIP3    H118894   1.766   0.485   3.721
 6296TIP3    H218895   1.696   0.607   3.776
 6297TIP3   OH218896   0.776   4.658   0.746
 6297TIP3    H118897   0.788   4.619   0.832
 6297TIP3    H218898   0.859   4.641   0.700
 6298TIP3   OH218899   5.496   3.877   3.120
 6298TIP3    H118900   5.508   3.960   3.075
 6298TIP3    H218901   5.543   3.813   3.067
 6299TIP3   OH218902   3.023   3.176   3.601
 6299TIP3    H118903   2.988   3.265   3.597
 6299TIP3    H218904   3.108   3.182   3.558
 6300TIP3   OH218905   2.901   3.373   1.915
 6300TIP3    H118906   2.995   3.363   1.896
 6300TIP3    H218907   2.896   3.366   2.011
 6301TIP3   OH218908   5.880   0.238   2.800
 6301TIP3    H118909   5.884   0.330   2.824
 6301TIP3    H218910   5.824   0.236   2.722
 6302TIP3   OH218911   6.309   1.116   1.202
 6302TIP3    H118912   6.389   1.166   1.186
 6302TIP3    H218913   6.307   1.051   1.132
 6303TIP3   OH218914   1.129   4.088   3.624
 6303TIP3    H118915   1.070   4.017   3.599
 6303TIP3    H218916   1.087   4.167   3.590
 6304TIP3   OH218917   5.637   3.106   4.967
 6304TIP3    H118918   5.699   3.043   4.932
 6304TIP3    H218919   5.578   3.054   5.022
 6305TIP3   OH218920   1.981   5.666   3.621
 6305TIP3    H118921   1.886   5.670   3.614
 6305TIP3    H218922   1.998   5.593   3.681
 6306TIP3   OH218923   1.483   2.898   3.919
 6306TIP3    H118924   1.553   2.900   3.985
 6306TIP3    H218925   1.500   2.819   3.868
 6307TIP3   OH218926   0.128   0.535   0.054
 6307TIP3    H118927   0.090   0.614   0.017
 6307TIP3    H218928   0.059   0.497   0.107
 6308TIP3   OH218929   1.152   4.095   3.901
 6308TIP3    H118930   1.111   4.028   3.956
 6308TIP3    H218931   1.115   4.080   3.814
 6309TIP3   OH218932   4.534   5.214   3.876
 6309TIP3    H118933   4.451   5.224   3.922
 6309TIP3    H218934   4.532   5.124   3.842
 6310TIP3   OH218935   5.419   0.846   2.301
 6310TIP3    H118936   5.409   0.923   2.357
 6310TIP3    H218937   5.512   0.842   2.282
 6311TIP3   OH218938   4.019   0.644   0.446
 6311TIP3    H118939   3.928   0.617   0.453
 6311TIP3    H218940   4.056   0.628   0.533
 6312TIP3   OH218941   3.967   3.916   0.468
 6312TIP3    H118942   4.045   3.881   0.425
 6312TIP3    H218943   3.968   3.878   0.555
 6313TIP3   OH218944   4.461   0.682   1.598
 6313TIP3    H118945   4.547   0.639   1.594
 6313TIP3    H218946   4.479   0.770   1.632
 6314TIP3   OH218947   1.865   4.178   2.601
 6314TIP3    H118948   1.923   4.133   2.663
 6314TIP3    H218949   1.777   4.166   2.639
 6315TIP3   OH218950   1.726   5.430   1.320
 6315TIP3    H118951   1.752   5.365   1.254
 6315TIP3    H218952   1.675   5.494   1.271
 6316TIP3   OH218953   1.804   0.027   2.916
 6316TIP3    H118954   1.828  -0.049   2.970
 6316TIP3    H218955   1.772   0.091   2.979
 6317TIP3   OH218956   1.762   5.046   3.484
 6317TIP3    H118957   1.843   5.077   3.524
 6317TIP3    H218958   1.777   4.952   3.469
 6318TIP3   OH218959   2.418   0.874   0.026
 6318TIP3    H118960   2.348   0.939   0.030
 6318TIP3    H218961   2.398   0.822  -0.052
 6319TIP3   OH218962   3.219   4.214   3.938
 6319TIP3    H118963   3.171   4.296   3.951
 6319TIP3    H218964   3.253   4.192   4.026
 6320TIP3   OH218965   2.509   1.051   3.870
 6320TIP3    H118966   2.521   1.145   3.889
 6320TIP3    H218967   2.586   1.009   3.909
 6321TIP3   OH218968   5.819   4.463   2.533
 6321TIP3    H118969   5.824   4.548   2.490
 6321TIP3    H218970   5.728   4.435   2.522
 6322TIP3   OH218971   5.221   2.026   2.799
 6322TIP3    H118972   5.274   2.093   2.756
 6322TIP3    H218973   5.284   1.973   2.847
 6323TIP3   OH218974   4.353   4.961   2.139
 6323TIP3    H118975   4.425   4.937   2.197
 6323TIP3    H218976   4.309   4.878   2.119
 6324TIP3   OH218977   5.797   3.128   0.345
 6324TIP3    H118978   5.760   3.195   0.402
 6324TIP3    H218979   5.823   3.058   0.405
 6325TIP3   OH218980   3.204   0.597   3.174
 6325TIP3    H118981   3.276   0.642   3.129
 6325TIP3    H218982   3.189   0.649   3.252
 6326TIP3   OH218983   2.089   4.481   2.369
 6326TIP3    H118984   2.039   4.432   2.434
 6326TIP3    H218985   2.090   4.571   2.401
 6327TIP3   OH218986   3.819   4.153   1.695
 6327TIP3    H118987   3.748   4.128   1.754
 6327TIP3    H218988   3.793   4.119   1.610
 6328TIP3   OH218989   4.713   1.927   4.326
 6328TIP3    H118990   4.742   1.939   4.417
 6328TIP3    H218991   4.644   1.992   4.315
 6329TIP3   OH218992   2.364   5.708   1.070
 6329TIP3    H118993   2.407   5.655   1.003
 6329TIP3    H218994   2.435   5.734   1.129
 6330TIP3   OH218995   2.037   4.452   2.090
 6330TIP3    H118996   2.052   4.431   2.183
 6330TIP3    H218997   1.952   4.497   2.090
 6331TIP3   OH218998   3.935   2.725   3.615
 6331TIP3    H118999   3.993   2.649   3.614
 6331TIP3    H219000   3.992   2.799   3.593
 6332TIP3   OH219001   4.316   3.602   0.016
 6332TIP3    H119002   4.354   3.570  -0.066
 6332TIP3    H219003   4.288   3.523   0.061
 6333TIP3   OH219004   0.750   3.587   2.149
 6333TIP3    H119005   0.791   3.507   2.115
 6333TIP3    H219006   0.794   3.602   2.233
 6334TIP3   OH219007   5.762   0.639   2.486
 6334TIP3    H119008   5.762   0.678   2.398
 6334TIP3    H219009   5.853   0.611   2.499
 6335TIP3   OH219010   4.658   1.799   3.100
 6335TIP3    H119011   4.629   1.708   3.113
 6335TIP3    H219012   4.717   1.795   3.026
 6336TIP3   OH219013   1.535   3.720   3.688
 6336TIP3    H119014   1.593   3.794   3.674
 6336TIP3    H219015   1.464   3.755   3.742
 6337TIP3   OH219016   0.871   4.651   1.506
 6337TIP3    H119017   0.902   4.737   1.533
 6337TIP3    H219018   0.937   4.590   1.540
 6338TIP3   OH219019   2.411   4.775   3.830
 6338TIP3    H119020   2.413   4.696   3.884
 6338TIP3    H219021   2.349   4.833   3.874
 6339TIP3   OH219022   6.051   0.281   3.750
 6339TIP3    H119023   6.060   0.336   3.673
 6339TIP3    H219024   6.042   0.192   3.716
 6340TIP3   OH219025   1.895   4.726   0.800
 6340TIP3    H119026   1.837   4.763   0.867
 6340TIP3    H219027   1.886   4.631   0.809
 6341TIP3   OH219028   4.956   1.567   2.799
 6341TIP3    H119029   5.046   1.572   2.766
 6341TIP3    H219030   4.947   1.478   2.832
 6342TIP3   OH219031   1.722   5.482   2.566
 6342TIP3    H119032   1.719   5.528   2.482
 6342TIP3    H219033   1.631   5.476   2.594
 6343TIP3   OH219034   3.418   0.879   4.924
 6343TIP3    H119035   3.453   0.940   4.858
 6343TIP3    H219036   3.468   0.798   4.910
 6344TIP3   OH219037   5.591   0.793   4.111
 6344TIP3    H119038   5.568   0.743   4.033
 6344TIP3    H219039   5.673   0.837   4.088
 6345TIP3   OH219040   2.938   5.638   4.839
 6345TIP3    H119041   2.914   5.631   4.932
 6345TIP3    H219042   2.867   5.594   4.793
 6346TIP3   OH219043   2.960   0.359   3.342
 6346TIP3    H119044   2.904   0.342   3.418
 6346TIP3    H219045   3.036   0.404   3.377
 6347TIP3   OH219046   0.779   2.184   4.990
 6347TIP3    H119047   0.797   2.232   4.909
 6347TIP3    H219048   0.864   2.146   5.014
 6348TIP3   OH219049   0.654   0.727   3.519
 6348TIP3    H119050   0.701   0.679   3.451
 6348TIP3    H219051   0.599   0.789   3.470
 6349TIP3   OH219052   4.879   2.838   3.808
 6349TIP3    H119053   4.868   2.747   3.780
 6349TIP3    H219054   4.970   2.844   3.836
 6350TIP3   OH219055   0.529   3.252   0.051
 6350TIP3    H119056   0.598   3.298   0.099
 6350TIP3    H219057   0.521   3.169   0.097
 6351TIP3   OH219058   0.296   0.299   2.509
 6351TIP3    H119059   0.377   0.257   2.481
 6351TIP3    H219060   0.229   0.264   2.450
 6352TIP3   OH219061   1.863   5.568   2.292
 6352TIP3    H119062   1.910   5.554   2.375
 6352TIP3    H219063   1.903   5.507   2.231
 6353TIP3   OH219064   4.459   0.176   4.967
 6353TIP3    H119065   4.515   0.127   4.907
 6353TIP3    H219066   4.514   0.246   5.001
 6354TIP3   OH219067   3.691   5.532   1.153
 6354TIP3    H119068   3.665   5.511   1.242
 6354TIP3    H219069   3.724   5.622   1.157
 6355TIP3   OH219070   4.899   3.614   2.991
 6355TIP3    H119071   4.973   3.629   3.049
 6355TIP3    H219072   4.896   3.692   2.935
 6356TIP3   OH219073   1.850   4.419   0.869
 6356TIP3    H119074   1.891   4.423   0.783
 6356TIP3    H219075   1.764   4.380   0.854
 6357TIP3   OH219076   5.975   2.501   0.565
 6357TIP3    H119077   5.916   2.481   0.493
 6357TIP3    H219078   6.063   2.488   0.528
 6358TIP3   OH219079   4.605   3.610   0.178
 6358TIP3    H119080   4.549   3.687   0.169
 6358TIP3    H219081   4.583   3.575   0.265
 6359TIP3   OH219082   0.167   5.190   4.560
 6359TIP3    H119083   0.083   5.182   4.605
 6359TIP3    H219084   0.178   5.284   4.545
 6360TIP3   OH219085   2.199   3.391   3.905
 6360TIP3    H119086   2.141   3.392   3.829
 6360TIP3    H219087   2.276   3.341   3.875
 6361TIP3   OH219088   2.421   1.857   4.655
 6361TIP3    H119089   2.475   1.837   4.579
 6361TIP3    H219090   2.337   1.886   4.619
 6362TIP3   OH219091   3.813   4.228   0.302
 6362TIP3    H119092   3.883   4.196   0.244
 6362TIP3    H219093   3.795   4.317   0.271
 6363TIP3   OH219094   0.943   4.241   4.354
 6363TIP3    H119095   0.964   4.163   4.406
 6363TIP3    H219096   0.867   4.216   4.303
 6364TIP3   OH219097   4.922   1.751   4.732
 6364TIP3    H119098   4.921   1.721   4.822
 6364TIP3    H219099   5.013   1.771   4.713
 6365TIP3   OH219100   4.247   5.318   4.904
 6365TIP3    H119101   4.305   5.253   4.865
 6365TIP3    H219102   4.198   5.270   4.971
 6366TIP3   OH219103   4.903   5.274   4.324
 6366TIP3    H119104   4.916   5.290   4.230
 6366TIP3    H219105   4.970   5.209   4.346
 6367TIP3   OH219106   1.047   5.926   1.735
 6367TIP3    H119107   1.091   6.001   1.775
 6367TIP3    H219108   0.988   5.894   1.804
 6368TIP3   OH219109   0.576   1.117   2.898
 6368TIP3    H119110   0.536   1.110   2.985
 6368TIP3    H219111   0.557   1.207   2.871
 6369TIP3   OH219112   4.508   1.035   1.871
 6369TIP3    H119113   4.550   1.115   1.841
 6369TIP3    H219114   4.538   0.968   1.809
 6370TIP3   OH219115   0.172   1.372   1.912
 6370TIP3    H119116   0.213   1.443   1.961
 6370TIP3    H219117   0.078   1.389   1.917
 6371TIP3   OH219118   5.551   2.936   0.560
 6371TIP3    H119119   5.490   2.863   0.554
 6371TIP3    H219120   5.504   3.003   0.610
 6372TIP3   OH219121   2.101   1.515   0.230
 6372TIP3    H119122   2.154   1.555   0.162
 6372TIP3    H219123   2.156   1.444   0.264
 6373TIP3   OH219124   2.534   3.605  -0.031
 6373TIP3    H119125   2.626   3.579  -0.023
 6373TIP3    H219126   2.519   3.611  -0.126
 6374TIP3   OH219127   6.142   1.700   2.064
 6374TIP3    H119128   6.062   1.650   2.081
 6374TIP3    H219129   6.186   1.650   1.995
 6375TIP3   OH219130   3.228   4.445   2.352
 6375TIP3    H119131   3.198   4.419   2.265
 6375TIP3    H219132   3.313   4.485   2.337
 6376TIP3   OH219133   0.352   3.835   1.004
 6376TIP3    H119134   0.343   3.916   1.054
 6376TIP3    H219135   0.331   3.766   1.067
 6377TIP3   OH219136   2.925   4.346   1.065
 6377TIP3    H119137   2.936   4.325   0.973
 6377TIP3    H219138   2.896   4.438   1.066
 6378TIP3   OH219139   4.608   4.759   1.438
 6378TIP3    H119140   4.665   4.821   1.391
 6378TIP3    H219141   4.569   4.811   1.508
 6379TIP3   OH219142   3.803   0.431   0.479
 6379TIP3    H119143   3.804   0.344   0.519
 6379TIP3    H219144   3.745   0.482   0.536
 6380TIP3   OH219145   3.091   5.937   0.006
 6380TIP3    H119146   3.115   5.977   0.089
 6380TIP3    H219147   3.099   5.843   0.022
 6381TIP3   OH219148   3.801   0.626   2.154
 6381TIP3    H119149   3.754   0.592   2.230
 6381TIP3    H219150   3.840   0.548   2.113
 6382TIP3   OH219151   4.638   0.315   1.655
 6382TIP3    H119152   4.654   0.223   1.633
 6382TIP3    H219153   4.545   0.318   1.675
 6383TIP3   OH219154   0.912   3.054   4.773
 6383TIP3    H119155   0.992   3.103   4.788
 6383TIP3    H219156   0.865   3.059   4.857
 6384TIP3   OH219157   5.310   3.783   4.612
 6384TIP3    H119158   5.386   3.745   4.656
 6384TIP3    H219159   5.334   3.875   4.599
 6385TIP3   OH219160   5.987   0.460   1.411
 6385TIP3    H119161   5.947   0.411   1.339
 6385TIP3    H219162   5.930   0.536   1.423
 6386TIP3   OH219163   2.076   4.427   0.172
 6386TIP3    H119164   2.115   4.510   0.200
 6386TIP3    H219165   2.130   4.399   0.099
 6387TIP3   OH219166   0.519   0.848   4.404
 6387TIP3    H119167   0.425   0.866   4.407
 6387TIP3    H219168   0.525   0.759   4.370
 6388TIP3   OH219169   2.992   0.393   2.627
 6388TIP3    H119170   2.943   0.375   2.546
 6388TIP3    H219171   2.925   0.408   2.693
 6389TIP3   OH219172   0.509   4.912   4.912
 6389TIP3    H119173   0.565   4.911   4.990
 6389TIP3    H219174   0.420   4.912   4.947
 6390TIP3   OH219175   4.368   0.162   3.183
 6390TIP3    H119176   4.355   0.083   3.235
 6390TIP3    H219177   4.461   0.163   3.162
 6391TIP3   OH219178   0.571   1.166   1.155
 6391TIP3    H119179   0.602   1.140   1.241
 6391TIP3    H219180   0.571   1.086   1.103
 6392TIP3   OH219181   5.158   4.343   4.464
 6392TIP3    H119182   5.074   4.300   4.447
 6392TIP3    H219183   5.148   4.382   4.550
 6393TIP3   OH219184   5.166   3.847   3.564
 6393TIP3    H119185   5.230   3.863   3.495
 6393TIP3    H219186   5.189   3.760   3.598
 6394TIP3   OH219187   3.621   4.843   1.762
 6394TIP3    H119188   3.557   4.853   1.692
 6394TIP3    H219189   3.572   4.807   1.836
 6395TIP3   OH219190   1.739   4.362   1.234
 6395TIP3    H119191   1.822   4.359   1.282
 6395TIP3    H219192   1.706   4.450   1.248
 6396TIP3   OH219193   6.163   4.440   4.810
 6396TIP3    H119194   6.238   4.495   4.833
 6396TIP3    H219195   6.098   4.501   4.777
 6397TIP3   OH219196   4.155   2.128   1.397
 6397TIP3    H119197   4.220   2.168   1.454
 6397TIP3    H219198   4.124   2.052   1.446
 6398TIP3   OH219199   4.823   0.032   1.896
 6398TIP3    H119200   4.848  -0.024   1.822
 6398TIP3    H219201   4.895   0.095   1.904
 6399TIP3   OH219202   2.809   3.897   2.925
 6399TIP3    H119203   2.818   3.803   2.915
 6399TIP3    H219204   2.759   3.909   3.006
 6400TIP3   OH219205   4.691   2.830   1.799
 6400TIP3    H119206   4.609   2.839   1.751
 6400TIP3    H219207   4.711   2.737   1.796
 6401TIP3   OH219208   4.204   1.331   3.255
 6401TIP3    H119209   4.135   1.305   3.194
 6401TIP3    H219210   4.205   1.426   3.252
 6402TIP3   OH219211   4.795   0.335   1.920
 6402TIP3    H119212   4.858   0.389   1.872
 6402TIP3    H219213   4.755   0.280   1.853
 6403TIP3   OH219214   3.309   2.908   2.203
 6403TIP3    H119215   3.404   2.910   2.204
 6403TIP3    H219216   3.285   2.829   2.251
 6404TIP3   OH219217   2.311   4.634   0.230
 6404TIP3    H119218   2.391   4.668   0.270
 6404TIP3    H219219   2.330   4.635   0.136
 6405TIP3   OH219220   3.354   5.763   2.274
 6405TIP3    H119221   3.266   5.777   2.238
 6405TIP3    H219222   3.413   5.776   2.200
 6406TIP3   OH219223   3.731   2.131   4.756
 6406TIP3    H119224   3.709   2.060   4.695
 6406TIP3    H219225   3.693   2.103   4.840
 6407TIP3   OH219226   0.826   5.025   0.676
 6407TIP3    H119227   0.912   5.042   0.715
 6407TIP3    H219228   0.786   4.960   0.734
 6408TIP3   OH219229   4.935   4.566   4.930
 6408TIP3    H119230   4.937   4.516   5.012
 6408TIP3    H219231   4.846   4.553   4.896
 6409TIP3   OH219232   6.273   1.920   1.344
 6409TIP3    H119233   6.300   2.002   1.386
 6409TIP3    H219234   6.330   1.913   1.267
 6410TIP3   OH219235   5.945   5.335   2.085
 6410TIP3    H119236   5.877   5.276   2.055
 6410TIP3    H219237   5.932   5.342   2.180
 6411TIP3   OH219238   1.687   2.000   0.542
 6411TIP3    H119239   1.668   2.057   0.468
 6411TIP3    H219240   1.715   2.059   0.611
 6412TIP3   OH219241   3.939   3.195   4.902
 6412TIP3    H119242   4.023   3.240   4.911
 6412TIP3    H219243   3.895   3.209   4.985
 6413TIP3   OH219244   5.729   4.247   3.126
 6413TIP3    H119245   5.643   4.248   3.085
 6413TIP3    H219246   5.772   4.169   3.090
 6414TIP3   OH219247   2.241   1.620   0.008
 6414TIP3    H119248   2.332   1.588   0.007
 6414TIP3    H219249   2.245   1.702   0.057
 6415TIP3   OH219250   4.949   5.561   4.361
 6415TIP3    H119251   4.986   5.478   4.332
 6415TIP3    H219252   4.940   5.613   4.282
 6416TIP3   OH219253   4.099   1.991   0.272
 6416TIP3    H119254   4.009   2.015   0.249
 6416TIP3    H219255   4.102   1.996   0.367
 6417TIP3   OH219256   3.127   2.994   0.603
 6417TIP3    H119257   3.183   3.027   0.532
 6417TIP3    H219258   3.054   3.056   0.606
 6418TIP3   OH219259   6.070   5.226   1.295
 6418TIP3    H119260   5.977   5.222   1.317
 6418TIP3    H219261   6.076   5.292   1.226
 6419TIP3   OH219262   5.453   4.003   2.248
 6419TIP3    H119263   5.385   3.935   2.257
 6419TIP3    H219264   5.488   4.013   2.336
 6420TIP3   OH219265   6.246   2.539   2.100
 6420TIP3    H119266   6.334   2.511   2.075
 6420TIP3    H219267   6.211   2.465   2.150
 6421TIP3   OH219268   1.490   5.450   3.752
 6421TIP3    H119269   1.519   5.417   3.837
 6421TIP3    H219270   1.395   5.434   3.751
 6422TIP3   OH219271   1.359   2.338   4.804
 6422TIP3    H119272   1.303   2.261   4.798
 6422TIP3    H219273   1.313   2.406   4.755
 6423TIP3   OH219274   2.074   1.615   2.228
 6423TIP3    H119275   2.085   1.634   2.321
 6423TIP3    H219276   2.147   1.557   2.207
 6424TIP3   OH219277   0.476   0.660   2.330
 6424TIP3    H119278   0.478   0.707   2.247
 6424TIP3    H219279   0.400   0.695   2.376
 6425TIP3   OH219280   2.623   0.364   2.019
 6425TIP3    H119281   2.683   0.439   2.027
 6425TIP3    H219282   2.541   0.403   1.990
 6426TIP3   OH219283   2.515   5.592   2.973
 6426TIP3    H119284   2.506   5.600   3.068
 6426TIP3    H219285   2.526   5.498   2.957
 6427TIP3   OH219286   3.058   0.532   4.100
 6427TIP3    H119287   2.969   0.564   4.084
 6427TIP3    H219288   3.112   0.611   4.093
 6428TIP3   OH219289   4.629   1.448   1.671
 6428TIP3    H119290   4.673   1.524   1.633
 6428TIP3    H219291   4.536   1.467   1.659
 6429TIP3   OH219292   0.022   4.538   0.101
 6429TIP3    H119293   0.088   4.570   0.039
 6429TIP3    H219294   0.070   4.476   0.157
 6430TIP3   OH219295   1.673   1.200   5.056
 6430TIP3    H119296   1.728   1.227   4.982
 6430TIP3    H219297   1.618   1.131   5.020
 6431TIP3   OH219298   2.559   5.739   1.267
 6431TIP3    H119299   2.599   5.826   1.269
 6431TIP3    H219300   2.506   5.735   1.347
 6432TIP3   OH219301   1.322   2.851   2.191
 6432TIP3    H119302   1.371   2.823   2.268
 6432TIP3    H219303   1.241   2.800   2.194
 6433TIP3   OH219304   2.113   5.547   2.796
 6433TIP3    H119305   2.137   5.475   2.854
 6433TIP3    H219306   2.072   5.611   2.854
 6434TIP3   OH219307   0.794   4.407   1.464
 6434TIP3    H119308   0.801   4.394   1.370
 6434TIP3    H219309   0.777   4.500   1.475
 6435TIP3   OH219310   4.186   2.952   1.513
 6435TIP3    H119311   4.093   2.940   1.533
 6435TIP3    H219312   4.193   3.043   1.485
 6436TIP3   OH219313   5.745   0.957   2.082
 6436TIP3    H119314   5.696   0.969   2.001
 6436TIP3    H219315   5.788   1.041   2.097
 6437TIP3   OH219316   0.294   2.347   1.109
 6437TIP3    H119317   0.240   2.269   1.124
 6437TIP3    H219318   0.383   2.313   1.098
 6438TIP3   OH219319   5.427   0.810   0.695
 6438TIP3    H119320   5.470   0.828   0.779
 6438TIP3    H219321   5.335   0.796   0.718
 6439TIP3   OH219322   0.511   4.609   3.686
 6439TIP3    H119323   0.446   4.540   3.676
 6439TIP3    H219324   0.532   4.634   3.596
 6440TIP3   OH219325   6.002   0.650   3.061
 6440TIP3    H119326   5.986   0.739   3.093
 6440TIP3    H219327   6.039   0.604   3.137
 6441TIP3   OH219328   2.272   4.290   2.691
 6441TIP3    H119329   2.279   4.216   2.751
 6441TIP3    H219330   2.237   4.253   2.610
 6442TIP3   OH219331   6.159   2.288   1.777
 6442TIP3    H119332   6.120   2.201   1.775
 6442TIP3    H219333   6.253   2.273   1.787
 6443TIP3   OH219334   5.054   2.772   2.629
 6443TIP3    H119335   5.118   2.795   2.697
 6443TIP3    H219336   4.981   2.833   2.643
 6444TIP3   OH219337   1.924   2.861   1.117
 6444TIP3    H119338   1.979   2.791   1.081
 6444TIP3    H219339   1.941   2.937   1.061
 6445TIP3   OH219340   3.979   4.877   3.911
 6445TIP3    H119341   4.037   4.834   3.973
 6445TIP3    H219342   4.038   4.915   3.845
 6446TIP3   OH219343   3.031   5.146   0.420
 6446TIP3    H119344   3.038   5.169   0.512
 6446TIP3    H219345   3.099   5.081   0.406
 6447TIP3   OH219346   0.453   0.119   4.259
 6447TIP3    H119347   0.457   0.176   4.336
 6447TIP3    H219348   0.539   0.078   4.254
 6448TIP3   OH219349   4.256   2.545   0.753
 6448TIP3    H119350   4.169   2.505   0.755
 6448TIP3    H219351   4.296   2.519   0.836
 6449TIP3   OH219352   5.212   0.650   0.420
 6449TIP3    H119353   5.293   0.630   0.467
 6449TIP3    H219354   5.238   0.656   0.328
 6450TIP3   OH219355   5.199   3.499   4.509
 6450TIP3    H119356   5.164   3.577   4.552
 6450TIP3    H219357   5.254   3.458   4.575
 6451TIP3   OH219358   0.555   4.476   3.395
 6451TIP3    H119359   0.522   4.387   3.407
 6451TIP3    H219360   0.550   4.491   3.300
 6452TIP3   OH219361   4.949   3.910   1.003
 6452TIP3    H119362   4.927   3.873   1.089
 6452TIP3    H219363   4.865   3.928   0.962
 6453TIP3   OH219364   0.746   0.261   3.878
 6453TIP3    H119365   0.781   0.349   3.881
 6453TIP3    H219366   0.651   0.273   3.878
 6454TIP3   OH219367   0.779   3.039   2.877
 6454TIP3    H119368   0.698   3.017   2.924
 6454TIP3    H219369   0.775   3.134   2.867
 6455TIP3   OH219370   0.461   3.530   0.311
 6455TIP3    H119371   0.487   3.472   0.383
 6455TIP3    H219372   0.412   3.600   0.354
 6456TIP3   OH219373   5.540   4.348   3.573
 6456TIP3    H119374   5.505   4.302   3.497
 6456TIP3    H219375   5.583   4.425   3.537
 6457TIP3   OH219376   0.739   4.213   3.323
 6457TIP3    H119377   0.758   4.231   3.415
 6457TIP3    H219378   0.790   4.135   3.302
 6458TIP3   OH219379   3.692   4.714   4.763
 6458TIP3    H119380   3.762   4.723   4.697
 6458TIP3    H219381   3.708   4.629   4.803
 6459TIP3   OH219382   1.088   1.328   0.712
 6459TIP3    H119383   1.183   1.327   0.729
 6459TIP3    H219384   1.049   1.351   0.796
 6460TIP3   OH219385   1.312   4.660   4.636
 6460TIP3    H119386   1.348   4.652   4.725
 6460TIP3    H219387   1.244   4.727   4.644
 6461TIP3   OH219388   3.574   2.528   1.906
 6461TIP3    H119389   3.618   2.530   1.991
 6461TIP3    H219390   3.554   2.435   1.892
 6462TIP3   OH219391   0.739   0.767   2.689
 6462TIP3    H119392   0.751   0.823   2.766
 6462TIP3    H219393   0.769   0.820   2.616
 6463TIP3   OH219394   0.383   3.600   0.763
 6463TIP3    H119395   0.350   3.624   0.850
 6463TIP3    H219396   0.306   3.605   0.706
 6464TIP3   OH219397   2.094   2.255   3.442
 6464TIP3    H119398   2.027   2.219   3.384
 6464TIP3    H219399   2.056   2.336   3.476
 6465TIP3   OH219400   2.560   1.081   1.867
 6465TIP3    H119401   2.530   1.054   1.953
 6465TIP3    H219402   2.534   1.173   1.859
 6466TIP3   OH219403   3.479   0.371   5.197
 6466TIP3    H119404   3.444   0.342   5.113
 6466TIP3    H219405   3.472   0.294   5.253
 6467TIP3   OH219406   2.596   2.399   2.228
 6467TIP3    H119407   2.530   2.429   2.167
 6467TIP3    H219408   2.570   2.309   2.250
 6468TIP3   OH219409   3.261   5.154   0.156
 6468TIP3    H119410   3.250   5.059   0.153
 6468TIP3    H219411   3.326   5.169   0.224
 6469TIP3   OH219412   1.432   1.073   4.939
 6469TIP3    H119413   1.517   1.040   4.912
 6469TIP3    H219414   1.369   1.025   4.883
 6470TIP3   OH219415   6.242   3.707   1.876
 6470TIP3    H119416   6.234   3.691   1.782
 6470TIP3    H219417   6.191   3.786   1.891
 6471TIP3   OH219418   0.190   5.646   1.859
 6471TIP3    H119419   0.226   5.688   1.781
 6471TIP3    H219420   0.257   5.659   1.926
 6472TIP3   OH219421   0.089   4.324   1.117
 6472TIP3    H119422   0.081   4.232   1.092
 6472TIP3    H219423   0.119   4.322   1.208
 6473TIP3   OH219424   0.821   3.238   1.440
 6473TIP3    H119425   0.880   3.210   1.510
 6473TIP3    H219426   0.812   3.332   1.453
 6474TIP3   OH219427   5.571   1.080   1.916
 6474TIP3    H119428   5.480   1.056   1.936
 6474TIP3    H219429   5.571   1.176   1.919
 6475TIP3   OH219430   1.960   2.867   4.235
 6475TIP3    H119431   2.016   2.813   4.291
 6475TIP3    H219432   1.992   2.956   4.248
 6476TIP3   OH219433   3.036   1.589   3.616
 6476TIP3    H119434   2.988   1.672   3.607
 6476TIP3    H219435   3.126   1.616   3.635
 6477TIP3   OH219436   5.453   3.061   4.647
 6477TIP3    H119437   5.546   3.037   4.648
 6477TIP3    H219438   5.421   3.037   4.734
 6478TIP3   OH219439   0.506   2.034   3.353
 6478TIP3    H119440   0.473   2.108   3.302
 6478TIP3    H219441   0.476   1.957   3.304
 6479TIP3   OH219442   1.848   0.352   2.841
 6479TIP3    H119443   1.940   0.356   2.869
 6479TIP3    H219444   1.799   0.337   2.922
 6480TIP3   OH219445   0.219   0.887   4.108
 6480TIP3    H119446   0.253   0.959   4.161
 6480TIP3    H219447   0.297   0.851   4.064
 6481TIP3   OH219448   5.099   1.730   3.366
 6481TIP3    H119449   5.188   1.694   3.368
 6481TIP3    H219450   5.056   1.690   3.442
 6482TIP3   OH219451   1.986   0.401   0.197
 6482TIP3    H119452   1.975   0.348   0.118
 6482TIP3    H219453   1.995   0.337   0.268
 6483TIP3   OH219454   0.216   4.854   4.177
 6483TIP3    H119455   0.275   4.921   4.144
 6483TIP3    H219456   0.131   4.876   4.140
 6484TIP3   OH219457   4.255   5.720   3.773
 6484TIP3    H119458   4.254   5.740   3.680
 6484TIP3    H219459   4.249   5.624   3.777
 6485TIP3   OH219460   5.303   3.605   4.263
 6485TIP3    H119461   5.392   3.634   4.284
 6485TIP3    H219462   5.278   3.551   4.338
 6486TIP3   OH219463   3.686   2.971   0.380
 6486TIP3    H119464   3.741   2.927   0.315
 6486TIP3    H219465   3.747   3.002   0.447
 6487TIP3   OH219466   2.505   0.225   0.518
 6487TIP3    H119467   2.519   0.320   0.514
 6487TIP3    H219468   2.477   0.209   0.608
 6488TIP3   OH219469   4.940   1.962   2.765
 6488TIP3    H119470   4.911   2.025   2.699
 6488TIP3    H219471   5.028   1.993   2.790
 6489TIP3   OH219472   5.186   3.091   2.857
 6489TIP3    H119473   5.142   3.140   2.927
 6489TIP3    H219474   5.278   3.116   2.864
 6490TIP3   OH219475   4.080   2.559   2.708
 6490TIP3    H119476   4.122   2.628   2.657
 6490TIP3    H219477   4.036   2.606   2.780
 6491TIP3   OH219478   1.310   0.894   2.399
 6491TIP3    H119479   1.278   0.819   2.451
 6491TIP3    H219480   1.375   0.936   2.455
 6492TIP3   OH219481   4.908   3.988   3.935
 6492TIP3    H119482   4.968   3.965   4.005
 6492TIP3    H219483   4.930   3.929   3.863
 6493TIP3   OH219484   3.561   3.411   3.425
 6493TIP3    H119485   3.559   3.320   3.397
 6493TIP3    H219486   3.516   3.412   3.510
 6494TIP3   OH219487   1.548   3.437   4.833
 6494TIP3    H119488   1.629   3.405   4.794
 6494TIP3    H219489   1.530   3.375   4.904
 6495TIP3   OH219490   5.039   4.759   0.986
 6495TIP3    H119491   4.991   4.825   0.936
 6495TIP3    H219492   5.107   4.808   1.031
 6496TIP3   OH219493   5.310   0.639   3.469
 6496TIP3    H119494   5.247   0.663   3.401
 6496TIP3    H219495   5.389   0.688   3.448
 6497TIP3   OH219496   5.729   1.378   0.470
 6497TIP3    H119497   5.731   1.432   0.549
 6497TIP3    H219498   5.804   1.409   0.419
 6498TIP3   OH219499   2.637   4.258   0.747
 6498TIP3    H119500   2.590   4.342   0.746
 6498TIP3    H219501   2.581   4.198   0.697
 6499TIP3   OH219502   1.904   0.994   4.175
 6499TIP3    H119503   1.884   1.052   4.249
 6499TIP3    H219504   1.973   0.937   4.207
 6500TIP3   OH219505   2.329   3.800   2.061
 6500TIP3    H119506   2.412   3.796   2.108
 6500TIP3    H219507   2.343   3.747   1.983
 6501TIP3   OH219508   0.711   4.734   2.174
 6501TIP3    H119509   0.710   4.685   2.256
 6501TIP3    H219510   0.767   4.683   2.116
 6502TIP3   OH219511   5.667   2.605   0.470
 6502TIP3    H119512   5.743   2.631   0.418
 6502TIP3    H219513   5.593   2.610   0.410
 6503TIP3   OH219514   2.159   0.809   4.132
 6503TIP3    H119515   2.211   0.819   4.212
 6503TIP3    H219516   2.223   0.805   4.062
 6504TIP3   OH219517   2.095   4.726   1.210
 6504TIP3    H119518   2.054   4.643   1.188
 6504TIP3    H219519   2.100   4.727   1.305
 6505TIP3   OH219520   3.245   4.745   0.886
 6505TIP3    H119521   3.338   4.758   0.868
 6505TIP3    H219522   3.242   4.704   0.973
 6506TIP3   OH219523   0.055   2.602   3.175
 6506TIP3    H119524   0.130   2.597   3.234
 6506TIP3    H219525   0.009   2.519   3.187
 6507TIP3   OH219526   3.597   3.712   1.851
 6507TIP3    H119527   3.546   3.739   1.774
 6507TIP3    H219528   3.613   3.618   1.837
 6508TIP3   OH219529   2.286   0.950   3.092
 6508TIP3    H119530   2.244   1.026   3.133
 6508TIP3    H219531   2.371   0.984   3.062
 6509TIP3   OH219532   6.304   0.635   0.696
 6509TIP3    H119533   6.366   0.608   0.628
 6509TIP3    H219534   6.227   0.580   0.682
 6510TIP3   OH219535   3.502   1.605   0.663
 6510TIP3    H119536   3.496   1.509   0.667
 6510TIP3    H219537   3.411   1.634   0.653
 6511TIP3   OH219538   4.319   4.971   1.316
 6511TIP3    H119539   4.256   5.034   1.351
 6511TIP3    H219540   4.335   4.911   1.389
 6512TIP3   OH219541   3.225   1.819   3.998
 6512TIP3    H119542   3.289   1.748   3.995
 6512TIP3    H219543   3.255   1.876   4.069
 6513TIP3   OH219544   3.246   0.571   4.754
 6513TIP3    H119545   3.249   0.522   4.672
 6513TIP3    H219546   3.336   0.572   4.785
 6514TIP3   OH219547   4.793   4.776   3.158
 6514TIP3    H119548   4.856   4.814   3.098
 6514TIP3    H219549   4.803   4.681   3.147
 6515TIP3   OH219550   4.900   1.472   1.317
 6515TIP3    H119551   4.807   1.466   1.336
 6515TIP3    H219552   4.920   1.565   1.322
 6516TIP3   OH219553   3.382   3.379   0.659
 6516TIP3    H119554   3.383   3.340   0.571
 6516TIP3    H219555   3.419   3.466   0.647
 6517TIP3   OH219556   6.127   0.680   2.087
 6517TIP3    H119557   6.068   0.669   2.013
 6517TIP3    H219558   6.199   0.618   2.069
 6518TIP3   OH219559   6.030   3.351   4.868
 6518TIP3    H119560   6.108   3.364   4.815
 6518TIP3    H219561   6.059   3.296   4.941
 6519TIP3   OH219562   5.936   0.299   1.749
 6519TIP3    H119563   5.860   0.331   1.702
 6519TIP3    H219564   5.996   0.267   1.681
 6520TIP3   OH219565   2.246   4.587   2.785
 6520TIP3    H119566   2.329   4.627   2.809
 6520TIP3    H219567   2.271   4.503   2.747
 6521TIP3   OH219568   3.007   2.591   0.489
 6521TIP3    H119569   3.089   2.623   0.527
 6521TIP3    H219570   3.030   2.567   0.399
 6522TIP3   OH219571   4.334   2.728   1.317
 6522TIP3    H119572   4.364   2.802   1.369
 6522TIP3    H219573   4.361   2.651   1.366
 6523TIP3   OH219574   4.006   3.544   4.771
 6523TIP3    H119575   3.979   3.495   4.848
 6523TIP3    H219576   3.933   3.603   4.753
 6524TIP3   OH219577   2.418   0.991   1.344
 6524TIP3    H119578   2.341   1.047   1.348
 6524TIP3    H219579   2.461   1.004   1.428
 6525TIP3   OH219580   0.888   1.355   0.375
 6525TIP3    H119581   0.966   1.308   0.401
 6525TIP3    H219582   0.869   1.324   0.286
 6526TIP3   OH219583   0.965   1.988   4.642
 6526TIP3    H119584   1.003   2.071   4.670
 6526TIP3    H219585   1.011   1.922   4.694
 6527TIP3   OH219586   1.456   4.812   1.298
 6527TIP3    H119587   1.437   4.898   1.336
 6527TIP3    H219588   1.394   4.803   1.226
 6528TIP3   OH219589   5.178   1.635   0.973
 6528TIP3    H119590   5.093   1.597   0.996
 6528TIP3    H219591   5.221   1.650   1.057
 6529TIP3   OH219592   1.833   1.487   1.059
 6529TIP3    H119593   1.838   1.444   0.974
 6529TIP3    H219594   1.770   1.557   1.046
 6530TIP3   OH219595   5.969   3.079   0.673
 6530TIP3    H119596   5.911   3.008   0.646
 6530TIP3    H219597   6.034   3.037   0.729
 6531TIP3   OH219598   1.066   1.771   4.784
 6531TIP3    H119599   1.149   1.729   4.806
 6531TIP3    H219600   1.012   1.760   4.863
 6532TIP3   OH219601   1.870   4.469   3.397
 6532TIP3    H119602   1.930   4.404   3.361
 6532TIP3    H219603   1.909   4.494   3.481
 6533TIP3   OH219604   1.320   1.624   1.489
 6533TIP3    H119605   1.399   1.620   1.435
 6533TIP3    H219606   1.304   1.533   1.515
 6534TIP3   OH219607   0.975   1.631   0.295
 6534TIP3    H119608   1.025   1.632   0.376
 6534TIP3    H219609   0.901   1.573   0.313
 6535TIP3   OH219610   5.559  -0.015   3.232
 6535TIP3    H119611   5.500   0.007   3.160
 6535TIP3    H219612   5.640   0.032   3.213
 6536TIP3   OH219613   3.098   5.460   4.643
 6536TIP3    H119614   3.041   5.532   4.615
 6536TIP3    H219615   3.094   5.396   4.572
 6537TIP3   OH219616   4.218   0.930   3.922
 6537TIP3    H119617   4.214   0.875   3.844
 6537TIP3    H219618   4.199   1.018   3.889
 6538TIP3   OH219619   1.901   1.389   1.500
 6538TIP3    H119620   1.826   1.399   1.558
 6538TIP3    H219621   1.975   1.373   1.558
 6539TIP3   OH219622   2.187   1.912   4.505
 6539TIP3    H119623   2.120   1.951   4.561
 6539TIP3    H219624   2.163   1.819   4.499
 6540TIP3   OH219625   6.319   0.433   0.276
 6540TIP3    H119626   6.261   0.376   0.327
 6540TIP3    H219627   6.306   0.520   0.312
 6541TIP3   OH219628   5.528   5.729   1.462
 6541TIP3    H119629   5.477   5.677   1.400
 6541TIP3    H219630   5.516   5.820   1.433
 6542TIP3   OH219631   2.660   3.894   3.184
 6542TIP3    H119632   2.631   3.887   3.275
 6542TIP3    H219633   2.722   3.822   3.172
 6543TIP3   OH219634   3.390   4.291   2.499
 6543TIP3    H119635   3.310   4.329   2.464
 6543TIP3    H219636   3.392   4.202   2.464
 6544TIP3   OH219637   1.254   2.280   1.172
 6544TIP3    H119638   1.224   2.232   1.249
 6544TIP3    H219639   1.173   2.310   1.130
 6545TIP3   OH219640   2.309   3.957   4.390
 6545TIP3    H119641   2.242   3.979   4.455
 6545TIP3    H219642   2.350   4.041   4.368
 6546TIP3   OH219643   1.091   1.731   1.167
 6546TIP3    H119644   1.012   1.771   1.131
 6546TIP3    H219645   1.163   1.786   1.134
 6547TIP3   OH219646   5.029   1.163   4.202
 6547TIP3    H119647   5.118   1.135   4.220
 6547TIP3    H219648   4.976   1.084   4.213
 6548TIP3   OH219649   0.708   1.695   0.674
 6548TIP3    H119650   0.651   1.649   0.612
 6548TIP3    H219651   0.777   1.733   0.620
 6549TIP3   OH219652   6.276   1.897   4.112
 6549TIP3    H119653   6.302   1.857   4.029
 6549TIP3    H219654   6.205   1.842   4.144
 6550TIP3   OH219655   2.200   4.479   1.619
 6550TIP3    H119656   2.182   4.433   1.700
 6550TIP3    H219657   2.136   4.551   1.618
 6551TIP3   OH219658   1.175   2.040   0.468
 6551TIP3    H119659   1.152   1.988   0.545
 6551TIP3    H219660   1.249   1.994   0.429
 6552TIP3   OH219661   0.266   5.344   2.536
 6552TIP3    H119662   0.228   5.407   2.475
 6552TIP3    H219663   0.312   5.398   2.601
 6553TIP3   OH219664   3.239   2.749   0.611
 6553TIP3    H119665   3.311   2.758   0.549
 6553TIP3    H219666   3.202   2.838   0.618
 6554TIP3   OH219667   3.030   2.767   3.807
 6554TIP3    H119668   2.982   2.741   3.885
 6554TIP3    H219669   2.967   2.817   3.755
 6555TIP3   OH219670   0.495   1.641   4.625
 6555TIP3    H119671   0.435   1.678   4.559
 6555TIP3    H219672   0.571   1.612   4.574
 6556TIP3   OH219673   1.596   0.782   3.775
 6556TIP3    H119674   1.649   0.824   3.843
 6556TIP3    H219675   1.509   0.774   3.814
 6557TIP3   OH219676   2.477   5.833   4.115
 6557TIP3    H119677   2.546   5.876   4.165
 6557TIP3    H219678   2.395   5.864   4.153
 6558TIP3   OH219679   1.791   1.737   3.924
 6558TIP3    H119680   1.757   1.764   4.010
 6558TIP3    H219681   1.877   1.778   3.918
 6559TIP3   OH219682   3.207   4.309   3.638
 6559TIP3    H119683   3.256   4.308   3.556
 6559TIP3    H219684   3.272   4.287   3.705
 6560TIP3   OH219685   1.497   2.538   2.952
 6560TIP3    H119686   1.467   2.498   3.034
 6560TIP3    H219687   1.420   2.541   2.896
 6561TIP3   OH219688   4.642   0.486   1.128
 6561TIP3    H119689   4.707   0.436   1.179
 6561TIP3    H219690   4.560   0.439   1.142
 6562TIP3   OH219691   6.211   4.373   2.620
 6562TIP3    H119692   6.159   4.311   2.569
 6562TIP3    H219693   6.221   4.332   2.706
 6563TIP3   OH219694   2.989   1.757   2.849
 6563TIP3    H119695   2.953   1.727   2.933
 6563TIP3    H219696   2.912   1.761   2.791
 6564TIP3   OH219697   0.277   4.886   2.632
 6564TIP3    H119698   0.269   4.957   2.568
 6564TIP3    H219699   0.189   4.878   2.670
 6565TIP3   OH219700   0.761   2.443   0.268
 6565TIP3    H119701   0.749   2.529   0.308
 6565TIP3    H219702   0.817   2.395   0.329
 6566TIP3   OH219703   4.838   1.536   0.130
 6566TIP3    H119704   4.775   1.493   0.072
 6566TIP3    H219705   4.874   1.465   0.183
 6567TIP3   OH219706   3.307   4.774   3.865
 6567TIP3    H119707   3.250   4.840   3.906
 6567TIP3    H219708   3.307   4.700   3.926
 6568TIP3   OH219709   1.343   4.091   3.455
 6568TIP3    H119710   1.280   4.093   3.527
 6568TIP3    H219711   1.334   4.176   3.413
 6569TIP3   OH219712   5.350   0.927   1.986
 6569TIP3    H119713   5.274   0.894   2.032
 6569TIP3    H219714   5.388   0.851   1.944
 6570TIP3   OH219715   5.492   4.054   1.288
 6570TIP3    H119716   5.403   4.022   1.275
 6570TIP3    H219717   5.502   4.125   1.225
 6571TIP3   OH219718   1.310   1.473   1.936
 6571TIP3    H119719   1.382   1.419   1.904
 6571TIP3    H219720   1.236   1.413   1.941
 6572TIP3   OH219721   5.461   2.372   1.471
 6572TIP3    H119722   5.528   2.313   1.437
 6572TIP3    H219723   5.500   2.459   1.465
 6573TIP3   OH219724   4.064   2.897   5.142
 6573TIP3    H119725   4.097   2.811   5.115
 6573TIP3    H219726   4.132   2.958   5.113
 6574TIP3   OH219727   2.033   2.417   2.629
 6574TIP3    H119728   2.084   2.340   2.653
 6574TIP3    H219729   2.011   2.403   2.537
 6575TIP3   OH219730   0.148   1.326   3.446
 6575TIP3    H119731   0.234   1.293   3.470
 6575TIP3    H219732   0.139   1.305   3.353
 6576TIP3   OH219733   1.515   3.216   2.292
 6576TIP3    H119734   1.570   3.249   2.221
 6576TIP3    H219735   1.558   3.246   2.372
 6577TIP3   OH219736   6.256   3.035   0.820
 6577TIP3    H119737   6.182   3.020   0.880
 6577TIP3    H219738   6.330   2.990   0.862
 6578TIP3   OH219739   0.927   0.227   0.679
 6578TIP3    H119740   0.924   0.155   0.741
 6578TIP3    H219741   0.961   0.188   0.598
 6579TIP3   OH219742   0.678   0.105   3.336
 6579TIP3    H119743   0.587   0.106   3.307
 6579TIP3    H219744   0.723   0.053   3.270
 6580TIP3   OH219745   2.772   3.476   4.467
 6580TIP3    H119746   2.779   3.382   4.455
 6580TIP3    H219747   2.682   3.490   4.498
 6581TIP3   OH219748   5.958   5.469   3.669
 6581TIP3    H119749   5.869   5.446   3.695
 6581TIP3    H219750   6.010   5.392   3.691
 6582TIP3   OH219751   4.534   5.444   3.128
 6582TIP3    H119752   4.628   5.424   3.130
 6582TIP3    H219753   4.494   5.379   3.185
 6583TIP3   OH219754   5.869   3.902   1.905
 6583TIP3    H119755   5.823   3.913   1.821
 6583TIP3    H219756   5.804   3.927   1.971
 6584TIP3   OH219757   4.063   5.774   4.686
 6584TIP3    H119758   3.986   5.724   4.712
 6584TIP3    H219759   4.133   5.742   4.744
 6585TIP3   OH219760   2.549   0.795   4.553
 6585TIP3    H119761   2.625   0.852   4.565
 6585TIP3    H219762   2.515   0.782   4.642
 6586TIP3   OH219763   1.233   4.333   3.297
 6586TIP3    H119764   1.308   4.293   3.253
 6586TIP3    H219765   1.257   4.425   3.307
 6587TIP3   OH219766   4.756   1.722   0.833
 6587TIP3    H119767   4.804   1.668   0.770
 6587TIP3    H219768   4.666   1.723   0.799
 6588TIP3   OH219769   1.304   5.719   1.381
 6588TIP3    H119770   1.221   5.710   1.333
 6588TIP3    H219771   1.279   5.717   1.473
 6589TIP3   OH219772   4.423   5.247   2.508
 6589TIP3    H119773   4.381   5.183   2.566
 6589TIP3    H219774   4.445   5.320   2.566
 6590TIP3   OH219775   2.216   4.030   3.407
 6590TIP3    H119776   2.288   4.093   3.416
 6590TIP3    H219777   2.250   3.950   3.448
 6591TIP3   OH219778   3.247   1.533   0.376
 6591TIP3    H119779   3.268   1.626   0.369
 6591TIP3    H219780   3.330   1.488   0.361
 6592TIP3   OH219781   3.009   4.366  -0.001
 6592TIP3    H119782   3.098   4.355   0.032
 6592TIP3    H219783   3.000   4.460  -0.017
 6593TIP3   OH219784   4.562   1.549   4.187
 6593TIP3    H119785   4.542   1.609   4.114
 6593TIP3    H219786   4.480   1.502   4.201
 6594TIP3   OH219787   0.938   3.277   2.245
 6594TIP3    H119788   0.937   3.183   2.263
 6594TIP3    H219789   1.005   3.312   2.304
 6595TIP3   OH219790   4.382   4.395   4.541
 6595TIP3    H119791   4.444   4.332   4.578
 6595TIP3    H219792   4.391   4.473   4.596
 6596TIP3   OH219793   1.140   1.390   1.568
 6596TIP3    H119794   1.118   1.438   1.488
 6596TIP3    H219795   1.058   1.390   1.619
 6597TIP3   OH219796   6.139   1.569   5.116
 6597TIP3    H119797   6.198   1.589   5.189
 6597TIP3    H219798   6.051   1.590   5.151
 6598TIP3   OH219799   1.887   3.810   4.580
 6598TIP3    H119800   1.936   3.784   4.502
 6598TIP3    H219801   1.875   3.905   4.571
 6599TIP3   OH219802   2.233   3.520   4.698
 6599TIP3    H119803   2.210   3.578   4.625
 6599TIP3    H219804   2.169   3.540   4.766
 6600TIP3   OH219805   1.356   3.197   0.688
 6600TIP3    H119806   1.388   3.152   0.766
 6600TIP3    H219807   1.403   3.280   0.687
 6601TIP3   OH219808   6.192   1.410   4.862
 6601TIP3    H119809   6.201   1.476   4.930
 6601TIP3    H219810   6.191   1.327   4.910
 6602TIP3   OH219811   2.350   5.139   4.877
 6602TIP3    H119812   2.401   5.146   4.796
 6602TIP3    H219813   2.416   5.124   4.945
 6603TIP3   OH219814   1.082   1.523   1.337
 6603TIP3    H119815   1.027   1.543   1.261
 6603TIP3    H219816   1.150   1.590   1.337
 6604TIP3   OH219817   3.725   1.455   0.396
 6604TIP3    H119818   3.699   1.433   0.485
 6604TIP3    H219819   3.815   1.424   0.388
 6605TIP3   OH219820   3.445   3.429   1.724
 6605TIP3    H119821   3.461   3.338   1.751
 6605TIP3    H219822   3.366   3.454   1.772
 6606TIP3   OH219823   0.137   1.763   3.198
 6606TIP3    H119824   0.180   1.692   3.246
 6606TIP3    H219825   0.044   1.753   3.219
 6607TIP3   OH219826   4.263   5.956   0.310
 6607TIP3    H119827   4.298   6.041   0.284
 6607TIP3    H219828   4.235   5.915   0.228
 6608TIP3   OH219829   4.115   2.150   0.024
 6608TIP3    H119830   4.154   2.225   0.068
 6608TIP3    H219831   4.127   2.077   0.085
 6609TIP3   OH219832   5.421   3.602   1.614
 6609TIP3    H119833   5.507   3.569   1.641
 6609TIP3    H219834   5.432   3.697   1.612
 6610TIP3   OH219835   2.243   4.406   1.089
 6610TIP3    H119836   2.227   4.423   1.182
 6610TIP3    H219837   2.337   4.422   1.077
 6611TIP3   OH219838   4.279   3.619   3.707
 6611TIP3    H119839   4.202   3.668   3.738
 6611TIP3    H219840   4.279   3.539   3.759
 6612TIP3   OH219841   0.038   4.435   0.366
 6612TIP3    H119842   0.067   4.354   0.325
 6612TIP3    H219843   0.118   4.481   0.390
 6613TIP3   OH219844   2.505   1.507   2.910
 6613TIP3    H119845   2.487   1.479   2.821
 6613TIP3    H219846   2.422   1.497   2.957
 6614TIP3   OH219847   3.604   5.831   3.424
 6614TIP3    H119848   3.699   5.821   3.428
 6614TIP3    H219849   3.585   5.835   3.330
 6615TIP3   OH219850   1.400   3.329   4.598
 6615TIP3    H119851   1.308   3.349   4.615
 6615TIP3    H219852   1.448   3.373   4.668
 6616TIP3   OH219853   6.295   0.479   1.102
 6616TIP3    H119854   6.231   0.481   1.030
 6616TIP3    H219855   6.345   0.399   1.087
 6617TIP3   OH219856   2.565   0.125   3.466
 6617TIP3    H119857   2.655   0.121   3.499
 6617TIP3    H219858   2.511   0.103   3.542
 6618TIP3   OH219859   4.468   5.081   0.371
 6618TIP3    H119860   4.556   5.109   0.396
 6618TIP3    H219861   4.482   4.999   0.324
 6619TIP3   OH219862   1.421   4.257   0.917
 6619TIP3    H119863   1.509   4.219   0.919
 6619TIP3    H219864   1.419   4.309   0.837
 6620TIP3   OH219865   1.182   1.707   4.534
 6620TIP3    H119866   1.125   1.699   4.610
 6620TIP3    H219867   1.177   1.622   4.491
 6621TIP3   OH219868   4.922   2.298   4.135
 6621TIP3    H119869   4.961   2.284   4.049
 6621TIP3    H219870   4.914   2.393   4.144
 6622TIP3   OH219871   5.289   3.153   0.259
 6622TIP3    H119872   5.238   3.170   0.180
 6622TIP3    H219873   5.301   3.058   0.261
 6623TIP3   OH219874   3.802   1.647   3.911
 6623TIP3    H119875   3.843   1.609   3.833
 6623TIP3    H219876   3.733   1.585   3.933
 6624TIP3   OH219877   2.450   0.682   4.098
 6624TIP3    H119878   2.432   0.724   4.014
 6624TIP3    H219879   2.446   0.588   4.079
 6625TIP3   OH219880   3.966   5.238   3.328
 6625TIP3    H119881   3.942   5.255   3.419
 6625TIP3    H219882   3.905   5.291   3.277
 6626TIP3   OH219883   1.985   1.141   3.047
 6626TIP3    H119884   2.064   1.144   3.100
 6626TIP3    H219885   1.922   1.194   3.096
 6627TIP3   OH219886   1.011   3.108   1.918
 6627TIP3    H119887   0.990   3.030   1.969
 6627TIP3    H219888   1.106   3.107   1.910
 6628TIP3   OH219889   2.501   1.606   3.901
 6628TIP3    H119890   2.520   1.699   3.887
 6628TIP3    H219891   2.561   1.560   3.843
 6629TIP3   OH219892   1.951   3.328   1.660
 6629TIP3    H119893   1.955   3.326   1.564
 6629TIP3    H219894   2.042   3.337   1.688
 6630TIP3   OH219895   2.295   1.421   3.705
 6630TIP3    H119896   2.293   1.411   3.801
 6630TIP3    H219897   2.379   1.463   3.687
 6631TIP3   OH219898   0.493   0.618   1.364
 6631TIP3    H119899   0.537   0.578   1.440
 6631TIP3    H219900   0.454   0.544   1.317
 6632TIP3   OH219901   4.831   3.692   2.346
 6632TIP3    H119902   4.751   3.725   2.386
 6632TIP3    H219903   4.896   3.760   2.363
 6633TIP3   OH219904   5.249   4.205   0.802
 6633TIP3    H119905   5.165   4.228   0.841
 6633TIP3    H219906   5.251   4.110   0.802
 6634TIP3   OH219907   4.621   4.467   1.439
 6634TIP3    H119908   4.591   4.553   1.467
 6634TIP3    H219909   4.679   4.485   1.365
 6635TIP3   OH219910   1.573   1.510   4.778
 6635TIP3    H119911   1.570   1.606   4.770
 6635TIP3    H219912   1.664   1.491   4.801
 6636TIP3   OH219913   3.148   4.695   4.895
 6636TIP3    H119914   3.184   4.696   4.806
 6636TIP3    H219915   3.184   4.774   4.936
 6637TIP3   OH219916   1.892   1.217   4.849
 6637TIP3    H119917   1.986   1.209   4.832
 6637TIP3    H219918   1.851   1.154   4.790
 6638TIP3   OH219919   4.612   5.340   4.354
 6638TIP3    H119920   4.576   5.402   4.417
 6638TIP3    H219921   4.707   5.351   4.361
 6639TIP3   OH219922   3.717   4.800   3.005
 6639TIP3    H119923   3.681   4.881   3.040
 6639TIP3    H219924   3.640   4.744   2.990
 6640TIP3   OH219925   4.499   2.993   1.025
 6640TIP3    H119926   4.449   2.936   1.083
 6640TIP3    H219927   4.577   3.016   1.075
   6.34668   5.98370   5.18204   0.00000   0.00000  -2.11556   0.00000  -2.11556  -2.99186
