Title
19927
    1ASP      N    1   2.040   3.111   1.461 -0.2366  0.1121  0.8899
    1ASP    HT1    2   1.979   3.188   1.426 -0.5631 -0.4469  0.2114
    1ASP    HT2    3   2.044   3.038   1.387 -2.7251  0.0001  0.7754
    1ASP    HT3    4   2.132   3.159   1.466  0.1830 -0.4555 -0.8890
    1ASP     CA    5   2.013   3.058   1.595 -0.0998  0.1906  0.1589
    1ASP     HA    6   2.081   2.976   1.614  1.6373  1.2275 -1.2599
    1ASP     CB    7   2.022   3.166   1.702 -0.0336 -0.0135  0.5392
    1ASP    HB1    8   1.974   3.128   1.795  0.9330  0.2230  1.1566
    1ASP    HB2    9   1.965   3.256   1.669  0.4891 -0.3609 -1.4195
    1ASP     CG   10   2.168   3.196   1.734  0.3219 -0.0570  0.6475
    1ASP    OD1   11   2.250   3.108   1.697 -0.1433 -0.5273  0.0790
    1ASP    OD2   12   2.201   3.295   1.809 -0.1179  0.1448  0.8576
    1ASP      C   13   1.873   2.993   1.595 -0.1928 -0.8530 -0.6499
    1ASP      O   14   1.777   3.050   1.540 -0.0785  0.6355  0.2330
    2ALA      N   15   1.868   2.870   1.656 -0.4714 -0.0073  0.4738
    2ALA     HN   16   1.949   2.827   1.694 -0.1136  1.1726  1.1102
    2ALA     CA   17   1.758   2.782   1.654  0.6758 -0.5087 -0.0596
    2ALA     HA   18   1.718   2.773   1.554 -1.7583  1.0205  0.6901
    2ALA     CB   19   1.813   2.643   1.678  0.3133 -0.1824 -0.3941
    2ALA    HB1   20   1.746   2.558   1.655 -0.4735  0.3854 -0.2306
    2ALA    HB2   21   1.839   2.633   1.786 -1.4772 -2.6213 -0.1183
    2ALA    HB3   22   1.905   2.639   1.616 -0.5903  2.3083 -2.0409
    2ALA      C   23   1.634   2.812   1.739 -0.1279  0.8567  0.2496
    2ALA      O   24   1.638   2.849   1.852 -0.5017 -0.1997 -0.2009
    3ASP      N   25   1.513   2.794   1.674  0.0933 -0.4257 -0.7704
    3ASP     HN   26   1.506   2.757   1.582 -0.2410 -0.0423 -0.9050
    3ASP     CA   27   1.383   2.787   1.740 -0.0450 -0.1979 -0.5908
    3ASP     HA   28   1.382   2.889   1.776  0.8553 -0.3804 -0.0150
    3ASP     CB   29   1.263   2.752   1.650  0.0509 -0.9731  0.6800
    3ASP    HB1   30   1.166   2.759   1.704  0.0963  0.1273  0.6523
    3ASP    HB2   31   1.283   2.653   1.605 -0.6446 -1.1642  0.7750
    3ASP     CG   32   1.261   2.863   1.543  0.1278  0.6414  0.7345
    3ASP    OD1   33   1.251   2.986   1.576 -0.3752 -0.3684  1.0378
    3ASP    OD2   34   1.243   2.824   1.424  0.2351  0.1374 -0.6461
    3ASP      C   35   1.383   2.698   1.866 -0.6068 -0.6621 -0.7306
    3ASP      O   36   1.451   2.598   1.873 -0.2090  0.1865 -0.3132
    4GLY      N   37   1.289   2.737   1.958  0.7710  0.1893 -1.1596
    4GLY     HN   38   1.233   2.817   1.943  0.3282  0.1252  0.0993
    4GLY     CA   39   1.253   2.653   2.070 -0.0347  0.4641  0.1518
    4GLY    HA1   40   1.175   2.697   2.131 -1.4700 -2.2825  0.4269
    4GLY    HA2   41   1.346   2.631   2.120 -1.1324  0.3201  2.2372
    4GLY      C   42   1.196   2.511   2.038  0.2645  0.4311 -0.4351
    4GLY      O   43   1.203   2.457   1.926 -0.3509  0.1610 -0.1293
    5PRO      N   44   1.135   2.440   2.126 -0.6083  0.4019 -0.8770
    5PRO     CD   45   1.140   2.473   2.269  0.1003  0.0115 -0.2732
    5PRO    HD1   46   1.076   2.560   2.295 -0.8876 -0.3096 -1.5342
    5PRO    HD2   47   1.242   2.495   2.307  0.1238 -2.2452  1.1723
    5PRO     CA   48   1.075   2.307   2.120 -0.4378 -0.7565  0.0245
    5PRO     HA   49   1.161   2.242   2.127  1.3203  1.5202  0.9662
    5PRO     CB   50   0.988   2.291   2.243  0.1658 -0.3132 -0.5357
    5PRO    HB1   51   0.957   2.185   2.258 -0.1841 -0.4880 -2.2423
    5PRO    HB2   52   0.899   2.358   2.240 -0.8773 -1.6546 -0.5970
    5PRO     CG   53   1.082   2.355   2.347  0.9605 -1.0772  0.0330
    5PRO    HG1   54   1.029   2.371   2.443  0.9554  0.9352 -0.2716
    5PRO    HG2   55   1.171   2.291   2.370  1.6617  0.2531  1.1849
    5PRO      C   56   1.001   2.261   1.992 -0.4707 -0.5473 -0.1500
    5PRO      O   57   0.940   2.341   1.920 -0.0479 -0.2278 -0.9997
    6GLY      N   58   1.023   2.133   1.968 -0.1570  0.1627  0.8681
    6GLY     HN   59   1.080   2.074   2.024 -0.4765 -0.1575  0.8572
    6GLY     CA   60   0.977   2.067   1.848  0.5473  0.1451  0.0551
    6GLY    HA1   61   1.047   1.985   1.833 -1.8589 -1.8610 -0.9556
    6GLY    HA2   62   0.988   2.147   1.776 -1.1713  1.3948  1.1137
    6GLY      C   63   0.834   2.010   1.845  0.4282  0.1517  0.5408
    6GLY      O   64   0.753   2.051   1.929  0.4328 -0.2293 -0.3998
    7ASP      N   65   0.809   1.925   1.743  0.1194 -0.4971 -0.8603
    7ASP     HN   66   0.872   1.909   1.667  0.3275 -2.7708 -0.3067
    7ASP     CA   67   0.688   1.850   1.722 -0.0831  0.3126 -0.3209
    7ASP     HA   68   0.600   1.910   1.704 -0.2085  0.3011  0.2352
    7ASP     CB   69   0.715   1.746   1.604 -0.2932  0.4033 -0.3913
    7ASP    HB1   70   0.638   1.667   1.612 -0.6793  0.7724 -0.4288
    7ASP    HB2   71   0.823   1.720   1.614  0.4889  2.1413 -3.1575
    7ASP     CG   72   0.702   1.807   1.464 -0.4626 -0.1288 -0.8585
    7ASP    OD1   73   0.658   1.926   1.453 -0.4317  0.1092  0.2272
    7ASP    OD2   74   0.742   1.739   1.368  0.2277  0.2958  0.4877
    7ASP      C   75   0.665   1.767   1.848  0.3120 -0.0559  0.3922
    7ASP      O   76   0.771   1.737   1.897  1.4613 -0.0446 -0.2186
    8PRO      N   77   0.553   1.724   1.898  0.3507 -0.0867  0.2782
    8PRO     CD   78   0.422   1.771   1.856  0.4387 -0.2934  0.1905
    8PRO    HD1   79   0.404   1.737   1.752  0.3367 -0.2534  0.1954
    8PRO    HD2   80   0.410   1.880   1.875  0.0758 -0.3347  0.1880
    8PRO     CA   81   0.544   1.602   1.978  0.5679 -0.2774  0.1867
    8PRO     HA   82   0.574   1.620   2.080  1.2743 -1.3312  0.1791
    8PRO     CB   83   0.395   1.563   1.969 -0.0051  0.2515 -0.4618
    8PRO    HB1   84   0.366   1.499   2.055  2.7267 -0.4211  0.0507
    8PRO    HB2   85   0.389   1.511   1.870 -1.7512  0.6500 -0.5947
    8PRO     CG   86   0.328   1.699   1.955 -0.3308 -0.6413  0.3659
    8PRO    HG1   87   0.229   1.668   1.915  0.6775 -4.7078  0.5693
    8PRO    HG2   88   0.317   1.750   2.053 -0.1644  1.8965 -0.8611
    8PRO      C   89   0.641   1.481   1.957  0.0456  0.2603 -0.7176
    8PRO      O   90   0.648   1.436   1.846 -0.8977  0.0899 -0.2880
    9ASP      N   91   0.707   1.421   2.062 -0.1183 -0.8316  0.5656
    9ASP     HN   92   0.714   1.464   2.151  2.9874  1.5353 -0.6041
    9ASP     CA   93   0.808   1.320   2.042  0.3772  0.5443 -0.3270
    9ASP     HA   94   0.844   1.326   1.941 -0.9024  1.9575 -0.7394
    9ASP     CB   95   0.917   1.324   2.148  0.7328  0.8711  0.2504
    9ASP    HB1   96   0.988   1.239   2.139  0.3616  0.4877  0.8361
    9ASP    HB2   97   0.878   1.311   2.251  0.1839  1.1022  0.0750
    9ASP     CG   98   0.995   1.456   2.143 -0.3257 -0.0351  0.3978
    9ASP    OD1   99   1.018   1.525   2.249 -0.1593  0.2187  0.1292
    9ASP    OD2  100   1.042   1.485   2.032 -0.1231 -0.4974 -0.2749
    9ASP      C  101   0.746   1.179   2.031  0.6440 -0.0067  0.2410
    9ASP      O  102   0.624   1.156   2.022  0.0652  0.1272 -0.0033
   10ALA      N  103   0.829   1.080   2.018 -0.2574 -0.3252  0.1205
   10ALA     HN  104   0.925   1.088   1.996 -0.6197  2.2589 -0.8432
   10ALA     CA  105   0.779   0.944   1.994  0.3146  0.1637  0.2157
   10ALA     HA  106   0.687   0.944   1.937  1.8165  0.3236 -2.3967
   10ALA     CB  107   0.871   0.879   1.890  0.1518 -0.5751 -0.1512
   10ALA    HB1  108   0.967   0.846   1.936  0.1101 -0.7608 -0.1968
   10ALA    HB2  109   0.882   0.946   1.802  1.3919  1.0678  1.1784
   10ALA    HB3  110   0.823   0.790   1.846 -1.8563  1.1847 -1.7238
   10ALA      C  111   0.750   0.857   2.120 -0.2676  0.4926  0.0393
   10ALA      O  112   0.707   0.742   2.110  0.1062  0.0819 -0.2980
   11GLY      N  113   0.773   0.905   2.245  0.1858 -0.4493  0.0441
   11GLY     HN  114   0.826   0.989   2.257 -1.0057  0.5425 -1.3620
   11GLY     CA  115   0.718   0.838   2.363 -0.1741 -0.0485  0.0800
   11GLY    HA1  116   0.769   0.883   2.448 -0.4814 -1.1513  0.8671
   11GLY    HA2  117   0.729   0.731   2.354  0.5725 -0.0836  1.1515
   11GLY      C  118   0.575   0.869   2.397  0.3582  0.0225  0.7703
   11GLY    OT1  119   0.556   0.989   2.440 -1.1737  0.1970  0.1957
   11GLY    OT2  120   0.484   0.785   2.383 -0.1979 -0.1885  0.0294
   12SOD    SOD  121   2.947   1.779   0.381 -0.0012  0.0161 -0.0839
   13SOD    SOD  122   4.839   2.731   3.344  0.2296  0.0896 -0.3640
   14SOD    SOD  123   1.123   0.243   0.505 -0.1155  0.0939  0.0271
   15SOD    SOD  124   4.431   0.894   4.076  0.3815 -0.1098  0.1038
   16SOD    SOD  125   1.613   3.205   2.667  0.3493 -0.0692 -0.0197
   17SOD    SOD  126   4.212   1.841   5.124 -0.3320 -0.1900  0.2201
   18SOD    SOD  127   3.515   4.540   1.300  0.3107 -0.0477  0.0274
   19SOD    SOD  128   3.448   5.296   2.972 -0.4499 -0.1768  0.1862
   20SOD    SOD  129   1.174   4.208   1.488 -0.5781 -0.0215  0.1083
   21SOD    SOD  130   4.179   4.122   4.454  0.0193 -0.2549 -0.1970
   22SOD    SOD  131   1.370   2.632   4.111  0.4420 -0.4010  0.3517
   23SOD    SOD  132   0.770   4.121   2.318  0.2067 -0.4500  0.0104
   24SOD    SOD  133   2.354   3.585   2.833  0.0873  0.2397  0.0517
   25SOD    SOD  134   3.028   5.644   1.809  0.5200 -0.6205 -0.3121
   26SOD    SOD  135   2.435   1.066   1.990  0.4809 -0.1074 -0.1186
   27SOD    SOD  136   3.056   2.538   1.786  0.1740 -0.4743  0.1109
   28SOD    SOD  137   6.137   4.995   4.698 -0.0302  0.0606 -0.1809
   29SOD    SOD  138   0.817   2.126   0.959 -0.0773 -0.3445 -0.2233
   30SOD    SOD  139   0.185   2.000   4.322 -0.2952 -0.1176 -0.4693
   31SOD    SOD  140   5.715   4.713   4.338  0.0075  0.2378  0.0337
   32SOD    SOD  141   4.111   3.266   0.479  0.2904  0.2591  0.2219
   33SOD    SOD  142   2.620   4.225   5.048 -0.1355 -0.2083 -0.5688
   34CLA    CLA  143   6.124   4.972   4.966  0.0648  0.1211 -0.0652
   35CLA    CLA  144   3.279   1.576   0.708  0.2552  0.3079  0.3846
   36CLA    CLA  145   0.704   3.892   2.694 -0.3661 -0.0172  0.3117
   37CLA    CLA  146   3.146   3.851   2.525  0.0477  0.2195 -0.4476
   38CLA    CLA  147   5.552   1.118   2.298 -0.5372 -0.1153 -0.1782
   39CLA    CLA  148   3.552   1.043   3.507 -0.3586  0.1827  0.0120
   40CLA    CLA  149   0.298   0.215   3.392 -0.1246  0.1943 -0.1667
   41CLA    CLA  150   4.775   0.189   3.461  0.0855  0.1131 -0.3284
   42CLA    CLA  151   3.276   4.143   1.441  0.0216  0.2745 -0.4420
   43CLA    CLA  152   0.350   3.705   0.971 -0.0729  0.0085  0.3710
   44CLA    CLA  153   5.741   4.089   2.839  0.1140 -0.0065  0.3563
   45CLA    CLA  154   2.733   3.216   4.472  0.0379 -0.2683  0.1928
   46CLA    CLA  155   3.348   2.272   1.335  0.3944 -0.1747 -0.2983
   47CLA    CLA  156   3.454   3.733   1.228 -0.3487  0.0701  0.2476
   48CLA    CLA  157   3.008   2.899   3.770  0.1829  0.1802  0.6023
   49CLA    CLA  158   4.784   2.510   5.063  0.0193 -0.0704 -0.1014
   50CLA    CLA  159   5.378   3.645   3.516  0.2226 -0.1809  0.1496
   51CLA    CLA  160   1.476   4.681   1.622 -0.0306  0.3059  0.0358
   52TIP3   OH2  161   2.022   4.212   2.236 -0.2482  0.1823 -0.5787
   52TIP3    H1  162   2.026   4.196   2.141  0.0350 -1.8691 -0.2618
   52TIP3    H2  163   1.928   4.214   2.255 -0.3088 -0.7921 -0.7159
   53TIP3   OH2  164   3.936   3.774   1.367 -0.0484 -0.3758  0.0383
   53TIP3    H1  165   3.989   3.696   1.385  1.8880  0.8119 -0.3475
   53TIP3    H2  166   3.965   3.839   1.431 -0.7544  0.4520 -0.4526
   54TIP3   OH2  167   6.281   0.569   3.858  0.4709  0.4341  0.0140
   54TIP3    H1  168   6.358   0.518   3.832  0.7237  0.4083  0.7865
   54TIP3    H2  169   6.209   0.530   3.808  0.2452 -2.1513  2.1426
   55TIP3   OH2  170   2.027   5.949   2.274 -0.4879  0.6433  0.4435
   55TIP3    H1  171   1.992   5.937   2.361  0.5089 -0.2647  0.7465
   55TIP3    H2  172   2.092   6.019   2.283 -0.5431  0.7026  0.3839
   56TIP3   OH2  173   1.143   4.412   2.904  0.1850  0.2253  0.5408
   56TIP3    H1  174   1.232   4.425   2.871 -0.3942  0.9288 -0.7949
   56TIP3    H2  175   1.148   4.439   2.996  1.1338  1.1904  0.2248
   57TIP3   OH2  176   5.532   5.932   2.752 -0.4358  0.2999  0.0360
   57TIP3    H1  177   5.516   5.910   2.661 -1.0807 -1.4913  0.5383
   57TIP3    H2  178   5.535   5.847   2.797  1.9442  0.9980  1.3653
   58TIP3   OH2  179   1.257   3.361   1.706  0.0750 -0.4926  0.1274
   58TIP3    H1  180   1.341   3.332   1.673  1.2761  1.2347  1.4753
   58TIP3    H2  181   1.199   3.359   1.630  0.8452 -3.2006 -0.5170
   59TIP3   OH2  182   1.064   5.407   2.074  0.2899  0.1192 -0.7336
   59TIP3    H1  183   1.107   5.323   2.056  0.4569 -0.0148  0.2491
   59TIP3    H2  184   0.975   5.383   2.101  0.4334  0.2284 -0.1432
   60TIP3   OH2  185   5.766   1.221   5.134  0.1935 -0.3123  0.1478
   60TIP3    H1  186   5.781   1.307   5.173 -0.7160 -0.9966  2.1092
   60TIP3    H2  187   5.854   1.189   5.112  0.6547  0.4843  0.8028
   61TIP3   OH2  188   3.648   5.794   3.670  0.4410  0.4893  0.3668
   61TIP3    H1  189   3.734   5.833   3.652  0.0975  0.3877 -1.7330
   61TIP3    H2  190   3.667   5.701   3.686  0.6233  0.1999 -1.4058
   62TIP3   OH2  191   0.960   0.350   0.089 -0.4819 -0.8622 -0.1757
   62TIP3    H1  192   0.943   0.257   0.073 -1.5716 -0.8272  0.6056
   62TIP3    H2  193   0.882   0.394   0.054 -1.1360 -0.4788  1.6305
   63TIP3   OH2  194   6.178   0.223   2.590  0.0153  0.5755 -0.1887
   63TIP3    H1  195   6.155   0.151   2.650  2.4402  1.1523  1.6153
   63TIP3    H2  196   6.220   0.179   2.516 -1.7457 -0.0591 -0.8542
   64TIP3   OH2  197   2.832   5.858   0.289  0.4298 -0.3515 -0.5015
   64TIP3    H1  198   2.884   5.934   0.318 -1.7546  0.6153  1.1410
   64TIP3    H2  199   2.876   5.783   0.328  0.3927  0.4831  1.2665
   65TIP3   OH2  200   0.019   1.558   4.262 -0.2174 -0.2507  0.6571
   65TIP3    H1  201   0.061   1.481   4.300 -0.6995 -0.2640  1.1677
   65TIP3    H2  202  -0.074   1.545   4.279 -0.4749 -0.3755 -0.7484
   66TIP3   OH2  203   4.526   5.420   5.100 -0.1694  0.0151 -0.2515
   66TIP3    H1  204   4.518   5.357   5.172 -1.5199 -0.6572 -0.9543
   66TIP3    H2  205   4.450   5.477   5.109 -1.1626 -0.9590 -1.9408
   67TIP3   OH2  206   2.687   5.006   0.146 -0.2463  0.7311  0.3675
   67TIP3    H1  207   2.673   5.032   0.055  1.0516 -1.3664 -0.4974
   67TIP3    H2  208   2.614   4.948   0.166  0.7706 -0.8069 -0.2188
   68TIP3   OH2  209   2.805   3.421   2.604  0.2514 -0.2529  0.0123
   68TIP3    H1  210   2.900   3.426   2.614  0.0349  2.3597  1.6189
   68TIP3    H2  211   2.782   3.498   2.553 -1.1252  0.2063  1.2465
   69TIP3   OH2  212   5.973   2.148   3.703 -0.6785  0.0281 -0.0883
   69TIP3    H1  213   5.881   2.173   3.712 -1.2093 -1.6587 -0.5173
   69TIP3    H2  214   5.972   2.066   3.654  1.0403 -0.2300  0.2131
   70TIP3   OH2  215   6.292   3.279   3.228  0.0769  0.7562 -0.2401
   70TIP3    H1  216   6.199   3.290   3.212  0.2151 -1.0811 -2.7317
   70TIP3    H2  217   6.334   3.294   3.143  1.6000 -2.6094 -0.2470
   71TIP3   OH2  218   4.312   1.697   1.327 -0.5160  0.1180 -0.0843
   71TIP3    H1  219   4.333   1.763   1.261 -0.9538  0.6553  0.3051
   71TIP3    H2  220   4.397   1.660   1.352 -0.2263  0.8431  0.0128
   72TIP3   OH2  221   3.664   0.976   2.815  0.2851 -0.3142  1.1026
   72TIP3    H1  222   3.757   0.992   2.796 -0.2224  1.2616 -0.4023
   72TIP3    H2  223   3.651   0.883   2.797  0.9046  0.0967 -2.0914
   73TIP3   OH2  224   2.617   1.456   0.701 -0.0486 -0.0518  1.0401
   73TIP3    H1  225   2.605   1.479   0.609 -1.2622 -0.2685  1.1242
   73TIP3    H2  226   2.676   1.381   0.699  2.1556  1.6174  0.6328
   74TIP3   OH2  227   5.884   5.099   0.247 -0.0563  0.1483  0.0880
   74TIP3    H1  228   5.969   5.091   0.205 -0.7184 -0.1750 -1.2590
   74TIP3    H2  229   5.866   5.013   0.284  0.5031  0.4171  1.0125
   75TIP3   OH2  230   2.409   2.614   0.355  0.5134  0.8119  0.2279
   75TIP3    H1  231   2.425   2.529   0.396  2.5339  0.9118 -0.2323
   75TIP3    H2  232   2.419   2.678   0.426 -1.1719  0.6902  0.6090
   76TIP3   OH2  233   0.078   3.120   2.610  0.1143 -0.4392  0.1028
   76TIP3    H1  234   0.078   3.162   2.525 -0.3246  1.6135  1.0586
   76TIP3    H2  235   0.165   3.138   2.647  0.2308 -1.1347  0.1926
   77TIP3   OH2  236   0.534   4.420   3.955 -0.3861 -0.2243 -0.1230
   77TIP3    H1  237   0.453   4.454   3.992  0.1638  0.0513  0.9003
   77TIP3    H2  238   0.558   4.347   4.013 -0.2598 -0.7415 -0.8196
   78TIP3   OH2  239   3.460   5.092   3.952  0.2836  0.1520  0.5849
   78TIP3    H1  240   3.438   5.117   4.042 -0.2591  3.3227 -0.3199
   78TIP3    H2  241   3.474   4.997   3.957  0.0302  0.1579  3.9312
   79TIP3   OH2  242   6.302   0.188   3.985 -0.5477  0.3289 -0.2344
   79TIP3    H1  243   6.224   0.138   4.008 -0.4982  0.6385  0.6569
   79TIP3    H2  244   6.312   0.250   4.057  0.2467  0.6116 -0.5820
   80TIP3   OH2  245   6.297   5.031   2.393 -0.7647 -0.1907 -0.2080
   80TIP3    H1  246   6.255   4.977   2.326 -0.9550 -1.3339  0.7885
   80TIP3    H2  247   6.276   5.121   2.369 -0.5596 -0.5480 -1.8422
   81TIP3   OH2  248   3.055   0.994   0.901 -0.7880  0.0802 -0.6934
   81TIP3    H1  249   3.118   1.061   0.874 -1.0999 -0.4486 -2.9138
   81TIP3    H2  250   2.989   0.995   0.833 -3.0116  0.2977  1.3496
   82TIP3   OH2  251   0.275   4.180   1.219 -0.5382  0.1133 -0.7282
   82TIP3    H1  252   0.186   4.205   1.244 -0.3491  0.4508 -0.3894
   82TIP3    H2  253   0.264   4.128   1.139 -0.9131  1.5275 -1.6153
   83TIP3   OH2  254   0.995   5.551   2.645 -0.4482 -0.7076 -0.3835
   83TIP3    H1  255   0.996   5.627   2.588 -1.0238 -0.3375  0.0929
   83TIP3    H2  256   0.925   5.496   2.611 -1.9057  0.2677  0.9089
   84TIP3   OH2  257   1.784   3.171   5.005  0.3867  0.6405 -0.5559
   84TIP3    H1  258   1.722   3.175   4.933  0.0420  0.7744 -0.2552
   84TIP3    H2  259   1.849   3.106   4.978 -0.2349  0.0289 -0.5974
   85TIP3   OH2  260   4.901   4.303   3.122 -0.3276  0.0222  0.3449
   85TIP3    H1  261   4.825   4.285   3.066  0.7789 -0.0530 -1.2032
   85TIP3    H2  262   4.874   4.378   3.175 -1.0608  0.7995 -1.0534
   86TIP3   OH2  263   1.772   3.827   0.075 -0.2319  1.0227 -0.4765
   86TIP3    H1  264   1.806   3.877   0.149 -2.4956  1.7433  0.1400
   86TIP3    H2  265   1.799   3.737   0.093  0.1143  1.3367  0.6879
   87TIP3   OH2  266   1.046   1.464   5.017 -0.1240 -0.6932 -0.6735
   87TIP3    H1  267   1.087   1.378   5.029  1.0243 -0.1840 -0.8066
   87TIP3    H2  268   1.110   1.514   4.968 -0.7161  0.2978 -0.4537
   88TIP3   OH2  269   4.518   3.934   4.074 -0.0636  0.9673 -0.2356
   88TIP3    H1  270   4.569   3.917   4.153 -0.0898 -1.2807 -0.6452
   88TIP3    H2  271   4.429   3.904   4.096 -0.6951  2.6440 -0.3287
   89TIP3   OH2  272   2.984   2.225   1.977 -0.0851  0.0294  0.2403
   89TIP3    H1  273   3.025   2.146   1.943  0.4670 -0.0516  1.0660
   89TIP3    H2  274   2.951   2.200   2.064 -0.2794  0.5879  0.3340
   90TIP3   OH2  275   5.758   5.833   4.705  0.8916 -0.3073 -0.4953
   90TIP3    H1  276   5.692   5.901   4.687 -0.5382 -1.0780  1.4179
   90TIP3    H2  277   5.841   5.880   4.705  0.2467  0.9321 -1.7929
   91TIP3   OH2  278   3.939   1.615   4.788 -0.1890  0.5783 -0.1004
   91TIP3    H1  279   3.861   1.568   4.817 -0.3454  0.8873 -0.0087
   91TIP3    H2  280   3.913   1.707   4.789  0.3800  0.7390  0.5634
   92TIP3   OH2  281   0.166   3.593   1.686  0.0994 -0.0901  0.1319
   92TIP3    H1  282   0.083   3.614   1.642 -0.3495  0.5723  1.2298
   92TIP3    H2  283   0.213   3.676   1.688 -1.3575  0.8707  3.8393
   93TIP3   OH2  284   3.034   3.374   2.154 -0.1310 -0.5120 -0.4809
   93TIP3    H1  285   3.002   3.344   2.069  0.5906  0.9626 -1.3115
   93TIP3    H2  286   3.059   3.465   2.139  0.4185 -0.3585  1.2141
   94TIP3   OH2  287   2.748   3.099   1.104 -0.2540  0.3900 -0.0415
   94TIP3    H1  288   2.727   3.006   1.103  0.1452  0.2874 -1.7553
   94TIP3    H2  289   2.673   3.141   1.061  0.2709  0.6694 -0.7090
   95TIP3   OH2  290   4.560   5.633   4.843  0.0807 -0.3385 -0.5316
   95TIP3    H1  291   4.518   5.547   4.847 -0.8556  0.1445  2.1291
   95TIP3    H2  292   4.502   5.685   4.788 -2.6376  0.0847  2.4248
   96TIP3   OH2  293   1.937   0.150   0.765  0.1933 -0.2257  0.0065
   96TIP3    H1  294   1.934   0.124   0.857  2.4502 -0.6257  0.0259
   96TIP3    H2  295   1.915   0.243   0.765  0.9492 -0.0257  1.0780
   97TIP3   OH2  296   3.883   2.562   2.994 -0.2072 -0.3071  0.1895
   97TIP3    H1  297   3.911   2.559   2.902  2.4835 -1.4264  0.9397
   97TIP3    H2  298   3.832   2.642   3.001 -2.0780 -1.1068 -2.6673
   98TIP3   OH2  299   6.221   3.506   2.374 -0.0254 -0.0812  0.4252
   98TIP3    H1  300   6.267   3.457   2.442 -0.3016  0.6427  1.1575
   98TIP3    H2  301   6.244   3.462   2.292  3.9920  1.5972  0.3730
   99TIP3   OH2  302   4.983   2.381   2.788 -0.4111 -0.3853  0.2642
   99TIP3    H1  303   4.982   2.326   2.866 -2.3491  0.2425  0.7379
   99TIP3    H2  304   5.075   2.406   2.777  0.4479 -3.2185  0.3396
  100TIP3   OH2  305   5.259   0.953   4.236 -0.1901  0.1730 -0.2956
  100TIP3    H1  306   5.252   0.928   4.329 -0.9601  1.7738  0.1113
  100TIP3    H2  307   5.174   0.992   4.215 -0.3310 -0.9480 -1.9498
  101TIP3   OH2  308   4.166   1.252   3.007  0.3663 -0.1643 -0.7037
  101TIP3    H1  309   4.080   1.211   3.007  0.9387 -1.5010 -2.5273
  101TIP3    H2  310   4.207   1.222   3.089 -0.6494 -0.0190 -0.1276
  102TIP3   OH2  311   3.942   0.086   2.799  0.5620  0.4653  0.1310
  102TIP3    H1  312   3.991   0.162   2.830  0.9237 -0.3672  1.6626
  102TIP3    H2  313   3.880   0.122   2.736  1.7984  1.8059 -0.3767
  103TIP3   OH2  314   2.806   2.376   3.239 -0.2578 -0.4222 -0.1602
  103TIP3    H1  315   2.814   2.457   3.289 -0.8797 -1.3917  1.5742
  103TIP3    H2  316   2.870   2.317   3.279 -0.4071 -1.0738 -0.8531
  104TIP3   OH2  317   4.725   0.561   2.131 -0.5232 -0.0170  0.2938
  104TIP3    H1  318   4.774   0.624   2.184  0.5510 -0.3983 -0.2201
  104TIP3    H2  319   4.644   0.607   2.109  0.9298  1.9351 -1.5324
  105TIP3   OH2  320   3.047   4.726   0.425  0.5603  0.6106  0.0164
  105TIP3    H1  321   3.038   4.636   0.392 -0.3668  0.1985  1.2712
  105TIP3    H2  322   2.990   4.778   0.368  3.2510  0.9947 -2.5454
  106TIP3   OH2  323   2.295   3.671   3.646 -0.1839 -0.5118  0.2581
  106TIP3    H1  324   2.315   3.636   3.733  1.7938  0.6716  0.3507
  106TIP3    H2  325   2.322   3.603   3.585 -1.9822 -1.5244  0.5442
  107TIP3   OH2  326   3.979   5.715   3.043  0.3082 -0.7906 -0.1902
  107TIP3    H1  327   4.011   5.788   3.097 -0.5367 -1.1031  0.7576
  107TIP3    H2  328   4.045   5.647   3.053  1.0647 -0.2207 -1.0183
  108TIP3   OH2  329   2.106   5.853   5.135 -0.4389  0.2035 -0.0859
  108TIP3    H1  330   2.200   5.851   5.150  0.0096  0.8242 -2.4375
  108TIP3    H2  331   2.073   5.920   5.195  0.5498 -0.2374  0.9718
  109TIP3   OH2  332   0.546   5.471   0.685 -0.5676  0.3707 -0.4277
  109TIP3    H1  333   0.611   5.510   0.626 -1.8348  1.6418 -1.0471
  109TIP3    H2  334   0.471   5.531   0.680 -1.8298 -1.1142  0.1680
  110TIP3   OH2  335   0.126   0.591   0.386 -0.2682  0.6054 -0.1385
  110TIP3    H1  336   0.069   0.561   0.456  1.0001 -1.4138  0.1214
  110TIP3    H2  337   0.067   0.619   0.317 -1.6261 -1.5051  0.0687
  111TIP3   OH2  338   1.674   2.103   4.651  0.4740 -0.3867 -0.1789
  111TIP3    H1  339   1.766   2.125   4.644 -0.0669  1.8449 -0.9424
  111TIP3    H2  340   1.651   2.122   4.742  0.4319  0.5626 -0.3781
  112TIP3   OH2  341   0.735   5.572   2.895  0.2762 -0.2874  0.2245
  112TIP3    H1  342   0.718   5.533   2.981 -1.3954  1.4137  0.7434
  112TIP3    H2  343   0.740   5.666   2.912 -1.7458  0.2676 -1.6945
  113TIP3   OH2  344   0.374   2.840   2.140  0.3362 -0.0788 -0.4662
  113TIP3    H1  345   0.287   2.826   2.103 -0.7296  0.9686  1.4840
  113TIP3    H2  346   0.367   2.808   2.230  1.1193  2.5590  0.6047
  114TIP3   OH2  347   2.754   0.491   0.545  0.1057 -0.5909 -0.7513
  114TIP3    H1  348   2.746   0.399   0.567 -2.0075 -0.5373 -1.1239
  114TIP3    H2  349   2.848   0.505   0.533  0.6533 -2.1945  1.2711
  115TIP3   OH2  350   4.865   2.161   1.341 -0.2608 -0.1648  0.5935
  115TIP3    H1  351   4.809   2.118   1.277  0.1265  0.6578 -0.3213
  115TIP3    H2  352   4.833   2.130   1.426 -1.4307 -0.4920  0.0487
  116TIP3   OH2  353   4.465   5.731   1.136 -0.1135 -0.3215 -0.4251
  116TIP3    H1  354   4.534   5.722   1.070  0.9083  1.3085  0.3718
  116TIP3    H2  355   4.504   5.784   1.205 -2.9376  3.0347 -1.1150
  117TIP3   OH2  356   0.636   1.819   3.507 -0.8538  0.3255  0.3305
  117TIP3    H1  357   0.591   1.767   3.440 -0.3472 -2.1558  1.7739
  117TIP3    H2  358   0.729   1.805   3.490 -0.6683  1.8650 -0.0184
  118TIP3   OH2  359   3.346   1.043   2.246 -0.1040  0.0068 -0.1842
  118TIP3    H1  360   3.317   0.961   2.207 -1.1693  0.0977  0.3792
  118TIP3    H2  361   3.401   1.017   2.320  0.1959 -0.1780 -0.4676
  119TIP3   OH2  362   2.508   0.167   2.495 -0.3969 -0.1353  0.4936
  119TIP3    H1  363   2.535   0.259   2.501  4.8872 -1.3078  0.1781
  119TIP3    H2  364   2.508   0.137   2.586  1.4031 -0.4917  0.4160
  120TIP3   OH2  365   5.050   4.298   1.395 -0.5971  0.2440  0.3193
  120TIP3    H1  366   5.139   4.310   1.428 -0.3368  1.3103 -0.7075
  120TIP3    H2  367   5.038   4.369   1.332 -1.8097 -0.5017 -0.3267
  121TIP3   OH2  368   0.113   0.031   3.572 -0.3520 -0.5140 -0.0980
  121TIP3    H1  369   0.055   0.094   3.615 -0.5486 -1.1024  0.5158
  121TIP3    H2  370   0.171   0.085   3.518  0.9460  0.4075  2.0756
  122TIP3   OH2  371   5.175   3.076   5.105  0.2853 -0.2588  0.1298
  122TIP3    H1  372   5.084   3.049   5.095  0.3809 -0.8884  0.8535
  122TIP3    H2  373   5.206   3.028   5.182  0.1378  2.7778  2.2569
  123TIP3   OH2  374   1.580   5.193   2.399 -0.1592  0.0199 -0.7055
  123TIP3    H1  375   1.498   5.215   2.356 -1.7925 -0.1390  2.1058
  123TIP3    H2  376   1.582   5.098   2.399 -1.2970 -0.0557  1.3819
  124TIP3   OH2  377   4.935   2.238   3.739  0.2628  0.0707  0.1168
  124TIP3    H1  378   4.993   2.200   3.673  0.1242  1.9151 -1.1625
  124TIP3    H2  379   4.993   2.270   3.808  1.0128  2.8467 -1.6297
  125TIP3   OH2  380   3.878   5.324   3.000 -0.1330 -0.3746 -0.8639
  125TIP3    H1  381   3.953   5.264   3.000 -0.4846 -0.8252 -2.0046
  125TIP3    H2  382   3.861   5.343   2.908 -0.4413  0.9802 -0.5534
  126TIP3   OH2  383   0.470   3.008   1.426  0.2918 -0.4821  0.4024
  126TIP3    H1  384   0.472   3.061   1.346 -0.9457 -0.7251  0.1804
  126TIP3    H2  385   0.377   2.990   1.440  0.5233 -0.8217  1.6542
  127TIP3   OH2  386   3.545   2.085   1.964 -0.0047 -0.2848 -0.0419
  127TIP3    H1  387   3.531   2.165   2.015 -0.5917  0.6703 -1.6315
  127TIP3    H2  388   3.589   2.114   1.884 -0.5135 -1.4949 -0.8004
  128TIP3   OH2  389   2.127   3.775   0.023  0.5021 -0.4200  0.0529
  128TIP3    H1  390   2.136   3.694   0.072  0.1692  0.0117  0.8493
  128TIP3    H2  391   2.202   3.828   0.050 -1.4013  1.1651  2.7911
  129TIP3   OH2  392   2.753   5.298   2.412  0.7414  0.1012 -0.0132
  129TIP3    H1  393   2.806   5.239   2.358 -0.0632  0.2258 -0.9976
  129TIP3    H2  394   2.796   5.383   2.405  1.0684 -0.0528  0.1574
  130TIP3   OH2  395   0.234   5.329   1.392 -0.2125  0.0998  0.5080
  130TIP3    H1  396   0.260   5.414   1.355 -0.0141 -0.3834 -0.4719
  130TIP3    H2  397   0.140   5.337   1.406 -0.1003  0.6901  0.9942
  131TIP3   OH2  398   2.152   2.907   2.103  0.5112 -0.3330 -0.1850
  131TIP3    H1  399   2.073   2.892   2.050  0.8294  0.0565 -0.7769
  131TIP3    H2  400   2.224   2.889   2.043  0.8921  1.5258 -0.3263
  132TIP3   OH2  401   1.922   3.151   0.540 -0.2242  0.3994  0.1880
  132TIP3    H1  402   1.882   3.161   0.626  0.3494  2.6997  0.2663
  132TIP3    H2  403   1.863   3.094   0.491 -1.0948 -0.0876  1.7731
  133TIP3   OH2  404   5.155   2.409   0.703 -0.2102 -0.2780 -0.1596
  133TIP3    H1  405   5.071   2.427   0.745  1.0061  1.7734  1.6095
  133TIP3    H2  406   5.198   2.347   0.762  0.0075 -0.3861 -0.4335
  134TIP3   OH2  407   0.223   3.895   4.906 -0.5411 -0.3585  0.3654
  134TIP3    H1  408   0.207   3.807   4.940 -0.7659 -0.3691  0.2337
  134TIP3    H2  409   0.176   3.897   4.823 -0.7192 -0.0427  0.4726
  135TIP3   OH2  410   2.725   5.926   1.119  0.6874 -0.2043 -0.1563
  135TIP3    H1  411   2.741   5.955   1.209 -0.7006  0.3915 -0.0642
  135TIP3    H2  412   2.629   5.923   1.112  0.7099  1.5207 -2.1544
  136TIP3   OH2  413   3.743   5.964   1.396 -1.1714 -0.0851  0.4679
  136TIP3    H1  414   3.673   5.956   1.331 -0.3117  1.3956 -0.7142
  136TIP3    H2  415   3.704   6.014   1.468 -1.2617  0.9730 -0.3050
  137TIP3   OH2  416   1.592   5.597   2.927 -0.0182 -0.4021  0.6052
  137TIP3    H1  417   1.552   5.586   2.841  2.1691 -1.4635 -0.3774
  137TIP3    H2  418   1.660   5.663   2.914  1.4889 -1.7997  1.0184
  138TIP3   OH2  419   1.894   5.535   2.637  0.0241  0.1017 -0.4614
  138TIP3    H1  420   1.858   5.615   2.674  0.2524  0.0320 -0.0777
  138TIP3    H2  421   1.836   5.466   2.668 -0.1078  0.1066 -0.6982
  139TIP3   OH2  422   1.201   3.950   1.005 -0.7938  0.3031  0.3027
  139TIP3    H1  423   1.218   4.027   0.951  0.6190  0.0008  0.2979
  139TIP3    H2  424   1.129   3.905   0.960 -0.4882  0.7214 -0.6329
  140TIP3   OH2  425   2.415   5.689   3.146  0.5276 -0.0291 -0.0414
  140TIP3    H1  426   2.343   5.633   3.117 -0.2957  0.5681  0.8088
  140TIP3    H2  427   2.417   5.677   3.241  0.9164  0.7173  0.0459
  141TIP3   OH2  428   3.456   3.483   0.975 -0.3155  0.0974 -0.1506
  141TIP3    H1  429   3.460   3.532   1.057  1.9850  0.1320 -0.2083
  141TIP3    H2  430   3.402   3.407   0.996  1.9521 -1.0440  2.1090
  142TIP3   OH2  431   4.332   4.649   1.149  0.1664  0.8681  0.2491
  142TIP3    H1  432   4.373   4.657   1.063 -0.4386 -2.0618 -0.4237
  142TIP3    H2  433   4.402   4.621   1.207 -0.4642 -3.9071 -0.8523
  143TIP3   OH2  434   3.500   4.505   2.227 -0.0216 -0.6455 -0.0082
  143TIP3    H1  435   3.473   4.521   2.318 -0.6524 -0.9931 -0.1372
  143TIP3    H2  436   3.564   4.434   2.233  1.9763  1.0489  0.4495
  144TIP3   OH2  437   0.061   0.874   0.281 -0.2149  0.1090 -0.3165
  144TIP3    H1  438  -0.008   0.929   0.244 -1.6386 -0.4658  1.3481
  144TIP3    H2  439   0.084   0.917   0.363  0.3374 -0.5049 -0.1424
  145TIP3   OH2  440   4.036   1.280   3.511  0.0060  0.1318 -0.1042
  145TIP3    H1  441   4.095   1.206   3.495  1.4208  1.1387  0.3104
  145TIP3    H2  442   3.955   1.256   3.465  0.9025 -1.0614 -1.1390
  146TIP3   OH2  443   2.467   4.491   4.214 -0.4001  0.0268 -0.2084
  146TIP3    H1  444   2.416   4.464   4.137 -2.1712  2.2606  0.0476
  146TIP3    H2  445   2.411   4.467   4.288 -0.2120  0.7812  0.1850
  147TIP3   OH2  446   3.240   4.908   0.286 -0.0428  0.6042  0.2905
  147TIP3    H1  447   3.224   4.893   0.380 -1.2970  0.4259  0.0685
  147TIP3    H2  448   3.152   4.914   0.248  0.4546  2.0177 -0.6760
  148TIP3   OH2  449   1.997   1.697   4.189  0.6296 -0.1599  0.6066
  148TIP3    H1  450   1.961   1.644   4.118  1.2825 -0.2803  0.3592
  148TIP3    H2  451   1.924   1.751   4.218  0.9592  1.8449 -1.9317
  149TIP3   OH2  452   5.705   5.342   3.600  0.1243  0.6122  0.2250
  149TIP3    H1  453   5.773   5.318   3.537  0.2470 -1.3021  1.0044
  149TIP3    H2  454   5.695   5.436   3.590  1.3304  0.6112 -1.4534
  150TIP3   OH2  455   3.590   4.035   0.432 -0.2271 -0.0227 -0.1624
  150TIP3    H1  456   3.614   3.992   0.514 -1.0794 -1.8180 -0.8081
  150TIP3    H2  457   3.522   3.980   0.395  0.6121  0.3541 -2.4215
  151TIP3   OH2  458   0.890   0.734   3.226 -0.3291 -0.1647 -0.0889
  151TIP3    H1  459   0.799   0.761   3.224 -0.1259  0.7421  1.3494
  151TIP3    H2  460   0.935   0.794   3.167 -0.8989 -1.8561 -2.3945
  152TIP3   OH2  461   1.376   4.559   2.220 -0.4934  0.3264  0.7284
  152TIP3    H1  462   1.317   4.556   2.145 -1.7354 -1.9289  1.6814
  152TIP3    H2  463   1.321   4.584   2.293 -0.0012 -0.4650  1.3952
  153TIP3   OH2  464   3.926   5.046   3.919 -0.2710  0.1839  0.0160
  153TIP3    H1  465   4.016   5.069   3.895 -0.0657 -0.1991  0.4033
  153TIP3    H2  466   3.935   5.003   4.004 -0.7776 -0.2776 -0.1653
  154TIP3   OH2  467   4.730   1.415   1.659  0.2224  0.0308  0.2217
  154TIP3    H1  468   4.785   1.401   1.736 -0.8981 -1.3526  0.7942
  154TIP3    H2  469   4.661   1.473   1.689  1.1761  1.6013 -0.4483
  155TIP3   OH2  470   2.836   5.237   4.074 -0.0893  0.3553 -0.2809
  155TIP3    H1  471   2.920   5.260   4.034 -0.0157 -1.1104 -1.0298
  155TIP3    H2  472   2.857   5.224   4.167  0.3143  0.9530 -0.2843
  156TIP3   OH2  473   0.855   2.706   3.678  0.0706  1.2674  0.7887
  156TIP3    H1  474   0.839   2.758   3.599  2.7209 -0.9342 -1.3829
  156TIP3    H2  475   0.836   2.616   3.652  0.1707  0.5538  2.9583
  157TIP3   OH2  476   4.518   2.437   1.601 -0.4981  0.3504  0.0031
  157TIP3    H1  477   4.604   2.475   1.618 -0.3244  0.1746 -0.4629
  157TIP3    H2  478   4.476   2.434   1.687 -0.4851  1.5011  0.0651
  158TIP3   OH2  479   1.134   3.834   3.737 -0.6808  0.1082  0.4571
  158TIP3    H1  480   1.050   3.820   3.694 -0.2726 -1.5062  0.1186
  158TIP3    H2  481   1.199   3.810   3.670  0.0276  0.4624  1.0091
  159TIP3   OH2  482   4.680   5.943   0.706 -0.5534 -0.6712  0.4174
  159TIP3    H1  483   4.724   5.859   0.689 -0.2506 -0.6897  1.2252
  159TIP3    H2  484   4.739   6.009   0.670 -0.1896 -0.7398  0.8692
  160TIP3   OH2  485   0.625   4.562   0.906 -0.4464  0.2181  0.2989
  160TIP3    H1  486   0.704   4.507   0.911  0.2923  1.3238  1.1266
  160TIP3    H2  487   0.554   4.504   0.933 -0.0688 -1.0192 -1.1834
  161TIP3   OH2  488   4.229   5.260   5.035 -0.1923  0.2467 -0.0341
  161TIP3    H1  489   4.244   5.246   4.942 -1.7217  1.0875 -0.4355
  161TIP3    H2  490   4.254   5.351   5.051  1.4524 -0.2794  0.7337
  162TIP3   OH2  491   4.300   3.780   1.423  0.2763  0.1338 -0.4735
  162TIP3    H1  492   4.320   3.799   1.515  3.5375 -1.8641 -0.5840
  162TIP3    H2  493   4.250   3.699   1.425  0.3396  0.0953 -0.4300
  163TIP3   OH2  494   0.815   2.833   3.440 -0.7084  0.1286 -0.2090
  163TIP3    H1  495   0.857   2.833   3.353 -0.7138  0.4141 -0.2149
  163TIP3    H2  496   0.806   2.926   3.461 -1.3319  0.0700 -0.2025
  164TIP3   OH2  497   4.959   1.367   4.104 -0.0169 -0.3249  0.6561
  164TIP3    H1  498   4.873   1.397   4.135  0.3410 -0.0062  1.3446
  164TIP3    H2  499   5.022   1.404   4.166  0.6227 -0.5798  0.1737
  165TIP3   OH2  500   4.781   5.628   3.446  0.4462  0.1185  0.1548
  165TIP3    H1  501   4.753   5.714   3.475  2.7868  0.9310  0.2502
  165TIP3    H2  502   4.798   5.579   3.527  0.5392  0.0877  0.1174
  166TIP3   OH2  503   5.917   3.241   5.024 -0.3246 -0.2536 -0.0813
  166TIP3    H1  504   5.836   3.281   5.055  1.0575  1.0128  2.1783
  166TIP3    H2  505   5.948   3.300   4.955 -1.6403 -1.1804 -1.5501
  167TIP3   OH2  506   0.073   3.250   2.350 -0.3198  0.3575  0.0325
  167TIP3    H1  507   0.119   3.200   2.282 -1.8701  0.4478 -1.1304
  167TIP3    H2  508   0.096   3.341   2.332  1.0304  0.2486  1.0267
  168TIP3   OH2  509   2.397   4.576   4.803 -0.5328  0.1602 -0.1723
  168TIP3    H1  510   2.429   4.634   4.735  0.4555 -0.6167 -0.4053
  168TIP3    H2  511   2.307   4.556   4.778 -0.3291  0.2542 -0.9925
  169TIP3   OH2  512   4.481   3.644   0.877  0.8694 -0.1730 -0.2064
  169TIP3    H1  513   4.526   3.593   0.944  0.4434 -0.6669 -0.2916
  169TIP3    H2  514   4.499   3.735   0.900  2.1916 -0.3585 -0.4368
  170TIP3   OH2  515   5.651   4.573   2.700 -0.0086 -0.2915  0.1089
  170TIP3    H1  516   5.734   4.567   2.748 -0.4358  1.2739  1.1122
  170TIP3    H2  517   5.591   4.518   2.750 -0.6859  2.0160  2.0013
  171TIP3   OH2  518   5.726   1.976   4.485  0.1461 -0.4717 -0.3532
  171TIP3    H1  519   5.817   1.948   4.477 -0.2759 -2.7799  1.4826
  171TIP3    H2  520   5.677   1.919   4.426 -0.3207 -0.9475  0.4587
  172TIP3   OH2  521   5.493   0.355   1.869 -0.4111  0.5112 -0.0772
  172TIP3    H1  522   5.530   0.329   1.785 -0.4495  2.0739 -0.5966
  172TIP3    H2  523   5.401   0.329   1.864 -0.4850  0.8777 -0.6417
  173TIP3   OH2  524   1.752   5.631   1.232  0.3273  0.1692 -0.2746
  173TIP3    H1  525   1.721   5.719   1.211 -1.2510 -0.0024  1.0722
  173TIP3    H2  526   1.675   5.575   1.220  0.6275 -0.6285  1.2755
  174TIP3   OH2  527   5.334   5.035   3.407 -0.0409 -0.6165  0.2864
  174TIP3    H1  528   5.254   5.012   3.359  1.9232 -3.8400 -1.7819
  174TIP3    H2  529   5.334   4.978   3.483 -0.6128  0.8588  1.4554
  175TIP3   OH2  530   4.349   5.430   0.479 -0.4353  0.5122  0.1776
  175TIP3    H1  531   4.270   5.428   0.535  0.6872 -0.1506  1.8176
  175TIP3    H2  532   4.347   5.517   0.440 -2.6349  0.0880 -0.8370
  176TIP3   OH2  533   0.949   5.004   2.049 -0.0266 -0.0955  0.5656
  176TIP3    H1  534   1.044   5.012   2.038  0.0055 -1.1759 -0.0370
  176TIP3    H2  535   0.913   5.045   1.970  0.0188 -1.7354 -0.3393
  177TIP3   OH2  536   2.501   4.635   2.607 -0.3523 -0.2127 -0.6842
  177TIP3    H1  537   2.588   4.663   2.577  0.6946  0.8448  2.8261
  177TIP3    H2  538   2.513   4.545   2.636  0.0652  0.4159  1.2320
  178TIP3   OH2  539   0.135   5.640   1.807  0.1551  0.5938  0.1369
  178TIP3    H1  540   0.095   5.722   1.837 -1.0665 -0.3392  1.1716
  178TIP3    H2  541   0.140   5.586   1.886 -0.2097 -0.7800 -0.7448
  179TIP3   OH2  542   0.601   2.831   1.025  0.0469 -0.2547  0.1142
  179TIP3    H1  543   0.546   2.858   1.099  1.6250 -1.4879  1.8429
  179TIP3    H2  544   0.641   2.749   1.054  1.1298 -0.5101 -1.9335
  180TIP3   OH2  545   6.042   4.115   3.989 -0.8163  0.4327 -0.1004
  180TIP3    H1  546   6.095   4.193   3.974 -1.7664  0.9690 -0.6992
  180TIP3    H2  547   5.952   4.146   3.991 -1.3593 -0.8415 -2.0068
  181TIP3   OH2  548   3.336   0.084   4.862  0.2177  0.3797 -0.1741
  181TIP3    H1  549   3.341   0.027   4.939  1.7345 -0.1059 -0.5824
  181TIP3    H2  550   3.342   0.024   4.787  0.4525  0.9559 -0.6300
  182TIP3   OH2  551   2.745   2.785   2.763 -0.3414 -0.1134  0.0801
  182TIP3    H1  552   2.651   2.805   2.760 -0.1248  1.0228  0.6735
  182TIP3    H2  553   2.749   2.690   2.749 -1.5404 -0.1004 -0.4857
  183TIP3   OH2  554   2.914   5.682   2.472 -0.0786  0.2791 -0.3737
  183TIP3    H1  555   2.886   5.715   2.557 -0.9781 -0.6181 -0.2982
  183TIP3    H2  556   3.009   5.697   2.470 -0.1808  1.1038  0.4127
  184TIP3   OH2  557   4.980   1.678   1.260 -0.5670  0.6127 -0.1553
  184TIP3    H1  558   5.020   1.738   1.324 -1.4445  0.9567  0.0932
  184TIP3    H2  559   4.888   1.703   1.260 -0.8092 -0.2749 -0.5892
  185TIP3   OH2  560   1.357   5.934   3.651 -0.1744 -0.2458  0.8017
  185TIP3    H1  561   1.307   5.979   3.720 -0.4650  1.9069 -0.7130
  185TIP3    H2  562   1.332   5.979   3.571 -0.4231 -3.1510 -0.8830
  186TIP3   OH2  563   1.437   3.407   4.846  0.5344  0.0196 -0.6478
  186TIP3    H1  564   1.344   3.405   4.821  0.6444 -0.0179 -1.0535
  186TIP3    H2  565   1.465   3.316   4.841  0.3819 -0.0970  0.3023
  187TIP3   OH2  566   1.880   4.905   4.156 -0.5989  0.2491  0.4246
  187TIP3    H1  567   1.829   4.974   4.198 -1.1439  0.6230 -0.8014
  187TIP3    H2  568   1.943   4.952   4.102  2.1917 -0.1503  3.0637
  188TIP3   OH2  569   0.117   1.132   4.469  0.7900  0.1547  0.5741
  188TIP3    H1  570   0.198   1.083   4.458  1.0157  0.4026  1.0898
  188TIP3    H2  571   0.071   1.089   4.542 -0.9683 -1.8364 -1.5486
  189TIP3   OH2  572   2.954   2.365   1.667  0.0782 -0.3041 -0.7791
  189TIP3    H1  573   2.876   2.309   1.671 -1.9286  2.2501 -1.5792
  189TIP3    H2  574   3.021   2.310   1.627 -1.4281 -2.4489 -0.5312
  190TIP3   OH2  575   6.214   4.745   4.027 -0.0283  0.2172  0.0788
  190TIP3    H1  576   6.217   4.655   3.994 -1.0176 -0.0802  0.7577
  190TIP3    H2  577   6.159   4.792   3.964 -1.6761 -0.2839  1.0768
  191TIP3   OH2  578   4.623   5.910   3.398  0.2683 -0.0237 -0.5372
  191TIP3    H1  579   4.623   5.992   3.447  0.1346 -1.0372  1.2594
  191TIP3    H2  580   4.531   5.894   3.377  0.4239  0.9148 -2.0808
  192TIP3   OH2  581   5.790   4.489   4.408  0.4421  0.4260  0.4419
  192TIP3    H1  582   5.833   4.407   4.385  1.9097  0.7901  1.7092
  192TIP3    H2  583   5.821   4.508   4.496 -0.8013  1.7502  0.6273
  193TIP3   OH2  584   6.025   1.663   2.917  0.1059  0.2738  0.2286
  193TIP3    H1  585   6.073   1.627   2.992 -0.1062 -2.6943 -0.9118
  193TIP3    H2  586   6.089   1.714   2.868  1.8197 -2.3581 -0.4611
  194TIP3   OH2  587   1.191   2.012   1.595  0.0807 -0.1544  0.3838
  194TIP3    H1  588   1.154   1.933   1.635  1.8812 -1.1350  0.2127
  194TIP3    H2  589   1.216   2.067   1.669  0.9231 -0.7763  0.5745
  195TIP3   OH2  590   2.708   2.238   1.250 -0.3535  0.2364  0.0291
  195TIP3    H1  591   2.802   2.222   1.250 -0.1245  0.8666 -3.1329
  195TIP3    H2  592   2.670   2.157   1.284  1.2839 -0.2421  0.8207
  196TIP3   OH2  593   3.120   0.145   0.657 -0.5785 -0.3717 -0.0642
  196TIP3    H1  594   3.182   0.123   0.587 -0.0388 -1.0325  0.6049
  196TIP3    H2  595   3.039   0.102   0.631 -1.1921  1.6070 -1.6323
  197TIP3   OH2  596   4.851   0.134   4.315  0.1734 -0.5800 -0.1815
  197TIP3    H1  597   4.805   0.078   4.252  0.5569 -0.8456 -0.2284
  197TIP3    H2  598   4.944   0.118   4.299  0.2898  0.0089 -0.1373
  198TIP3   OH2  599   2.272   5.733   1.627 -0.2515  0.1707  0.1829
  198TIP3    H1  600   2.275   5.818   1.672 -0.4273 -1.3457  3.2395
  198TIP3    H2  601   2.273   5.668   1.697 -0.7196 -2.3909 -2.0386
  199TIP3   OH2  602   5.177   2.390   1.875  1.2777  0.4485  0.1398
  199TIP3    H1  603   5.208   2.307   1.911  0.4450  0.1947  0.2744
  199TIP3    H2  604   5.211   2.456   1.935  1.5684  0.1787  0.2793
  200TIP3   OH2  605   4.572   0.967   1.178 -0.1074  0.8655  0.0336
  200TIP3    H1  606   4.620   0.885   1.164 -0.6109  0.8090 -1.5069
  200TIP3    H2  607   4.598   1.023   1.105 -1.8901  1.0587 -0.4900
  201TIP3   OH2  608   1.552   2.476   4.108 -0.2049  0.5632 -0.5590
  201TIP3    H1  609   1.562   2.409   4.042  0.1022 -1.2931  1.2692
  201TIP3    H2  610   1.634   2.475   4.157 -1.0392  0.5921  0.9307
  202TIP3   OH2  611   2.120   5.801  -0.027 -0.7247  0.3954 -0.7096
  202TIP3    H1  612   2.048   5.833   0.028  0.0861  1.2926 -0.1416
  202TIP3    H2  613   2.138   5.713   0.006  0.5479  1.3423  1.3382
  203TIP3   OH2  614   4.643   1.918   4.375 -0.0099  0.0790 -0.0395
  203TIP3    H1  615   4.700   1.993   4.358 -1.3436  0.5570 -2.9304
  203TIP3    H2  616   4.555   1.955   4.380 -0.3771 -0.9336  1.9341
  204TIP3   OH2  617   5.218   0.381   3.605  0.3122 -0.3363  0.1067
  204TIP3    H1  618   5.174   0.327   3.671 -0.7743  1.3286  0.8190
  204TIP3    H2  619   5.147   0.412   3.548  0.8377  0.7068 -0.0022
  205TIP3   OH2  620   5.661   5.679   2.611 -0.1471 -0.0530  0.5171
  205TIP3    H1  621   5.756   5.680   2.605 -0.1726  0.0028  0.0871
  205TIP3    H2  622   5.632   5.748   2.552 -0.4589 -0.1495  0.5542
  206TIP3   OH2  623   4.002   2.889   3.109  0.3286  0.3586  0.5803
  206TIP3    H1  624   4.072   2.825   3.124  0.7173  0.2037 -1.6338
  206TIP3    H2  625   3.955   2.893   3.193  0.9323 -2.0225  1.0991
  207TIP3   OH2  626   3.388   0.551   2.049 -0.1109 -0.1161  0.0315
  207TIP3    H1  627   3.442   0.480   2.083 -2.3181 -2.1595 -0.4577
  207TIP3    H2  628   3.300   0.514   2.044 -1.2594  2.4961 -0.8201
  208TIP3   OH2  629   5.720   3.826   4.340  0.5837  0.1872 -0.0174
  208TIP3    H1  630   5.804   3.813   4.294  1.6104 -0.7415  2.0144
  208TIP3    H2  631   5.654   3.795   4.278  1.8772 -0.7275 -1.0003
  209TIP3   OH2  632   0.817   4.006   0.775 -0.0227  0.5622  0.2926
  209TIP3    H1  633   0.819   3.981   0.683 -1.5793 -1.0936  0.6490
  209TIP3    H2  634   0.724   4.011   0.797  0.3171  0.6702  1.8408
  210TIP3   OH2  635   1.300   1.889   2.730 -0.3200  0.6004 -0.0616
  210TIP3    H1  636   1.217   1.929   2.706 -1.1080  0.6654  2.5254
  210TIP3    H2  637   1.281   1.836   2.807  1.7379 -0.6682 -0.3376
  211TIP3   OH2  638   5.363   2.402   3.469 -0.0916  0.1322 -0.0571
  211TIP3    H1  639   5.273   2.376   3.449  0.1698 -0.7553 -0.1274
  211TIP3    H2  640   5.377   2.483   3.420 -0.7090  0.0468 -0.3789
  212TIP3   OH2  641   5.799   1.791   0.746  0.2458  0.0883 -0.2530
  212TIP3    H1  642   5.707   1.779   0.771  0.5332 -1.3863  0.2226
  212TIP3    H2  643   5.814   1.725   0.678  0.3570  1.8981 -2.0823
  213TIP3   OH2  644   4.367   3.049   1.955  0.2068 -0.1241  0.8711
  213TIP3    H1  645   4.421   3.115   1.998  0.5985 -0.7397  1.3502
  213TIP3    H2  646   4.393   3.052   1.863  1.7041 -0.9988  1.2329
  214TIP3   OH2  647   3.052   2.402   3.471 -0.0642 -0.2960 -0.3641
  214TIP3    H1  648   3.129   2.347   3.455 -0.8179 -1.1568 -1.1798
  214TIP3    H2  649   3.020   2.373   3.556 -0.5840 -1.3188 -0.8842
  215TIP3   OH2  650   2.552   3.780   3.175  0.4514  0.1421 -0.2286
  215TIP3    H1  651   2.536   3.846   3.242  1.8344  1.0357 -0.7301
  215TIP3    H2  652   2.601   3.711   3.220  0.1607  0.0697 -0.0162
  216TIP3   OH2  653   0.614   0.883   4.215  0.1261 -0.1797  0.0452
  216TIP3    H1  654   0.670   0.930   4.153 -1.6451  1.1902 -0.6069
  216TIP3    H2  655   0.526   0.917   4.198 -0.4332  0.3749  3.4120
  217TIP3   OH2  656   3.518   2.742   3.531  0.2981 -0.0584  0.2442
  217TIP3    H1  657   3.575   2.680   3.484 -0.8280  0.4314 -1.8977
  217TIP3    H2  658   3.439   2.693   3.549  0.3339  0.0625  0.7383
  218TIP3   OH2  659   1.558   0.302   2.522  0.5302  0.0008  0.0445
  218TIP3    H1  660   1.465   0.289   2.501  0.5462  1.8083 -1.3328
  218TIP3    H2  661   1.571   0.251   2.602 -1.4687 -0.8749 -0.1185
  219TIP3   OH2  662   0.375   1.553   1.105  0.5121 -0.1910 -0.3710
  219TIP3    H1  663   0.454   1.514   1.067 -0.9455 -1.4213 -2.3587
  219TIP3    H2  664   0.336   1.482   1.155 -0.4111 -0.2727 -1.1840
  220TIP3   OH2  665   6.027   2.666   0.496  0.7373 -0.4612 -0.4237
  220TIP3    H1  666   5.937   2.637   0.484  0.8820 -0.7267 -0.8820
  220TIP3    H2  667   6.022   2.762   0.495  0.5591 -0.4732 -1.2476
  221TIP3   OH2  668   5.005   0.061   1.759  0.2114 -0.5033 -0.0026
  221TIP3    H1  669   4.933   0.093   1.705 -0.3935 -1.8392 -0.0235
  221TIP3    H2  670   5.074   0.127   1.748 -0.6855  0.3540 -0.6687
  222TIP3   OH2  671   0.148   1.321   4.754  0.5475 -0.3896 -0.0130
  222TIP3    H1  672   0.158   1.407   4.794 -1.1001  1.0850 -2.4930
  222TIP3    H2  673   0.231   1.307   4.708  1.4736 -0.9598  1.7525
  223TIP3   OH2  674   3.237   1.288   3.095 -0.4576  0.0614  0.4923
  223TIP3    H1  675   3.170   1.349   3.066 -0.0770  0.5557  0.6338
  223TIP3    H2  676   3.317   1.319   3.053 -0.3024 -0.4686  0.3980
  224TIP3   OH2  677   2.156   0.092   2.702 -0.2397  0.1996 -0.1654
  224TIP3    H1  678   2.189   0.107   2.614  1.1215  2.4436  0.6502
  224TIP3    H2  679   2.088   0.158   2.714  0.4871  0.7835  0.8769
  225TIP3   OH2  680   1.095   1.950   2.197 -0.1819  0.2965  0.1726
  225TIP3    H1  681   1.048   1.903   2.265 -2.8949  1.7220 -0.5970
  225TIP3    H2  682   1.085   1.896   2.119 -1.9492  1.3165 -0.3464
  226TIP3   OH2  683   1.962   4.312   4.055 -0.6043 -0.1181  0.9587
  226TIP3    H1  684   1.924   4.225   4.044 -0.6652  0.0613 -0.4880
  226TIP3    H2  685   1.892   4.364   4.095 -1.3408 -0.2097 -0.1597
  227TIP3   OH2  686   4.769   5.386   2.956  0.8198 -0.1996  0.0653
  227TIP3    H1  687   4.849   5.337   2.936  0.8626  0.1397 -0.6260
  227TIP3    H2  688   4.783   5.419   3.045  2.4698  1.8010 -0.8480
  228TIP3   OH2  689   0.792   1.323   0.366 -0.4744 -0.1581 -0.7600
  228TIP3    H1  690   0.744   1.272   0.431  0.6895 -0.1665  0.1351
  228TIP3    H2  691   0.861   1.264   0.335  0.0476  0.4068 -0.7103
  229TIP3   OH2  692   0.779   3.957   0.497 -0.1438 -0.4202  0.2183
  229TIP3    H1  693   0.684   3.967   0.489 -0.3146 -1.7528  0.3300
  229TIP3    H2  694   0.796   3.867   0.468  1.4206  0.5998 -2.3828
  230TIP3   OH2  695   0.299   1.462   3.174  0.6260  0.1595  0.1641
  230TIP3    H1  696   0.226   1.406   3.202  1.3059 -1.0895 -0.5038
  230TIP3    H2  697   0.256   1.534   3.128 -0.1644 -1.4024 -1.6748
  231TIP3   OH2  698   2.335   2.690   3.224 -0.2811  0.0862  0.5704
  231TIP3    H1  699   2.365   2.646   3.144  2.9250  2.6129  0.1738
  231TIP3    H2  700   2.388   2.652   3.293 -1.2339 -0.2691  1.1325
  232TIP3   OH2  701   5.600   0.609   2.117 -0.5495 -0.1738 -0.5979
  232TIP3    H1  702   5.603   0.556   2.197 -0.9766  0.2478 -0.2962
  232TIP3    H2  703   5.556   0.689   2.144  1.1573  0.8690 -0.7319
  233TIP3   OH2  704   6.017   3.594   1.984 -0.2959 -0.6514 -0.1006
  233TIP3    H1  705   6.110   3.583   1.962  0.0326  0.2336  0.7295
  233TIP3    H2  706   6.016   3.667   2.047 -1.3690 -1.7093  1.1828
  234TIP3   OH2  707   2.662   0.063   4.387  0.2388 -0.6078 -0.0747
  234TIP3    H1  708   2.605   0.092   4.458 -2.7553 -2.5707 -1.4811
  234TIP3    H2  709   2.736   0.124   4.390 -0.9846  0.9651  3.0417
  235TIP3   OH2  710   4.830   4.288   0.137 -0.1691  0.7807 -0.3890
  235TIP3    H1  711   4.791   4.310   0.052 -1.0140  1.7916  0.2420
  235TIP3    H2  712   4.841   4.193   0.134  0.0654  0.8205 -1.7303
  236TIP3   OH2  713   5.587   5.101   4.549  0.1938  0.1155 -0.0050
  236TIP3    H1  714   5.590   5.164   4.621 -1.0837 -1.0415  1.1311
  236TIP3    H2  715   5.558   5.152   4.474  1.3687  1.3206  0.3064
  237TIP3   OH2  716   1.042   4.928   1.300 -0.2761  0.6173  0.2549
  237TIP3    H1  717   1.008   4.865   1.235 -0.1006  0.4217  0.3523
  237TIP3    H2  718   1.088   4.993   1.247  1.5911 -0.5949  0.2904
  238TIP3   OH2  719   2.245   3.364   3.973  0.2649 -0.1144 -0.1406
  238TIP3    H1  720   2.163   3.319   3.951  2.4306 -4.1886 -0.9219
  238TIP3    H2  721   2.259   3.344   4.065  0.8023 -0.2345 -0.2455
  239TIP3   OH2  722   1.061   0.755   4.106  0.6365 -0.4363 -0.3640
  239TIP3    H1  723   1.052   0.842   4.066 -0.7160 -0.4411 -0.1264
  239TIP3    H2  724   1.019   0.696   4.043  0.8701 -0.8159 -0.1653
  240TIP3   OH2  725   1.638   0.572   3.644 -0.0187  0.0751 -0.4526
  240TIP3    H1  726   1.601   0.530   3.721  1.0313 -0.0681  0.0004
  240TIP3    H2  727   1.584   0.650   3.631  1.6824  1.9595  2.4616
  241TIP3   OH2  728   2.649   1.653   4.553  0.1305 -0.5017 -0.9498
  241TIP3    H1  729   2.725   1.691   4.597 -0.6597  1.4226 -1.1415
  241TIP3    H2  730   2.612   1.592   4.617  0.8317 -0.1450 -0.1892
  242TIP3   OH2  731   0.382   2.915   0.568 -0.1814 -0.6263 -0.2118
  242TIP3    H1  732   0.354   2.824   0.580 -0.4702 -0.4327  0.6799
  242TIP3    H2  733   0.386   2.950   0.657  1.8117 -0.3104 -0.3755
  243TIP3   OH2  734   1.645   5.526   5.015 -0.0275  0.3668  0.4541
  243TIP3    H1  735   1.710   5.552   5.080 -0.5813  0.2762  1.0478
  243TIP3    H2  736   1.695   5.520   4.933  0.5584  1.0424  0.7493
  244TIP3   OH2  737   1.495   0.048   2.321 -0.0536  0.1819 -0.0825
  244TIP3    H1  738   1.586   0.018   2.318 -0.9517 -2.8954 -2.5193
  244TIP3    H2  739   1.484   0.100   2.242 -1.0856 -2.2882 -1.7022
  245TIP3   OH2  740   0.361   5.686   3.431 -0.0323 -0.1050  0.0093
  245TIP3    H1  741   0.396   5.679   3.519  0.3578  0.8788 -0.0472
  245TIP3    H2  742   0.330   5.777   3.425  0.9009  0.1607 -1.2041
  246TIP3   OH2  743   5.790   4.102   1.744 -0.1909 -0.3873  0.0046
  246TIP3    H1  744   5.833   4.121   1.827 -1.0335  4.5225 -0.3979
  246TIP3    H2  745   5.750   4.016   1.758  4.0511 -2.3193  2.6173
  247TIP3   OH2  746   0.452   1.608   4.323  0.5242  0.1603  0.2458
  247TIP3    H1  747   0.525   1.669   4.328  1.0998 -0.5275  0.4653
  247TIP3    H2  748   0.379   1.660   4.290  1.3276  0.6611 -0.8110
  248TIP3   OH2  749   5.802   2.394   2.311 -0.6041 -0.3955  0.0242
  248TIP3    H1  750   5.775   2.477   2.350  0.9725  0.7962 -1.3055
  248TIP3    H2  751   5.720   2.354   2.281 -1.4843  0.1703  1.5991
  249TIP3   OH2  752   3.306   4.618   0.264 -0.6283 -0.1872 -0.3358
  249TIP3    H1  753   3.283   4.709   0.284 -1.6577  0.3640 -3.4585
  249TIP3    H2  754   3.379   4.598   0.322  0.3580  3.0220 -0.2969
  250TIP3   OH2  755   5.003   1.036   2.169 -0.1945  0.4030 -0.2949
  250TIP3    H1  756   4.997   1.078   2.083 -4.2100  0.8740  0.0349
  250TIP3    H2  757   4.914   1.008   2.189  0.2146  1.5096  4.3001
  251TIP3   OH2  758   1.632   4.067   4.471  0.2141  0.2655  0.3912
  251TIP3    H1  759   1.659   4.147   4.516 -0.6052  1.3819 -1.0112
  251TIP3    H2  760   1.553   4.039   4.517 -0.1586  0.9416  0.1827
  252TIP3   OH2  761   2.233   0.773   3.291 -0.3422 -0.2134  0.1389
  252TIP3    H1  762   2.287   0.852   3.296  1.6301 -1.4804  0.0176
  252TIP3    H2  763   2.225   0.755   3.198 -0.9423 -0.0708  0.1583
  253TIP3   OH2  764   5.098   2.378   3.444  0.2132  0.2228  0.2444
  253TIP3    H1  765   5.093   2.283   3.452 -0.5037  0.2103 -0.2927
  253TIP3    H2  766   5.022   2.402   3.391  0.0855  1.1553  0.8270
  254TIP3   OH2  767   1.564   0.065   2.759  0.2947 -0.1873  0.8317
  254TIP3    H1  768   1.483   0.014   2.754 -0.4465  1.0297 -0.2694
  254TIP3    H2  769   1.629   0.010   2.715 -0.8523  0.4048 -1.7729
  255TIP3   OH2  770   4.364   4.640   2.347  0.0436  0.3808 -0.3546
  255TIP3    H1  771   4.333   4.641   2.256 -0.0147  1.1677 -0.3331
  255TIP3    H2  772   4.455   4.668   2.341  0.0728  0.3230 -0.1795
  256TIP3   OH2  773   2.335   5.944   2.151  0.0903 -0.0561  0.3034
  256TIP3    H1  774   2.425   5.966   2.128 -0.9354  1.2932 -2.9435
  256TIP3    H2  775   2.288   6.027   2.147 -1.2020 -0.5910  2.8232
  257TIP3   OH2  776   3.568   1.621   0.515  0.2259 -0.5657 -0.1676
  257TIP3    H1  777   3.484   1.610   0.561 -1.2148  3.0236 -1.5688
  257TIP3    H2  778   3.606   1.699   0.554  0.9630  0.1510 -2.1924
  258TIP3   OH2  779   4.192   0.583   5.059 -0.1902  0.5725 -0.2819
  258TIP3    H1  780   4.231   0.496   5.058  0.1105  0.7084 -0.7065
  258TIP3    H2  781   4.258   0.639   5.098 -1.0095  0.3386  1.5388
  259TIP3   OH2  782   3.343   1.223   3.658  0.2039  0.3585 -0.0372
  259TIP3    H1  783   3.412   1.162   3.630 -0.2680 -0.0165 -0.3972
  259TIP3    H2  784   3.382   1.310   3.646  1.2098  0.1206  1.3419
  260TIP3   OH2  785   4.684   1.157   3.767  0.0896  0.4752  1.1014
  260TIP3    H1  786   4.716   1.203   3.690  1.2766 -0.9935  0.6622
  260TIP3    H2  787   4.760   1.152   3.826 -0.1230 -0.5090  1.3153
  261TIP3   OH2  788   6.157   4.232   2.364  0.0318 -0.1560  0.3515
  261TIP3    H1  789   6.218   4.248   2.292 -0.9288  0.7773 -0.2851
  261TIP3    H2  790   6.117   4.148   2.343  0.4387 -0.3347  0.2895
  262TIP3   OH2  791   0.033   1.345   2.131  0.1271  0.2649 -0.0282
  262TIP3    H1  792   0.092   1.311   2.198 -1.0023  0.4078  1.0655
  262TIP3    H2  793  -0.032   1.276   2.119  0.5262  0.0835 -1.2619
  263TIP3   OH2  794   0.569   4.622   3.600  0.4982  0.1276 -0.0229
  263TIP3    H1  795   0.494   4.669   3.636  2.0113  0.5938  2.8479
  263TIP3    H2  796   0.534   4.538   3.570 -1.4009  0.9945 -0.3452
  264TIP3   OH2  797   0.328   5.713   4.258 -0.2151 -0.4759 -0.1108
  264TIP3    H1  798   0.385   5.637   4.269 -0.3092 -0.5681 -0.2625
  264TIP3    H2  799   0.243   5.676   4.232 -0.1906 -0.3027 -0.4418
  265TIP3   OH2  800   5.842   2.472   4.137  0.0779 -0.0299  0.1491
  265TIP3    H1  801   5.884   2.387   4.152  1.9454  0.7559 -0.2768
  265TIP3    H2  802   5.767   2.473   4.196  0.0819 -1.9173  0.2395
  266TIP3   OH2  803   4.719   2.933   2.617  0.2339 -0.0408 -0.5276
  266TIP3    H1  804   4.667   2.947   2.538 -0.3476 -3.7485 -0.9895
  266TIP3    H2  805   4.675   2.985   2.684 -2.0345 -0.3724 -1.6680
  267TIP3   OH2  806   1.965   5.248   2.950  0.2948 -0.2786  0.2083
  267TIP3    H1  807   1.984   5.187   3.022  0.9573  0.7892  0.9766
  267TIP3    H2  808   1.902   5.310   2.988  1.1398  0.6782  0.0906
  268TIP3   OH2  809   5.813   5.649   3.017 -0.2011  0.3740  0.3000
  268TIP3    H1  810   5.792   5.593   2.942  2.4922 -0.4466  0.0583
  268TIP3    H2  811   5.810   5.590   3.092 -0.5815  0.6775  0.5287
  269TIP3   OH2  812   4.018   3.360   4.209 -0.0643 -0.8318  1.1497
  269TIP3    H1  813   3.947   3.375   4.272 -0.9866 -0.1342 -0.0007
  269TIP3    H2  814   4.097   3.389   4.254 -1.0995  2.9577  0.8804
  270TIP3   OH2  815   4.738   1.811   1.218  0.1138 -0.5702 -0.2957
  270TIP3    H1  816   4.713   1.900   1.192 -0.2988 -0.9966 -1.4201
  270TIP3    H2  817   4.677   1.755   1.170 -0.9192 -1.4081  1.9005
  271TIP3   OH2  818   2.312   4.078   2.484 -0.2371  0.3372  0.5113
  271TIP3    H1  819   2.396   4.053   2.445 -0.8955 -2.2278  0.5610
  271TIP3    H2  820   2.332   4.093   2.576  0.3503  0.8847  0.3049
  272TIP3   OH2  821   1.793   0.578   3.298  0.2186  0.0105 -0.2166
  272TIP3    H1  822   1.863   0.538   3.350 -1.4256 -0.7285  1.5341
  272TIP3    H2  823   1.773   0.660   3.344  0.5023  0.6758 -1.2327
  273TIP3   OH2  824   5.601   2.617   2.196 -0.2380  0.7711  0.4996
  273TIP3    H1  825   5.632   2.542   2.144 -2.0406  0.8029 -0.6943
  273TIP3    H2  826   5.537   2.579   2.256  0.5518  1.0251  1.5307
  274TIP3   OH2  827   5.375   5.373   4.973 -0.2303 -0.3657  0.7795
  274TIP3    H1  828   5.368   5.422   5.055  0.2282  0.8165  0.1374
  274TIP3    H2  829   5.289   5.383   4.932  0.2858  1.1854 -0.0184
  275TIP3   OH2  830   0.372   3.966   4.120  0.0873  0.5664  0.4890
  275TIP3    H1  831   0.301   4.030   4.116 -0.8275 -0.3856  1.0270
  275TIP3    H2  832   0.418   3.976   4.036 -0.8219  1.0220  0.0280
  276TIP3   OH2  833   0.654   1.909   2.691 -0.6510 -0.1880  0.6878
  276TIP3    H1  834   0.633   1.821   2.721  0.5693 -0.4866  0.6981
  276TIP3    H2  835   0.652   1.903   2.595 -0.4243 -0.2748  0.6864
  277TIP3   OH2  836   5.332   2.127   1.246 -0.6252  0.2317  0.1319
  277TIP3    H1  837   5.290   2.061   1.191  1.8695 -1.6502  0.3173
  277TIP3    H2  838   5.304   2.105   1.335  1.6544 -1.9027  0.4176
  278TIP3   OH2  839   3.992   3.260   4.652 -0.1189 -0.6481 -0.6202
  278TIP3    H1  840   3.919   3.223   4.701 -0.7445  0.2995 -0.8090
  278TIP3    H2  841   4.040   3.184   4.618 -0.7042 -1.2838 -0.0463
  279TIP3   OH2  842   1.801   1.272   4.679  0.1395  0.5274 -0.1890
  279TIP3    H1  843   1.860   1.345   4.662 -0.2311  1.0598  0.6899
  279TIP3    H2  844   1.778   1.238   4.593 -0.7019  2.2892 -0.7161
  280TIP3   OH2  845   2.230   2.295   0.152 -0.0751  0.2622  0.0208
  280TIP3    H1  846   2.159   2.310   0.090  1.0910  0.6424 -1.2623
  280TIP3    H2  847   2.239   2.378   0.198  0.5283  0.6942 -0.8712
  281TIP3   OH2  848   2.463   1.871   4.176  0.6191 -0.0154 -0.3670
  281TIP3    H1  849   2.540   1.876   4.231  0.5280  1.5926 -0.3518
  281TIP3    H2  850   2.389   1.865   4.237  0.5699  0.9886 -0.3214
  282TIP3   OH2  851   4.015   4.224   0.360  0.5293  0.0450 -0.1938
  282TIP3    H1  852   3.980   4.249   0.445 -2.7614 -1.2769 -0.9978
  282TIP3    H2  853   3.988   4.295   0.301  0.6849 -0.2002 -0.5653
  283TIP3   OH2  854   5.727   1.275   2.102 -0.3068  0.1559  0.5298
  283TIP3    H1  855   5.685   1.228   2.174 -1.3852  2.6167  1.6293
  283TIP3    H2  856   5.662   1.276   2.032  0.6084 -1.9247 -0.4365
  284TIP3   OH2  857   3.560   1.669   5.061 -0.1844 -0.2349 -0.3444
  284TIP3    H1  858   3.623   1.741   5.068 -1.0774  0.6143 -0.7418
  284TIP3    H2  859   3.601   1.597   5.108  1.0958  0.2791 -0.6072
  285TIP3   OH2  860   0.600   2.489   5.072 -0.2478 -0.4399 -0.3517
  285TIP3    H1  861   0.516   2.521   5.106  0.7000  1.4789  0.3192
  285TIP3    H2  862   0.617   2.410   5.123 -1.8577 -1.1576 -0.8505
  286TIP3   OH2  863   1.859   3.954   0.969  0.7462  0.0468  0.2673
  286TIP3    H1  864   1.869   3.912   0.884 -1.1972 -0.7695  0.3908
  286TIP3    H2  865   1.831   4.043   0.949 -1.7763 -0.7290 -0.0171
  287TIP3   OH2  866   1.925   3.960   3.137  0.1154  0.0555  0.4916
  287TIP3    H1  867   1.859   3.916   3.191 -1.9013  0.5784 -1.3984
  287TIP3    H2  868   1.944   4.041   3.184  2.0381 -1.5648  2.7542
  288TIP3   OH2  869   0.633   1.677   3.790 -0.2609  0.1169 -0.2842
  288TIP3    H1  870   0.606   1.734   3.862  1.9007 -0.4767  1.0891
  288TIP3    H2  871   0.657   1.736   3.719 -2.1315  0.7195 -0.4753
  289TIP3   OH2  872   1.715   2.347   3.467 -0.2900  0.1292 -0.3966
  289TIP3    H1  873   1.692   2.383   3.552  2.1981 -0.5828  0.6585
  289TIP3    H2  874   1.679   2.258   3.468  2.9862 -1.3804  1.6833
  290TIP3   OH2  875   1.895   2.709   2.595 -0.1400 -0.3315 -0.1096
  290TIP3    H1  876   1.946   2.628   2.606 -0.9131 -0.9427 -0.9098
  290TIP3    H2  877   1.865   2.706   2.504 -0.6235  0.5976  0.0140
  291TIP3   OH2  878   5.406   4.194   1.311 -0.0528  0.3570  0.1080
  291TIP3    H1  879   5.353   4.193   1.232  0.4963  0.4773 -0.2641
  291TIP3    H2  880   5.379   4.115   1.359  0.4555 -0.3712 -0.7667
  292TIP3   OH2  881   0.203   2.950   1.420  0.5644  0.6791 -0.8895
  292TIP3    H1  882   0.122   2.954   1.368 -0.2748  0.1531  0.3298
  292TIP3    H2  883   0.197   2.867   1.467  2.2222  0.2433 -1.3822
  293TIP3   OH2  884   2.864   5.545   3.151  0.0677  0.3114 -0.1144
  293TIP3    H1  885   2.862   5.505   3.064 -0.2818  0.0162  0.0282
  293TIP3    H2  886   2.955   5.574   3.161  0.4109 -0.7005 -0.1164
  294TIP3   OH2  887   0.526   2.088   5.063 -0.0826  0.6031 -0.6088
  294TIP3    H1  888   0.565   2.039   4.990  0.0099  1.0405 -0.8521
  294TIP3    H2  889   0.454   2.136   5.025 -1.9354 -1.4196  0.1140
  295TIP3   OH2  890   1.839   0.352   2.941  0.1516 -0.1283  0.5216
  295TIP3    H1  891   1.815   0.439   2.909  0.8431 -0.6245 -1.5077
  295TIP3    H2  892   1.776   0.334   3.011 -1.4158  1.1048 -0.4826
  296TIP3   OH2  893   4.781   5.663   0.096 -0.4257 -0.5869  0.6828
  296TIP3    H1  894   4.820   5.731   0.041 -0.2393 -0.6500  0.7374
  296TIP3    H2  895   4.782   5.699   0.185 -0.8577 -0.4266  0.6271
  297TIP3   OH2  896   0.043   0.074   2.457  0.4742  0.2581  0.0035
  297TIP3    H1  897   0.008   0.026   2.382  0.7471 -0.4072  0.2954
  297TIP3    H2  898   0.043   0.010   2.528 -0.5701  1.1091  0.7936
  298TIP3   OH2  899   1.297   1.196   0.414 -0.4282 -0.1320 -0.0091
  298TIP3    H1  900   1.274   1.132   0.482 -3.3371 -0.5563 -1.2503
  298TIP3    H2  901   1.329   1.142   0.341  2.7768  0.3283  0.8859
  299TIP3   OH2  902   3.395   0.525   1.374 -0.9384  0.0252 -0.3055
  299TIP3    H1  903   3.387   0.620   1.378 -1.7975  0.0886 -2.1718
  299TIP3    H2  904   3.433   0.507   1.288 -0.3155 -1.3136  0.2065
  300TIP3   OH2  905   1.066   1.351   1.538  0.5869  0.3579  0.2603
  300TIP3    H1  906   1.059   1.359   1.443  0.1082 -0.2485  0.2396
  300TIP3    H2  907   0.977   1.363   1.570  0.8859  1.4655  0.7114
  301TIP3   OH2  908   4.337   1.831   3.064  0.1850  0.5774  0.4345
  301TIP3    H1  909   4.379   1.917   3.058  0.5749  0.5626  2.3995
  301TIP3    H2  910   4.247   1.846   3.035  0.6115  1.3321 -0.5624
  302TIP3   OH2  911   3.041   0.148   3.342 -0.7026 -0.0702 -0.3688
  302TIP3    H1  912   3.033   0.170   3.434 -1.1697  0.2837 -0.4900
  302TIP3    H2  913   3.080   0.060   3.341 -2.0786 -0.7114  0.1894
  303TIP3   OH2  914   5.671   5.648   2.124  0.0640 -0.1964  0.4506
  303TIP3    H1  915   5.686   5.586   2.052  0.1795  0.5976 -0.2300
  303TIP3    H2  916   5.758   5.677   2.149  0.0251 -0.5067  0.9430
  304TIP3   OH2  917   1.226   3.240   0.338 -0.0347  0.1168 -0.3448
  304TIP3    H1  918   1.190   3.201   0.417  0.8051 -0.0015 -0.0088
  304TIP3    H2  919   1.175   3.320   0.325 -0.4903 -0.1039  0.0394
  305TIP3   OH2  920   3.367   1.965   3.331  0.4114 -0.2864  0.4915
  305TIP3    H1  921   3.280   1.966   3.291  0.4741 -0.4514  0.3485
  305TIP3    H2  922   3.426   1.939   3.260  0.6543  0.3869  0.4315
  306TIP3   OH2  923   2.929   0.050   0.947 -0.0825 -0.0257  0.9774
  306TIP3    H1  924   2.885   0.055   1.032  0.5454 -0.1832  1.3173
  306TIP3    H2  925   2.866   0.088   0.885 -0.6946 -0.2565  1.4516
  307TIP3   OH2  926   3.661   4.063   3.233  0.5400 -0.6216 -0.2951
  307TIP3    H1  927   3.728   3.997   3.249  0.9827  0.4225  2.8386
  307TIP3    H2  928   3.710   4.143   3.213  0.1139 -0.5296 -0.9994
  308TIP3   OH2  929   3.639   2.735   5.155  0.2307  0.5687 -0.4741
  308TIP3    H1  930   3.581   2.720   5.081  0.9111  0.4685 -0.9892
  308TIP3    H2  931   3.657   2.648   5.190 -0.4458  0.6439  0.0999
  309TIP3   OH2  932   5.952   3.812   0.152 -0.5591 -0.3732 -0.5007
  309TIP3    H1  933   5.918   3.861   0.078 -1.3750  0.9740  0.7254
  309TIP3    H2  934   5.878   3.805   0.213  1.2686  3.2727  2.5830
  310TIP3   OH2  935   5.121   5.366   1.010  0.2108  0.0471 -0.2227
  310TIP3    H1  936   5.133   5.412   0.927 -1.1271  0.1910 -0.3577
  310TIP3    H2  937   5.095   5.434   1.072 -1.2755 -0.4151 -0.3021
  311TIP3   OH2  938   4.064   5.442   3.787  0.6494  0.4212 -0.3619
  311TIP3    H1  939   4.135   5.507   3.781  0.9350  0.1358 -0.1053
  311TIP3    H2  940   4.108   5.359   3.769  0.2681  0.3067 -0.7754
  312TIP3   OH2  941   4.180   2.942   4.832  0.4486  0.5949 -0.2758
  312TIP3    H1  942   4.147   2.965   4.745  0.8302  1.1645 -0.2726
  312TIP3    H2  943   4.231   2.862   4.817  1.5619  1.3741 -0.8080
  313TIP3   OH2  944   2.468   0.949   4.194  0.5241  0.0987  0.0959
  313TIP3    H1  945   2.387   0.997   4.178  1.2132  0.6219 -2.2005
  313TIP3    H2  946   2.451   0.861   4.158 -0.0119 -0.8038  2.3802
  314TIP3   OH2  947   1.194   0.610   1.435  0.2422  0.3891 -1.0036
  314TIP3    H1  948   1.108   0.637   1.469  0.5789  0.1166  0.0962
  314TIP3    H2  949   1.200   0.517   1.454  0.8087  0.4160 -1.0276
  315TIP3   OH2  950   1.405   1.128   2.083 -0.1285  0.4765  0.0828
  315TIP3    H1  951   1.318   1.169   2.086 -1.0056 -1.0831 -1.9423
  315TIP3    H2  952   1.453   1.180   2.018 -0.5071 -0.2911 -0.8408
  316TIP3   OH2  953   1.622   1.218   1.046 -0.0163  0.2880  0.4027
  316TIP3    H1  954   1.669   1.298   1.024  2.7162 -0.9413  1.3047
  316TIP3    H2  955   1.566   1.202   0.970  2.7432  0.6797 -1.8957
  317TIP3   OH2  956   5.988   2.677   3.984  0.3289 -0.2299  0.9481
  317TIP3    H1  957   6.029   2.750   4.031 -0.6929  0.1035  1.3541
  317TIP3    H2  958   5.945   2.626   4.053  0.4850 -0.8572  0.5902
  318TIP3   OH2  959   0.720   2.195   1.191  0.0159  0.1455 -0.6307
  318TIP3    H1  960   0.648   2.240   1.236  0.6552  0.5742 -0.0083
  318TIP3    H2  961   0.706   2.102   1.209 -0.5988  0.1951 -0.8470
  319TIP3   OH2  962   5.950   1.962   1.524  0.3111  0.0112 -0.0818
  319TIP3    H1  963   6.030   1.926   1.562  0.7170 -0.0283 -0.9360
  319TIP3    H2  964   5.916   1.891   1.469 -1.7285 -0.9018  2.2345
  320TIP3   OH2  965   6.256   2.297   4.217  0.5527 -0.0775  0.4867
  320TIP3    H1  966   6.312   2.249   4.278  1.9545  1.5979  0.5977
  320TIP3    H2  967   6.315   2.326   4.148 -0.1267  1.8664  0.6654
  321TIP3   OH2  968   1.357   3.961   3.514  0.0123 -0.5614 -0.5133
  321TIP3    H1  969   1.414   4.003   3.578 -0.5249 -0.0407 -0.3703
  321TIP3    H2  970   1.325   4.033   3.460 -0.4459 -0.8645 -0.6468
  322TIP3   OH2  971   1.267   5.702   3.810 -0.1274 -0.0577  0.2186
  322TIP3    H1  972   1.218   5.675   3.733 -0.0449 -2.1606  0.8079
  322TIP3    H2  973   1.279   5.620   3.860  2.1892  0.7163  1.0952
  323TIP3   OH2  974   5.781   3.893   0.951 -0.2076  0.1257  0.1243
  323TIP3    H1  975   5.725   3.907   1.027 -0.4785  2.1129 -0.3983
  323TIP3    H2  976   5.721   3.871   0.880 -0.3446  2.0254 -0.3813
  324TIP3   OH2  977   0.439   1.071   2.211 -0.0126  0.1495  0.2523
  324TIP3    H1  978   0.473   1.026   2.289 -0.7698 -1.1610 -0.1386
  324TIP3    H2  979   0.511   1.067   2.148  0.2981  0.4371  0.5858
  325TIP3   OH2  980   1.960   2.490   3.505 -0.0548  0.1576  0.2765
  325TIP3    H1  981   1.906   2.418   3.471 -0.1976  1.3450 -2.2614
  325TIP3    H2  982   2.046   2.475   3.467 -0.2121  1.5436 -0.6793
  326TIP3   OH2  983   6.344   5.093   3.797 -0.2455  0.2007 -0.5268
  326TIP3    H1  984   6.263   5.043   3.788  0.0100 -0.7578  1.7410
  326TIP3    H2  985   6.317   5.179   3.829 -0.3648 -0.4967  1.3752
  327TIP3   OH2  986   1.754   0.017   2.265  0.2001  0.8921 -0.5320
  327TIP3    H1  987   1.822  -0.002   2.330  1.0982  1.5539 -1.2480
  327TIP3    H2  988   1.792   0.085   2.210 -1.1115  1.3792 -0.8734
  328TIP3   OH2  989   1.105   5.557   1.159  0.1146 -0.2205  0.2696
  328TIP3    H1  990   1.166   5.484   1.159  0.4605  0.0505 -1.0278
  328TIP3    H2  991   1.048   5.542   1.084  0.6844  1.2241 -0.4888
  329TIP3   OH2  992   0.156   3.449   4.121  0.3084 -0.1147  0.1844
  329TIP3    H1  993   0.231   3.481   4.170  1.4771 -1.6493 -0.4764
  329TIP3    H2  994   0.081   3.458   4.180  1.1163  0.9066  1.0740
  330TIP3   OH2  995   5.933   3.264   4.602 -0.4733  0.1990  0.1350
  330TIP3    H1  996   6.004   3.225   4.655  1.5065  1.2243 -1.6007
  330TIP3    H2  997   5.905   3.193   4.544 -0.5148 -0.0839  0.4982
  331TIP3   OH2  998   1.174   3.369   3.421  0.2870  0.5030 -0.1401
  331TIP3    H1  999   1.166   3.302   3.354  0.3427 -0.5941  0.9113
  331TIP3    H2 1000   1.174   3.320   3.504 -1.1079  1.8865  0.7347
  332TIP3   OH2 1001   4.469   2.450   0.011  0.7611  0.0701 -0.3153
  332TIP3    H1 1002   4.488   2.496  -0.070  2.1930  0.7909  0.3944
  332TIP3    H2 1003   4.547   2.462   0.065 -0.0033 -0.6995  1.0372
  333TIP3   OH2 1004   2.895   1.401   2.328  0.4074 -0.4303  0.1800
  333TIP3    H1 1005   2.954   1.469   2.362 -0.7991  0.9462 -0.3741
  333TIP3    H2 1006   2.880   1.343   2.403  0.1054  0.8937  1.1853
  334TIP3   OH2 1007   3.179   5.512   4.558 -0.1061  0.2375  0.0456
  334TIP3    H1 1008   3.098   5.464   4.574 -1.8172  2.7071 -0.6771
  334TIP3    H2 1009   3.184   5.574   4.631 -0.1770  1.7024 -1.1498
  335TIP3   OH2 1010   5.499   5.270   3.374  0.0789 -0.4151  0.4282
  335TIP3    H1 1011   5.519   5.260   3.467 -1.2799 -0.0120  0.7835
  335TIP3    H2 1012   5.453   5.189   3.351 -0.9910  0.1628  0.5102
  336TIP3   OH2 1013   2.792   4.698   4.958 -0.2103 -0.4449 -0.2279
  336TIP3    H1 1014   2.740   4.699   5.038  0.8958 -1.0433  0.5309
  336TIP3    H2 1015   2.867   4.755   4.978 -0.5405  0.3929 -1.2884
  337TIP3   OH2 1016   6.269   1.099   2.172  0.4047  0.3004 -0.8115
  337TIP3    H1 1017   6.203   1.034   2.197 -0.7727  1.6176 -0.3613
  337TIP3    H2 1018   6.352   1.052   2.177 -0.4101 -1.1883 -0.5931
  338TIP3   OH2 1019   1.392   3.334   3.222 -0.0749  0.6601  0.0505
  338TIP3    H1 1020   1.464   3.361   3.166  0.3147  0.2286  0.3408
  338TIP3    H2 1021   1.404   3.383   3.303 -0.1816  0.6840  0.0530
  339TIP3   OH2 1022   0.374   0.010   2.867  0.0436  0.2956 -0.2385
  339TIP3    H1 1023   0.329   0.013   2.952 -0.4803 -0.4095 -0.4811
  339TIP3    H2 1024   0.457   0.054   2.882  1.5341 -2.8264  1.6074
  340TIP3   OH2 1025   5.875   2.540   4.497 -0.1271  0.3041 -0.0959
  340TIP3    H1 1026   5.830   2.477   4.553 -0.4498 -0.9359 -1.7011
  340TIP3    H2 1027   5.965   2.505   4.490  0.4326  1.4294  1.0710
  341TIP3   OH2 1028   4.689   0.629   1.695  0.2535 -0.5002  0.0645
  341TIP3    H1 1029   4.696   0.717   1.734  0.0502 -1.7940  3.3893
  341TIP3    H2 1030   4.605   0.630   1.649  0.0294  0.9116  0.4389
  342TIP3   OH2 1031   6.137   2.413   1.500  0.0435 -0.5519  0.1297
  342TIP3    H1 1032   6.232   2.407   1.493  0.1848 -0.8184  1.9323
  342TIP3    H2 1033   6.106   2.323   1.487  0.0979 -0.5958  0.3034
  343TIP3   OH2 1034   2.903   1.985   3.061 -0.3341 -0.2420  0.0938
  343TIP3    H1 1035   2.902   2.075   3.027  0.9916 -0.2423  0.0025
  343TIP3    H2 1036   2.813   1.969   3.089 -0.9221  0.6112 -1.2022
  344TIP3   OH2 1037   5.061   2.719   4.051  0.1575  0.0915  0.0281
  344TIP3    H1 1038   5.019   2.804   4.058  0.8844  0.3879  0.9683
  344TIP3    H2 1039   5.056   2.682   4.139  0.8024 -0.3711 -0.1207
  345TIP3   OH2 1040   1.991   3.667   4.036 -0.0385  0.6211 -0.2996
  345TIP3    H1 1041   1.945   3.652   3.954  0.0176  0.5973 -0.3265
  345TIP3    H2 1042   1.971   3.758   4.059 -2.8593 -0.2894  1.3986
  346TIP3   OH2 1043   2.064   1.818   3.270  0.4479 -0.1389 -0.2535
  346TIP3    H1 1044   2.114   1.835   3.351  0.8934  0.5626 -0.6651
  346TIP3    H2 1045   2.018   1.736   3.288 -0.0583  0.3816  0.9995
  347TIP3   OH2 1046   5.391   0.295   0.682 -1.1039  0.1161 -0.3652
  347TIP3    H1 1047   5.328   0.235   0.722 -1.3789  0.6584  0.0441
  347TIP3    H2 1048   5.347   0.326   0.603 -0.2820 -1.4790 -1.4864
  348TIP3   OH2 1049   1.664   2.844   0.130 -0.6529  0.2019  0.0997
  348TIP3    H1 1050   1.620   2.812   0.209 -0.3197  0.3777  0.3594
  348TIP3    H2 1051   1.664   2.770   0.070 -0.6476 -0.0228  0.3786
  349TIP3   OH2 1052   0.240   0.128   4.450  0.3909 -0.0505  0.1462
  349TIP3    H1 1053   0.155   0.146   4.490 -0.3035  0.1568 -1.3235
  349TIP3    H2 1054   0.285   0.072   4.513 -0.2963  0.9182  1.5572
  350TIP3   OH2 1055   1.182   3.265   1.040 -0.1432  0.0932  0.3437
  350TIP3    H1 1056   1.129   3.217   1.104 -1.0824  2.6445  1.6216
  350TIP3    H2 1057   1.118   3.316   0.990  0.6284 -1.4330 -2.3882
  351TIP3   OH2 1058   4.100   2.471   1.551  0.3345  0.3107 -0.1964
  351TIP3    H1 1059   4.134   2.396   1.600 -1.2411 -1.3148 -1.4587
  351TIP3    H2 1060   4.126   2.547   1.603  0.9144 -1.1610  1.7967
  352TIP3   OH2 1061   5.417   4.663   3.435  0.2772  0.2299 -0.3100
  352TIP3    H1 1062   5.338   4.710   3.463  0.6190  0.4989  0.2050
  352TIP3    H2 1063   5.474   4.663   3.511  0.5518 -0.4622 -0.5067
  353TIP3   OH2 1064   1.843   3.251   2.614 -0.5410  0.6521  0.0074
  353TIP3    H1 1065   1.831   3.159   2.588  0.1211  0.0658  1.6141
  353TIP3    H2 1066   1.936   3.268   2.600 -0.7534  1.2268 -0.7131
  354TIP3   OH2 1067   3.530   1.626   0.252  0.0322 -0.5940  0.1496
  354TIP3    H1 1068   3.558   1.631   0.343 -0.0574 -0.1367  0.1567
  354TIP3    H2 1069   3.611   1.632   0.201  0.0603 -0.5714  0.1966
  355TIP3   OH2 1070   0.888   2.846   1.893  0.1929  0.2747 -0.1915
  355TIP3    H1 1071   0.900   2.755   1.867  1.3228  0.2044  0.4739
  355TIP3    H2 1072   0.933   2.897   1.826 -1.0838  0.4079 -0.9725
  356TIP3   OH2 1073   2.842   1.801   4.722 -0.3389 -0.0454  0.3386
  356TIP3    H1 1074   2.874   1.725   4.771  1.9261  0.8925  0.3885
  356TIP3    H2 1075   2.870   1.877   4.772 -1.2448  0.8865 -0.5039
  357TIP3   OH2 1076   4.318   5.289   4.113  0.9919  0.1515 -0.3335
  357TIP3    H1 1077   4.388   5.326   4.168  0.6876 -0.8828  0.8057
  357TIP3    H2 1078   4.320   5.195   4.133 -0.8020  0.1242 -0.1715
  358TIP3   OH2 1079   4.593   1.117   2.017  0.1787 -0.4460 -0.2361
  358TIP3    H1 1080   4.529   1.080   1.955 -0.6308  1.0549 -0.3440
  358TIP3    H2 1081   4.566   1.208   2.027  1.2491 -0.2573  1.1306
  359TIP3   OH2 1082   3.072   3.898   4.667  0.2329 -0.4086  0.9984
  359TIP3    H1 1083   3.005   3.912   4.599 -1.5792 -2.0493  2.3371
  359TIP3    H2 1084   3.082   3.983   4.709 -0.9570 -0.1041  0.7004
  360TIP3   OH2 1085   0.185   2.147   3.876  0.1228 -0.0542  0.3913
  360TIP3    H1 1086   0.199   2.079   3.810 -0.8973  0.4165 -0.3449
  360TIP3    H2 1087   0.090   2.155   3.882  0.2237  1.1709  0.6086
  361TIP3   OH2 1088   2.158   4.349   5.009 -0.2247  0.2515 -0.0873
  361TIP3    H1 1089   2.233   4.365   5.067  0.1492 -2.1628  0.1929
  361TIP3    H2 1090   2.178   4.397   4.929  0.9884  0.6858  0.4561
  362TIP3   OH2 1091   5.579   2.541   1.139 -0.4884 -0.3718  0.3882
  362TIP3    H1 1092   5.623   2.491   1.208  1.7534  0.6135 -0.2456
  362TIP3    H2 1093   5.531   2.475   1.089  0.4034 -1.5475  1.0202
  363TIP3   OH2 1094   1.690   1.489   2.884 -0.1748  0.3720  0.4227
  363TIP3    H1 1095   1.600   1.462   2.872  0.2911 -0.7293 -0.7415
  363TIP3    H2 1096   1.737   1.409   2.907  0.8499  0.5492 -0.9670
  364TIP3   OH2 1097   4.971   2.174   2.167 -0.4151 -0.1505  0.1375
  364TIP3    H1 1098   4.927   2.106   2.218 -0.5980 -0.7093 -0.7336
  364TIP3    H2 1099   5.050   2.194   2.216 -0.4485 -0.8733  0.4915
  365TIP3   OH2 1100   0.571   0.586   0.428 -0.0487  0.2810  0.4159
  365TIP3    H1 1101   0.554   0.621   0.515 -0.1009 -1.5039  1.1784
  365TIP3    H2 1102   0.631   0.513   0.443 -0.9164 -0.7634 -0.9066
  366TIP3   OH2 1103   3.861   5.942   4.560  0.0763 -0.3188 -0.1153
  366TIP3    H1 1104   3.833   6.006   4.624 -0.3883 -0.9908  0.3671
  366TIP3    H2 1105   3.784   5.927   4.505  0.5647  0.5075 -1.0732
  367TIP3   OH2 1106   0.855   2.631   0.349 -0.2257  0.0014  0.0791
  367TIP3    H1 1107   0.790   2.591   0.406 -0.8905  1.7366  0.6294
  367TIP3    H2 1108   0.807   2.700   0.303  1.5428  2.6504  1.9272
  368TIP3   OH2 1109   0.339   5.753   2.747 -0.3890 -0.3152 -0.4652
  368TIP3    H1 1110   0.387   5.764   2.665 -0.0381  0.9525 -0.1109
  368TIP3    H2 1111   0.263   5.699   2.724  0.8550 -1.8107 -1.1621
  369TIP3   OH2 1112   0.985   2.799   1.303 -0.2027 -0.4083 -0.0189
  369TIP3    H1 1113   1.017   2.743   1.232 -0.2765 -1.0534  0.4493
  369TIP3    H2 1114   1.064   2.826   1.350  0.0953  2.0126 -1.7571
  370TIP3   OH2 1115   1.869   4.331   3.788  0.0866  0.7759  0.3651
  370TIP3    H1 1116   1.891   4.314   3.879 -0.9352 -0.7470  0.3437
  370TIP3    H2 1117   1.775   4.351   3.788 -0.1998 -0.4765 -0.4916
  371TIP3   OH2 1118   2.826   4.125   2.906  0.4197  0.0301 -0.0293
  371TIP3    H1 1119   2.783   4.178   2.974 -0.9806  0.7786 -1.4346
  371TIP3    H2 1120   2.796   4.036   2.923 -0.2030  0.2624  0.1385
  372TIP3   OH2 1121   0.011   3.817   1.887 -0.3737  0.0400  0.5226
  372TIP3    H1 1122   0.088   3.827   1.830 -0.8347  1.6645  0.1220
  372TIP3    H2 1123   0.041   3.850   1.972 -0.2820 -0.4537  0.6819
  373TIP3   OH2 1124   2.485   2.244   1.538 -0.3535 -0.3045 -0.1974
  373TIP3    H1 1125   2.396   2.256   1.504 -1.2240  1.0038  2.2991
  373TIP3    H2 1126   2.538   2.227   1.460 -2.2199  2.2060 -2.1850
  374TIP3   OH2 1127   3.466   4.053   4.048 -0.5187  0.6981 -0.2159
  374TIP3    H1 1128   3.373   4.061   4.031 -0.7179  0.9734  0.9217
  374TIP3    H2 1129   3.486   3.961   4.030 -1.0892  0.5553 -0.1268
  375TIP3   OH2 1130   6.098   5.532   4.203 -0.5768  0.2143  0.0565
  375TIP3    H1 1131   6.113   5.620   4.238 -1.5748  0.8676 -1.0546
  375TIP3    H2 1132   6.052   5.486   4.273  0.4206  0.3819  0.8514
  376TIP3   OH2 1133   3.261   5.420   3.039 -0.5617  0.2066  0.5657
  376TIP3    H1 1134   3.267   5.470   3.121  0.3687 -0.1583  0.7334
  376TIP3    H2 1135   3.170   5.390   3.036 -0.7481  0.6755  1.1939
  377TIP3   OH2 1136   2.906   4.835   3.184  0.2780  0.4703 -0.1860
  377TIP3    H1 1137   2.870   4.826   3.095 -0.8557 -0.3722  0.3380
  377TIP3    H2 1138   2.974   4.767   3.188  0.3094  0.4865 -0.3971
  378TIP3   OH2 1139   0.352   4.566   0.125 -0.2034  0.2130 -0.8768
  378TIP3    H1 1140   0.310   4.492   0.082 -0.4635 -0.9725  1.2600
  378TIP3    H2 1141   0.337   4.551   0.219  2.3721  1.3583 -0.1833
  379TIP3   OH2 1142   0.774   4.759   2.078 -0.5066  0.2934  0.3091
  379TIP3    H1 1143   0.804   4.706   2.005  1.0730 -0.3780  1.3785
  379TIP3    H2 1144   0.815   4.844   2.065 -0.2368  0.1775  0.3780
  380TIP3   OH2 1145   1.217   3.479   2.064  0.0330  0.2705  0.2698
  380TIP3    H1 1146   1.263   3.399   2.037 -2.3269 -1.0583 -0.0527
  380TIP3    H2 1147   1.285   3.547   2.062  1.6825 -1.2936 -1.4647
  381TIP3   OH2 1148   0.968   2.555   3.347 -0.3029 -0.1107  0.2817
  381TIP3    H1 1149   1.016   2.527   3.269 -0.5895 -1.7022  0.6455
  381TIP3    H2 1150   0.897   2.609   3.313  1.4261  1.9144 -0.2953
  382TIP3   OH2 1151   2.539   4.630   1.131  0.3590  0.1536 -0.0452
  382TIP3    H1 1152   2.532   4.632   1.226 -0.3099 -0.3323 -0.0813
  382TIP3    H2 1153   2.597   4.557   1.113  1.8814  1.2806  0.0445
  383TIP3   OH2 1154   3.008   1.595   1.616 -0.0221  0.5308 -0.0758
  383TIP3    H1 1155   2.966   1.620   1.698 -1.2760  0.9940 -0.8279
  383TIP3    H2 1156   2.948   1.532   1.577 -0.3545  1.6419 -1.4512
  384TIP3   OH2 1157   0.676   2.567   1.689 -0.0756  0.1283  0.2482
  384TIP3    H1 1158   0.683   2.473   1.671 -0.0922 -0.2142  1.9022
  384TIP3    H2 1159   0.747   2.585   1.750 -0.1956  1.1551  0.0910
  385TIP3   OH2 1160   6.237   2.025   1.181 -0.1283  0.4955 -0.1428
  385TIP3    H1 1161   6.234   1.992   1.091  0.2442  1.7989 -0.6691
  385TIP3    H2 1162   6.330   2.044   1.196  0.0643 -1.2485  1.1318
  386TIP3   OH2 1163   1.345   5.463   0.273  0.0715  0.0177 -0.3539
  386TIP3    H1 1164   1.339   5.488   0.180  0.6145  0.3691 -0.2980
  386TIP3    H2 1165   1.433   5.490   0.299  0.1720 -0.6991  0.0849
  387TIP3   OH2 1166   5.841   1.330   1.095  0.2481  0.4905 -0.1394
  387TIP3    H1 1167   5.751   1.354   1.116 -0.0632 -0.4445 -0.3409
  387TIP3    H2 1168   5.894   1.377   1.160 -0.4296  0.5331  0.4017
  388TIP3   OH2 1169   1.368   5.196   2.636  0.9725 -0.2385 -0.1969
  388TIP3    H1 1170   1.304   5.205   2.707  1.7107 -1.1600  0.6223
  388TIP3    H2 1171   1.451   5.179   2.681  1.3517 -1.4333 -1.2717
  389TIP3   OH2 1172   0.187   3.952   1.067 -0.2795 -0.5091  0.0781
  389TIP3    H1 1173   0.112   3.926   1.121 -1.5297 -0.2302 -1.4600
  389TIP3    H2 1174   0.240   3.873   1.059 -0.1382 -0.5976  1.5475
  390TIP3   OH2 1175   2.986   4.842   4.405 -0.2259 -0.1772 -0.3460
  390TIP3    H1 1176   3.026   4.762   4.373  1.5682  0.6780 -0.3540
  390TIP3    H2 1177   2.899   4.843   4.365  0.1506 -1.5283 -1.2570
  391TIP3   OH2 1178   3.390   0.768   3.602  0.4740  0.3737  0.9206
  391TIP3    H1 1179   3.439   0.843   3.567  1.4522  0.0326  1.5401
  391TIP3    H2 1180   3.427   0.753   3.689  1.1254 -1.5846  0.3480
  392TIP3   OH2 1181   5.858   3.367   1.969  0.3878 -0.4664 -0.5192
  392TIP3    H1 1182   5.862   3.304   2.041 -1.8368 -1.6236 -1.3289
  392TIP3    H2 1183   5.925   3.433   1.991  0.0702 -0.9832  2.3573
  393TIP3   OH2 1184   0.873   3.271   0.477  0.5223 -0.2839  0.4547
  393TIP3    H1 1185   0.924   3.333   0.426  0.3754 -0.6771 -0.1777
  393TIP3    H2 1186   0.792   3.318   0.499  0.3240 -0.3198 -0.1950
  394TIP3   OH2 1187   1.990   5.244   0.187 -0.3110  0.2853 -0.1129
  394TIP3    H1 1188   1.925   5.173   0.187 -1.8152  1.4833  3.1882
  394TIP3    H2 1189   2.056   5.216   0.250  1.3096  0.0993 -1.8007
  395TIP3   OH2 1190   5.224   5.298   0.197  0.7542 -0.2608 -0.5785
  395TIP3    H1 1191   5.235   5.257   0.283  2.8268 -1.6437 -1.4162
  395TIP3    H2 1192   5.130   5.299   0.182  0.4095 -0.8998  1.2809
  396TIP3   OH2 1193   4.526   1.074   0.778 -0.2088  0.7505 -0.5939
  396TIP3    H1 1194   4.584   1.057   0.704  0.9804 -0.8652  0.6224
  396TIP3    H2 1195   4.582   1.113   0.845 -0.5733 -0.4836  0.4761
  397TIP3   OH2 1196   6.038   5.975   2.645 -0.4631  0.0568 -0.0135
  397TIP3    H1 1197   6.095   6.031   2.592 -0.8582 -0.6159 -1.1903
  397TIP3    H2 1198   6.094   5.946   2.717  0.3591  0.2969 -0.5396
  398TIP3   OH2 1199   4.550   3.166   1.714  0.4632  0.0299  0.7609
  398TIP3    H1 1200   4.576   3.250   1.753 -2.4887  1.6060 -0.3398
  398TIP3    H2 1201   4.600   3.161   1.633 -0.2860  1.4668  0.1663
  399TIP3   OH2 1202   2.614   1.673   1.916  0.6270  0.0683 -0.2662
  399TIP3    H1 1203   2.632   1.615   1.842 -0.9546 -1.4417  0.4623
  399TIP3    H2 1204   2.666   1.637   1.988 -0.0768 -0.2391  0.0938
  400TIP3   OH2 1205   4.084   3.916   1.611 -1.2785 -0.1463 -0.3573
  400TIP3    H1 1206   4.066   3.996   1.560 -1.7903 -0.5603 -0.8393
  400TIP3    H2 1207   3.998   3.887   1.641 -1.0742 -0.4311 -0.0454
  401TIP3   OH2 1208   5.716   2.797   0.577  0.2886  0.7956 -0.2852
  401TIP3    H1 1209   5.643   2.815   0.635  0.9756 -0.0294  0.8726
  401TIP3    H2 1210   5.794   2.807   0.631  0.8810 -1.7526 -0.5155
  402TIP3   OH2 1211   4.478   0.841   3.635  1.0725  0.0160 -0.1449
  402TIP3    H1 1212   4.551   0.783   3.615  0.9390 -0.2178  0.0481
  402TIP3    H2 1213   4.409   0.783   3.668  1.1427  0.3438  0.6050
  403TIP3   OH2 1214   5.917   3.166   0.109 -0.0539 -0.1521 -0.0110
  403TIP3    H1 1215   5.834   3.129   0.141  0.4885  0.2877  2.0472
  403TIP3    H2 1216   5.913   3.259   0.135 -0.3825  0.7698 -3.0022
  404TIP3   OH2 1217   2.045   1.831   0.280 -0.3163 -0.2433  0.6623
  404TIP3    H1 1218   1.983   1.904   0.288  0.2170  0.2078  0.7647
  404TIP3    H2 1219   2.046   1.791   0.366 -0.2132 -0.0398  0.7570
  405TIP3   OH2 1220   4.661   5.496   1.259 -0.4398  0.1954  0.0646
  405TIP3    H1 1221   4.622   5.521   1.342  1.6347  1.7835  0.6503
  405TIP3    H2 1222   4.618   5.552   1.194  1.7118  3.0748  0.9043
  406TIP3   OH2 1223   2.907   2.572   0.119 -0.0479  0.1105  0.5542
  406TIP3    H1 1224   2.813   2.554   0.121 -0.3934  1.3884 -1.2953
  406TIP3    H2 1225   2.929   2.598   0.208 -1.9750  2.0584  0.5473
  407TIP3   OH2 1226   3.191   2.697   0.219 -0.2073 -0.4960 -0.4970
  407TIP3    H1 1227   3.115   2.724   0.271 -0.2515 -0.6531 -0.4796
  407TIP3    H2 1228   3.231   2.779   0.191 -1.4981 -0.3728 -2.1413
  408TIP3   OH2 1229   0.657   4.494   2.342 -0.0073 -0.1335  0.2937
  408TIP3    H1 1230   0.581   4.508   2.399  0.5271  0.5108  0.8556
  408TIP3    H2 1231   0.626   4.520   2.255  0.1664  2.1932  0.8597
  409TIP3   OH2 1232   6.129   1.710   0.888 -0.6007  0.1399  0.1673
  409TIP3    H1 1233   6.047   1.713   0.936 -0.7356  0.8292 -0.0903
  409TIP3    H2 1234   6.106   1.677   0.802 -0.4150 -0.7623  0.4556
  410TIP3   OH2 1235   0.151   5.419   0.194  0.5017 -0.4092  0.5534
  410TIP3    H1 1236   0.224   5.410   0.256  0.0771 -1.4055  0.9237
  410TIP3    H2 1237   0.083   5.362   0.228  0.4192 -1.3229 -1.0626
  411TIP3   OH2 1238   1.511   5.033   0.733  0.5228  0.3118  0.2458
  411TIP3    H1 1239   1.434   5.006   0.682  1.1699 -1.9316  0.3701
  411TIP3    H2 1240   1.483   5.025   0.824 -0.1092  2.7571  0.3395
  412TIP3   OH2 1241   0.415   5.402   0.304  0.0115  0.2746 -0.2169
  412TIP3    H1 1242   0.483   5.339   0.280  0.1373  0.5890 -0.7098
  412TIP3    H2 1243   0.377   5.367   0.384 -0.0732 -0.5443 -0.6014
  413TIP3   OH2 1244   1.223   1.102   3.647 -0.1576 -0.5150 -0.3197
  413TIP3    H1 1245   1.194   1.035   3.708  3.3986 -1.5576  0.4261
  413TIP3    H2 1246   1.216   1.061   3.561 -0.3897 -0.8834 -0.1276
  414TIP3   OH2 1247   0.764   5.435   1.692  0.2425  0.1196 -0.8206
  414TIP3    H1 1248   0.681   5.439   1.644  1.0207 -3.1456 -2.7320
  414TIP3    H2 1249   0.829   5.471   1.631  0.8065 -1.3588 -1.1403
  415TIP3   OH2 1250   1.147   5.667   0.800 -0.4643 -0.0467 -0.0013
  415TIP3    H1 1251   1.097   5.742   0.832 -0.5502 -0.3512  0.5897
  415TIP3    H2 1252   1.208   5.705   0.736 -1.0818  0.3996 -0.3406
  416TIP3   OH2 1253   0.959   3.500   1.894 -0.1581 -0.4659  0.3743
  416TIP3    H1 1254   0.900   3.433   1.928  1.2675 -1.6488  0.5834
  416TIP3    H2 1255   1.045   3.479   1.931  0.9123 -0.2137 -1.7981
  417TIP3   OH2 1256   0.542   1.714   0.027 -0.1247 -0.0149  0.0857
  417TIP3    H1 1257   0.460   1.701  -0.021  0.4399  0.6296 -1.0860
  417TIP3    H2 1258   0.517   1.706   0.119 -1.5468  0.3777 -0.2404
  418TIP3   OH2 1259   5.814   2.657   3.548 -0.4344 -0.3278 -0.0876
  418TIP3    H1 1260   5.765   2.588   3.592 -0.8004 -0.2823 -0.4205
  418TIP3    H2 1261   5.893   2.668   3.601 -0.9665 -0.1267  0.6840
  419TIP3   OH2 1262   3.933   1.000   3.976 -0.5735 -0.4005 -0.5008
  419TIP3    H1 1263   3.877   1.056   3.922  2.0991  1.2775 -1.7484
  419TIP3    H2 1264   3.906   0.911   3.954 -4.1437  0.2081  0.6270
  420TIP3   OH2 1265   5.920   5.888   3.106  0.5249  0.4184 -0.4794
  420TIP3    H1 1266   5.981   5.914   3.037 -0.6453  0.5522 -1.5064
  420TIP3    H2 1267   5.879   5.808   3.073 -2.1376  1.9964 -1.3699
  421TIP3   OH2 1268   4.811   4.828   1.978 -0.7192  0.0392  0.2908
  421TIP3    H1 1269   4.817   4.908   2.029 -1.1316 -0.6208  1.4191
  421TIP3    H2 1270   4.732   4.784   2.010 -1.7070  0.1536 -1.7807
  422TIP3   OH2 1271   5.826   5.887   0.940  0.1594  0.2918  0.3890
  422TIP3    H1 1272   5.920   5.893   0.960  0.3398 -0.8717 -0.0179
  422TIP3    H2 1273   5.807   5.793   0.942 -0.8784  0.4762 -0.0688
  423TIP3   OH2 1274   0.815   5.775   3.895  0.0034 -0.4466  0.7417
  423TIP3    H1 1275   0.823   5.688   3.934 -0.8716 -0.5913  0.6273
  423TIP3    H2 1276   0.728   5.775   3.855  0.9292 -0.3683 -1.3967
  424TIP3   OH2 1277   3.216   5.693   1.936  0.1346  0.3991 -0.1978
  424TIP3    H1 1278   3.222   5.646   2.019  0.1019  1.1950  0.2537
  424TIP3    H2 1279   3.294   5.747   1.933  0.5180 -0.1701 -1.0352
  425TIP3   OH2 1280   0.421   0.507   2.907 -0.6085  0.0411  0.0631
  425TIP3    H1 1281   0.498   0.450   2.901 -1.3778 -0.8329 -2.4910
  425TIP3    H2 1282   0.458   0.596   2.908  0.4918 -0.3803  1.6867
  426TIP3   OH2 1283   2.421   5.873   0.824 -0.3162 -0.7316  0.1425
  426TIP3    H1 1284   2.416   5.783   0.791 -0.8480 -0.2639 -1.1476
  426TIP3    H2 1285   2.514   5.896   0.816 -0.3647 -0.7785 -0.6545
  427TIP3   OH2 1286   2.709   4.914   4.014  0.1774 -0.5433  0.1280
  427TIP3    H1 1287   2.801   4.929   3.995 -0.3680  1.2026 -1.4620
  427TIP3    H2 1288   2.671   4.885   3.931 -0.9809  0.3235  0.3176
  428TIP3   OH2 1289   2.146   5.144   0.385 -0.0345  0.0023  0.5372
  428TIP3    H1 1290   2.182   5.231   0.405 -1.0649  0.5817 -0.0569
  428TIP3    H2 1291   2.091   5.123   0.460  1.3849 -0.8411  1.3992
  429TIP3   OH2 1292   2.461   4.429   2.826 -0.3902 -0.0059 -0.0123
  429TIP3    H1 1293   2.525   4.362   2.801  0.1984  0.4597  0.2236
  429TIP3    H2 1294   2.512   4.493   2.875 -0.9367  0.6442 -0.2828
  430TIP3   OH2 1295   5.550   3.458   0.906 -0.2429  0.5600 -0.1351
  430TIP3    H1 1296   5.590   3.476   0.991 -3.1534  1.2963  1.1929
  430TIP3    H2 1297   5.476   3.400   0.926  1.4212 -2.8447 -2.7604
  431TIP3   OH2 1298   5.103   1.912   5.096  0.4648 -0.0739  0.1249
  431TIP3    H1 1299   5.066   2.000   5.106  2.2403  0.5816  1.3677
  431TIP3    H2 1300   5.045   1.856   5.148  1.5213  1.0692  2.7260
  432TIP3   OH2 1301   4.931   2.370   4.384 -0.2755  0.3930 -0.1648
  432TIP3    H1 1302   5.023   2.366   4.411 -0.5732  1.0704  1.0306
  432TIP3    H2 1303   4.900   2.280   4.388 -0.0705  0.3647  0.9371
  433TIP3   OH2 1304   4.409   3.898   1.655  0.4948 -0.0479 -0.5602
  433TIP3    H1 1305   4.395   3.991   1.643  0.8050  0.0858  0.0453
  433TIP3    H2 1306   4.342   3.872   1.719 -0.1671 -0.4270 -1.3940
  434TIP3   OH2 1307   3.678   5.039   1.906 -0.6882 -0.2381 -0.0107
  434TIP3    H1 1308   3.627   5.074   1.832 -1.1102  0.6168  0.6542
  434TIP3    H2 1309   3.662   5.102   1.977  1.2947  0.0389  0.2355
  435TIP3   OH2 1310   5.826   3.180   1.771 -0.5569 -0.4669  0.0674
  435TIP3    H1 1311   5.810   3.239   1.846 -0.3889  1.2287 -1.1761
  435TIP3    H2 1312   5.739   3.149   1.747 -0.8772  0.7182 -0.3715
  436TIP3   OH2 1313   2.135   4.052   4.972  0.2134 -0.4887  0.3714
  436TIP3    H1 1314   2.146   4.147   4.966  1.6848 -0.6489  0.1940
  436TIP3    H2 1315   2.097   4.037   5.059 -0.5673  0.2872  0.1750
  437TIP3   OH2 1316   0.797   3.840   4.000  0.2343 -0.3730  0.8888
  437TIP3    H1 1317   0.883   3.882   3.991 -0.2680  0.2391 -2.1064
  437TIP3    H2 1318   0.812   3.749   3.972  0.0303 -0.4113  0.9031
  438TIP3   OH2 1319   2.616   4.562   1.373 -0.2060 -0.1380 -0.3386
  438TIP3    H1 1320   2.669   4.483   1.366 -1.3371 -1.1255  1.4295
  438TIP3    H2 1321   2.543   4.537   1.429 -2.0530  1.4207 -1.8864
  439TIP3   OH2 1322   4.269   2.021   1.605  0.3126 -0.2202  0.4489
  439TIP3    H1 1323   4.199   1.961   1.581  0.8202 -0.5476 -0.2551
  439TIP3    H2 1324   4.227   2.107   1.606  0.1009 -0.2700 -0.9946
  440TIP3   OH2 1325   1.009   5.493   2.962 -0.1397  0.3589  0.8301
  440TIP3    H1 1326   0.963   5.412   2.984  2.2982 -1.0603  1.0356
  440TIP3    H2 1327   0.975   5.517   2.876 -0.0534 -1.5977  0.2009
  441TIP3   OH2 1328   6.287   1.163   1.360 -0.1363 -0.0127 -0.5316
  441TIP3    H1 1329   6.351   1.107   1.404  0.0659  1.1080  0.6439
  441TIP3    H2 1330   6.324   1.251   1.366 -2.0297  0.7648  0.7023
  442TIP3   OH2 1331   5.916   0.114   4.764  0.4960 -0.6484 -0.3626
  442TIP3    H1 1332   5.925   0.134   4.857 -0.7753 -0.4148 -0.2816
  442TIP3    H2 1333   5.843   0.168   4.735  2.1342  0.8357 -1.9673
  443TIP3   OH2 1334   2.964   0.099   2.830 -0.0104  0.0905 -0.5599
  443TIP3    H1 1335   2.871   0.102   2.854  0.5781  1.5430  1.8896
  443TIP3    H2 1336   2.989   0.008   2.844 -0.8715 -0.1506 -0.4784
  444TIP3   OH2 1337   4.647   1.141   1.613 -0.2371 -0.4535  0.5100
  444TIP3    H1 1338   4.694   1.214   1.653  0.5573  0.0898 -1.2893
  444TIP3    H2 1339   4.564   1.137   1.660 -2.0032  4.0979 -1.6072
  445TIP3   OH2 1340   3.589   5.774   4.129  0.1658 -0.2490 -0.2286
  445TIP3    H1 1341   3.515   5.834   4.132  1.1752  1.1099 -1.1743
  445TIP3    H2 1342   3.662   5.825   4.165  1.3797 -0.3411 -2.3984
  446TIP3   OH2 1343   6.369   2.847   3.357  0.3734  0.1757  0.5787
  446TIP3    H1 1344   6.316   2.795   3.418  0.2586  0.4795  0.7432
  446TIP3    H2 1345   6.345   2.815   3.270 -2.3054  2.2670  0.4222
  447TIP3   OH2 1346   0.359   4.285   0.347 -0.5596  0.4630  0.4748
  447TIP3    H1 1347   0.323   4.362   0.392 -1.9613 -0.2755  0.6780
  447TIP3    H2 1348   0.333   4.211   0.402  0.3069 -0.2123  0.0035
  448TIP3   OH2 1349   4.792   4.030   4.704  0.1395  0.1876 -0.2229
  448TIP3    H1 1350   4.817   4.021   4.612 -1.0259  2.2327 -0.7987
  448TIP3    H2 1351   4.853   4.096   4.740  0.7914 -0.8201  0.5938
  449TIP3   OH2 1352   4.212   5.507   4.389 -0.6451 -0.5248  0.3936
  449TIP3    H1 1353   4.156   5.577   4.354 -0.8095 -1.3852 -1.1580
  449TIP3    H2 1354   4.152   5.437   4.411 -0.4671 -0.2517  1.8410
  450TIP3   OH2 1355   5.495   4.290   1.792  0.5673  0.1767 -0.3948
  450TIP3    H1 1356   5.407   4.328   1.796 -0.3176 -1.6662 -1.2691
  450TIP3    H2 1357   5.516   4.270   1.884 -1.1035 -1.7808 -0.3546
  451TIP3   OH2 1358   4.456   5.041   2.999 -0.0693 -0.6938  0.0168
  451TIP3    H1 1359   4.445   5.124   2.954 -2.3901  0.3387  2.2033
  451TIP3    H2 1360   4.502   5.064   3.080  1.2331 -1.9314 -0.3511
  452TIP3   OH2 1361   4.995   3.766   2.023  1.0544  0.0417  0.2938
  452TIP3    H1 1362   4.999   3.786   2.117  1.8659  0.7711  0.1235
  452TIP3    H2 1363   4.911   3.801   1.995  0.4012 -0.9945  0.9198
  453TIP3   OH2 1364   0.273   3.859   1.448 -0.5127 -0.1381 -0.7291
  453TIP3    H1 1365   0.201   3.853   1.385 -1.0913 -1.2739 -0.0042
  453TIP3    H2 1366   0.309   3.770   1.452 -0.8307 -0.2389  0.9029
  454TIP3   OH2 1367   2.463   3.895   1.865  0.2562 -0.2484 -0.1834
  454TIP3    H1 1368   2.377   3.854   1.862  0.6349 -1.1579  0.7339
  454TIP3    H2 1369   2.513   3.841   1.926  0.4920  2.1390  1.8999
  455TIP3   OH2 1370   6.043   1.561   0.687 -0.6357 -0.3489  0.3453
  455TIP3    H1 1371   6.087   1.476   0.695  0.9694  0.2742 -1.2322
  455TIP3    H2 1372   5.961   1.541   0.641 -1.0389 -1.2425  1.4128
  456TIP3   OH2 1373   4.015   3.737   3.025 -0.1033  0.4441 -0.1115
  456TIP3    H1 1374   4.086   3.774   3.077  1.6801 -0.7576 -1.5245
  456TIP3    H2 1375   4.010   3.645   3.053  1.4630 -0.4549 -2.4790
  457TIP3   OH2 1376   2.134   1.535   1.483 -0.4233  0.0395  0.0556
  457TIP3    H1 1377   2.141   1.447   1.518 -0.7102  0.1161  0.3082
  457TIP3    H2 1378   2.139   1.592   1.560 -0.8229  0.2169 -0.0468
  458TIP3   OH2 1379   3.316   1.069   0.488 -0.5261 -0.3124 -0.5613
  458TIP3    H1 1380   3.378   1.017   0.540 -1.4915 -0.3867  0.5443
  458TIP3    H2 1381   3.353   1.157   0.488 -0.7380 -0.2010  0.6777
  459TIP3   OH2 1382   4.856   3.753   4.725 -0.7041  0.0144  0.2097
  459TIP3    H1 1383   4.911   3.748   4.647  2.6311  0.9483  2.2483
  459TIP3    H2 1384   4.841   3.847   4.738 -0.1299 -0.0143  1.2773
  460TIP3   OH2 1385   0.890   3.470   4.362 -0.1209 -0.1817 -0.5266
  460TIP3    H1 1386   0.907   3.542   4.423 -0.3569  0.0225 -0.7000
  460TIP3    H2 1387   0.936   3.496   4.281 -1.9696  0.8123 -1.3053
  461TIP3   OH2 1388   1.548   3.637   1.427  0.1868 -0.1951  0.3575
  461TIP3    H1 1389   1.478   3.617   1.489 -0.1372  0.9733  0.3907
  461TIP3    H2 1390   1.511   3.617   1.341  0.0144 -0.1210  0.4151
  462TIP3   OH2 1391   0.322   3.318   2.843  0.1812 -0.5001 -0.1012
  462TIP3    H1 1392   0.334   3.274   2.759 -1.4251 -0.2259 -0.5039
  462TIP3    H2 1393   0.278   3.400   2.821 -0.9799 -0.7757  1.0696
  463TIP3   OH2 1394   1.329   4.470   0.046 -0.2431 -0.3760 -0.1431
  463TIP3    H1 1395   1.405   4.454  -0.010  0.0754  2.5853 -0.7213
  463TIP3    H2 1396   1.255   4.473  -0.015 -0.2117  0.7120 -0.1396
  464TIP3   OH2 1397   0.784   4.846   4.174  0.6057 -0.0787  0.3710
  464TIP3    H1 1398   0.772   4.896   4.093  2.0735 -0.6074 -0.2130
  464TIP3    H2 1399   0.806   4.758   4.144  0.0362 -0.5725  1.3695
  465TIP3   OH2 1400   2.635   3.001   2.143 -0.6275  0.5556 -0.2386
  465TIP3    H1 1401   2.723   3.021   2.174 -0.6639  1.7787 -0.8649
  465TIP3    H2 1402   2.610   2.922   2.192 -0.3377  1.8663  2.2188
  466TIP3   OH2 1403   2.580   2.382   1.855 -0.6898 -0.0175  0.6997
  466TIP3    H1 1404   2.490   2.380   1.823 -1.8459  1.4692  3.4639
  466TIP3    H2 1405   2.576   2.337   1.939  1.1926 -0.0359  0.8101
  467TIP3   OH2 1406   6.193   0.283   2.161  0.3844  0.0438 -0.0821
  467TIP3    H1 1407   6.150   0.201   2.185  0.4533 -0.1551 -0.6134
  467TIP3    H2 1408   6.233   0.314   2.242  0.8457 -0.7518  0.0055
  468TIP3   OH2 1409   5.652   0.192   0.632  0.1069  0.0507 -1.0565
  468TIP3    H1 1410   5.563   0.226   0.623  0.1756 -0.0056 -1.9947
  468TIP3    H2 1411   5.704   0.267   0.662 -0.5016 -0.2596  0.9265
  469TIP3   OH2 1412   3.245   3.842   1.431  0.1167 -0.3521 -0.1219
  469TIP3    H1 1413   3.251   3.937   1.424  0.6731 -0.2184  1.6278
  469TIP3    H2 1414   3.317   3.809   1.378 -1.0510  0.0924 -2.0779
  470TIP3   OH2 1415   3.018   3.221   2.383 -0.9281  0.0500 -0.0555
  470TIP3    H1 1416   3.002   3.271   2.464 -1.6266 -0.1790 -0.0472
  470TIP3    H2 1417   3.031   3.288   2.316 -1.2472  0.2466  0.0755
  471TIP3   OH2 1418   3.944   0.646   3.496  0.4645  0.3064 -0.0070
  471TIP3    H1 1419   3.866   0.702   3.506 -0.8049 -1.2854 -0.5154
  471TIP3    H2 1420   3.943   0.590   3.573  1.5136  0.7063  0.3085
  472TIP3   OH2 1421   4.930   3.283   2.256  0.4696  0.0545 -0.2447
  472TIP3    H1 1422   4.979   3.358   2.221  1.6452 -0.8043 -0.5139
  472TIP3    H2 1423   4.994   3.212   2.257 -0.2309 -0.5845  1.3613
  473TIP3   OH2 1424   0.409   0.947   3.459  0.2838 -0.1604  0.1529
  473TIP3    H1 1425   0.361   0.867   3.437  1.3640  0.0625 -3.7282
  473TIP3    H2 1426   0.454   0.927   3.541 -1.8306 -2.3942  0.8601
  474TIP3   OH2 1427   2.122   1.056   4.697  0.1338  0.0554 -0.3702
  474TIP3    H1 1428   2.129   1.152   4.699 -0.6319  0.1189 -0.4395
  474TIP3    H2 1429   2.101   1.035   4.606 -0.1090 -0.1470 -0.2678
  475TIP3   OH2 1430   4.621   5.757   2.736  0.3300 -0.2682  0.1547
  475TIP3    H1 1431   4.645   5.832   2.791  0.6740  0.4108 -0.8877
  475TIP3    H2 1432   4.561   5.705   2.790 -2.1187  2.1492  0.0200
  476TIP3   OH2 1433   2.107   5.781   2.072  0.2884 -0.2332  0.2810
  476TIP3    H1 1434   2.180   5.832   2.106 -0.4507  0.8699  0.2420
  476TIP3    H2 1435   2.045   5.774   2.144  0.8986 -2.1627  0.6866
  477TIP3   OH2 1436   0.397   1.022   1.199  0.0876  0.3317  0.0978
  477TIP3    H1 1437   0.353   1.072   1.267 -0.8924 -2.9256  2.1052
  477TIP3    H2 1438   0.332   1.012   1.130  0.1094  1.3070 -0.0680
  478TIP3   OH2 1439   0.558   5.671   2.390  0.2064 -0.2191  0.0952
  478TIP3    H1 1440   0.540   5.704   2.303  0.3262  0.8808  0.4662
  478TIP3    H2 1441   0.577   5.749   2.442 -0.3579 -0.8012  1.2288
  479TIP3   OH2 1442   5.031   0.465   1.861 -0.5204  0.1888 -0.6105
  479TIP3    H1 1443   5.015   0.554   1.832 -1.6062  1.1871  2.6309
  479TIP3    H2 1444   4.944   0.430   1.880 -0.0369 -1.1531 -0.7535
  480TIP3   OH2 1445   6.142   4.388   0.877 -0.0617 -0.1033  0.5813
  480TIP3    H1 1446   6.200   4.332   0.928  1.9535  1.0763 -0.2933
  480TIP3    H2 1447   6.151   4.356   0.787  0.5139  1.1071  0.1935
  481TIP3   OH2 1448   0.664   3.494   3.705  0.2410 -0.1979 -0.0947
  481TIP3    H1 1449   0.596   3.529   3.763  1.9795  0.4800  1.6644
  481TIP3    H2 1450   0.654   3.542   3.623 -0.8306  0.5141  0.4363
  482TIP3   OH2 1451   6.195   5.847   0.408 -0.0972  0.3875 -0.2350
  482TIP3    H1 1452   6.141   5.854   0.487 -1.0150 -0.5123 -0.7651
  482TIP3    H2 1453   6.271   5.903   0.426 -0.9685  1.2949  0.7195
  483TIP3   OH2 1454   0.520   5.526   1.216  0.0313  0.1238  0.6734
  483TIP3    H1 1455   0.495   5.440   1.181 -1.1176  0.9623 -0.6449
  483TIP3    H2 1456   0.581   5.562   1.151 -0.4248  0.7942  0.6089
  484TIP3   OH2 1457   0.552   5.407   1.520  0.1481  0.3758  0.0710
  484TIP3    H1 1458   0.542   5.352   1.442  1.9667  0.4155 -0.2277
  484TIP3    H2 1459   0.462   5.432   1.543 -0.4188  1.7171 -3.0042
  485TIP3   OH2 1460   2.173   3.542   0.922 -0.4555 -0.7947  0.4956
  485TIP3    H1 1461   2.155   3.636   0.910  0.5748 -0.6944 -0.5148
  485TIP3    H2 1462   2.269   3.536   0.919 -0.5239 -1.9088  0.2727
  486TIP3   OH2 1463   4.421   2.090   3.828 -0.3826 -0.5813  0.2834
  486TIP3    H1 1464   4.514   2.114   3.822 -0.1973 -1.4811 -0.5808
  486TIP3    H2 1465   4.378   2.147   3.765  0.0160 -2.1991 -1.5386
  487TIP3   OH2 1466   6.086   3.295   1.682  1.0500 -0.4867  0.0934
  487TIP3    H1 1467   6.173   3.265   1.710  1.2735 -0.2095 -0.2911
  487TIP3    H2 1468   6.025   3.241   1.732  1.4390 -0.3300  0.7557
  488TIP3   OH2 1469   1.901   5.116   5.004 -0.7565 -0.5637 -0.6934
  488TIP3    H1 1470   1.885   5.021   4.998 -1.4376 -0.4902 -0.1908
  488TIP3    H2 1471   1.869   5.151   4.921 -1.2175 -0.6846 -0.5686
  489TIP3   OH2 1472   3.820   1.514   3.424  0.0678  0.7346  0.5391
  489TIP3    H1 1473   3.811   1.421   3.402 -0.7319  0.6898  0.9998
  489TIP3    H2 1474   3.843   1.556   3.341  1.9429 -0.0468  0.6137
  490TIP3   OH2 1475   1.109   3.824   2.346 -0.7648 -0.1693  0.1980
  490TIP3    H1 1476   1.083   3.737   2.316 -0.6550 -0.3618  0.6653
  490TIP3    H2 1477   1.056   3.841   2.424 -0.8650  0.2300  0.0475
  491TIP3   OH2 1478   1.399   0.024   1.068 -0.3323 -0.1797  0.3018
  491TIP3    H1 1479   1.330   0.046   1.006 -1.2696 -2.9431  0.2443
  491TIP3    H2 1480   1.468  -0.016   1.015  0.1711  0.1080  0.7199
  492TIP3   OH2 1481   2.290   2.326   2.097 -0.2694 -0.2161  0.0044
  492TIP3    H1 1482   2.370   2.291   2.060 -0.8103 -1.5774  0.0676
  492TIP3    H2 1483   2.286   2.417   2.065 -0.3463 -1.0797 -2.6620
  493TIP3   OH2 1484   1.866   5.216   1.219  0.4053 -0.6239  0.1617
  493TIP3    H1 1485   1.786   5.223   1.167 -0.6109 -2.1786  1.4345
  493TIP3    H2 1486   1.934   5.252   1.162 -0.8105 -1.3546 -1.8832
  494TIP3   OH2 1487   4.467   1.872   0.728 -0.5222 -0.1237  0.1535
  494TIP3    H1 1488   4.466   1.954   0.679 -1.1374  0.6155  1.3542
  494TIP3    H2 1489   4.558   1.842   0.724 -0.6642 -0.4044 -1.8936
  495TIP3   OH2 1490   0.662   2.487   0.522  0.6582  0.2357  0.6916
  495TIP3    H1 1491   0.573   2.453   0.508  0.3003  0.7444  1.5854
  495TIP3    H2 1492   0.648   2.568   0.571  1.6993 -0.6443  2.5396
  496TIP3   OH2 1493   3.759   2.589   4.864 -0.5624  0.4295  0.2610
  496TIP3    H1 1494   3.808   2.648   4.922 -2.3045  1.1069  1.1021
  496TIP3    H2 1495   3.806   2.506   4.872  1.4335  1.4283 -0.2868
  497TIP3   OH2 1496   1.172   2.281   4.654  0.2346  0.4255  0.1754
  497TIP3    H1 1497   1.146   2.362   4.698 -0.9841 -0.2337  0.7261
  497TIP3    H2 1498   1.267   2.287   4.648  0.1787  1.8209  0.3463
  498TIP3   OH2 1499   4.732   3.237   3.954 -0.1379 -0.3948  0.0216
  498TIP3    H1 1500   4.671   3.221   4.026 -1.6249  0.4033 -1.0120
  498TIP3    H2 1501   4.724   3.159   3.898 -1.5239  0.4239 -0.9800
  499TIP3   OH2 1502   3.416   2.537   4.601 -0.6498 -0.0381  0.2906
  499TIP3    H1 1503   3.444   2.618   4.644  1.4147 -0.6440  0.1539
  499TIP3    H2 1504   3.455   2.541   4.514  2.1278 -2.5076  1.2798
  500TIP3   OH2 1505   4.236   2.265   4.152  0.1534 -0.1797  0.8886
  500TIP3    H1 1506   4.233   2.172   4.172 -0.7200 -0.9764 -2.3317
  500TIP3    H2 1507   4.144   2.290   4.143  0.3227  1.3118  2.7266
  501TIP3   OH2 1508   4.521   4.714   4.192 -0.4757  0.6502  0.6153
  501TIP3    H1 1509   4.465   4.730   4.116 -2.2484 -2.1071  1.1864
  501TIP3    H2 1510   4.571   4.636   4.168  1.1194  1.4302  1.2323
  502TIP3   OH2 1511   5.028   1.888   2.038 -0.0751 -0.1649  0.5924
  502TIP3    H1 1512   4.945   1.843   2.020  0.1803 -1.5756  2.6317
  502TIP3    H2 1513   5.014   1.930   2.123  1.0056  0.3779  0.5116
  503TIP3   OH2 1514   6.150   4.357   1.303  0.1199 -0.3708 -0.1400
  503TIP3    H1 1515   6.102   4.278   1.279 -1.8031 -0.2101  2.5937
  503TIP3    H2 1516   6.113   4.382   1.388 -0.6823  4.4521 -1.5615
  504TIP3   OH2 1517   2.350   2.864   3.960  0.6405  0.3185  0.3640
  504TIP3    H1 1518   2.280   2.872   4.024  0.8529  0.0585  0.6346
  504TIP3    H2 1519   2.408   2.938   3.979 -0.1407  1.1989 -0.6006
  505TIP3   OH2 1520   0.991   4.365   0.332  0.1706  0.3501  0.4759
  505TIP3    H1 1521   0.950   4.297   0.385 -0.4028  0.8684  0.7156
  505TIP3    H2 1522   1.080   4.333   0.316  0.2547  0.0362  1.4826
  506TIP3   OH2 1523   0.911   5.244   3.211 -0.2040 -0.1308  0.1449
  506TIP3    H1 1524   0.951   5.249   3.298 -1.6966 -0.7132  0.8915
  506TIP3    H2 1525   0.923   5.153   3.183 -2.6842 -0.8759  1.2582
  507TIP3   OH2 1526   1.347   2.881   3.569 -0.2797  0.6803  0.4673
  507TIP3    H1 1527   1.266   2.832   3.572 -1.0678  1.9484  0.7290
  507TIP3    H2 1528   1.395   2.844   3.495 -1.6527  0.7542 -0.4938
  508TIP3   OH2 1529   2.603   2.762   4.499  0.0183  0.1306  0.7067
  508TIP3    H1 1530   2.522   2.758   4.550 -0.0216  0.7220  0.6937
  508TIP3    H2 1531   2.672   2.769   4.565 -0.1659  3.2578  0.7021
  509TIP3   OH2 1532   6.079   0.910   2.200 -0.2563 -0.1035 -0.5595
  509TIP3    H1 1533   6.106   0.846   2.266  0.8946  0.9238  0.0074
  509TIP3    H2 1534   5.983   0.910   2.205 -0.2140  0.6629  1.8579
  510TIP3   OH2 1535   3.769   1.670   1.943  1.0993 -0.3034  0.0627
  510TIP3    H1 1536   3.834   1.698   2.008 -0.1446 -0.3230  1.3698
  510TIP3    H2 1537   3.710   1.611   1.991  0.5663 -0.9279 -1.2878
  511TIP3   OH2 1538   3.731   1.138   4.229 -0.1134 -0.0538  0.4625
  511TIP3    H1 1539   3.742   1.126   4.135 -3.1994  0.8810 -0.1265
  511TIP3    H2 1540   3.805   1.192   4.255  1.2304 -0.9645 -1.2362
  512TIP3   OH2 1541   1.285   3.129   0.767 -0.1842  0.1416 -0.0256
  512TIP3    H1 1542   1.263   3.201   0.827 -0.0601 -0.5944  0.9301
  512TIP3    H2 1543   1.205   3.114   0.717 -0.6892 -0.0354  0.8182
  513TIP3   OH2 1544   0.085   4.949   1.824 -0.3893  0.2298  0.1551
  513TIP3    H1 1545   0.114   4.996   1.746 -2.8027  0.0511 -0.9359
  513TIP3    H2 1546   0.116   4.859   1.811 -0.4905  0.2761 -0.4228
  514TIP3   OH2 1547   3.384   0.078   2.849 -0.3101  0.3527  0.0447
  514TIP3    H1 1548   3.358   0.034   2.768 -0.8550 -1.4293  1.1304
  514TIP3    H2 1549   3.466   0.034   2.874 -1.2632 -0.6671  1.5525
  515TIP3   OH2 1550   4.790   0.004   2.211 -0.0500  0.1868  0.2989
  515TIP3    H1 1551   4.818  -0.000   2.303 -0.3855  0.3321  0.4089
  515TIP3    H2 1552   4.793   0.097   2.189  2.4337 -0.0099 -0.5993
  516TIP3   OH2 1553   5.925   5.279   0.437 -0.3559 -0.1157 -0.0435
  516TIP3    H1 1554   5.901   5.211   0.373 -0.1458  0.1907 -0.4549
  516TIP3    H2 1555   5.896   5.361   0.396 -0.7468  0.0294  0.5189
  517TIP3   OH2 1556   5.593   2.522   1.619  0.8039 -0.4443 -0.0167
  517TIP3    H1 1557   5.629   2.600   1.660  0.5692 -0.5893  0.4725
  517TIP3    H2 1558   5.573   2.463   1.692 -1.6768  0.1418 -0.1546
  518TIP3   OH2 1559   5.509   5.257   4.219 -0.3659 -0.0805  0.1010
  518TIP3    H1 1560   5.604   5.241   4.216 -0.2345  0.4591  1.0333
  518TIP3    H2 1561   5.498   5.345   4.183 -0.6020 -0.4491 -0.7408
  519TIP3   OH2 1562   3.799   5.732   1.249 -0.3711  0.5769 -0.4032
  519TIP3    H1 1563   3.736   5.668   1.283 -0.9209  1.9669  1.3684
  519TIP3    H2 1564   3.784   5.811   1.302  1.1523  1.7682 -1.6414
  520TIP3   OH2 1565   0.064   3.692   5.013  0.3184  0.2762  0.0720
  520TIP3    H1 1566  -0.008   3.738   5.056 -0.1839  0.1233 -0.5924
  520TIP3    H2 1567   0.095   3.630   5.079 -0.6992 -0.2221  0.0956
  521TIP3   OH2 1568   3.763   0.124   3.054  0.5283  0.5205  0.0853
  521TIP3    H1 1569   3.835   0.179   3.087  1.9905 -1.2178 -0.0467
  521TIP3    H2 1570   3.738   0.166   2.971  0.5455  1.8253  0.7068
  522TIP3   OH2 1571   5.341   1.459   4.530  0.1276 -0.6244 -0.2054
  522TIP3    H1 1572   5.328   1.368   4.557 -0.0654 -0.1478  1.3845
  522TIP3    H2 1573   5.357   1.453   4.436 -2.5950 -2.0877 -0.7072
  523TIP3   OH2 1574   3.852   5.662   5.042 -0.2238 -0.0807  0.4317
  523TIP3    H1 1575   3.897   5.607   5.106  0.2088  1.3108  1.3794
  523TIP3    H2 1576   3.883   5.751   5.061 -1.3421  0.5738 -0.6520
  524TIP3   OH2 1577   5.134   0.957   3.680 -0.0687  0.7105  0.7613
  524TIP3    H1 1578   5.224   0.939   3.654 -0.4208 -0.4219  0.2107
  524TIP3    H2 1579   5.131   0.936   3.773 -0.0081 -0.3581  0.5401
  525TIP3   OH2 1580   1.708   2.267   1.683  0.2519 -0.7440  0.1247
  525TIP3    H1 1581   1.638   2.316   1.640  0.2252  0.0369  1.0209
  525TIP3    H2 1582   1.677   2.177   1.685 -0.6816 -0.4324  0.3792
  526TIP3   OH2 1583   5.387   5.711   2.927  0.1516  0.2509 -0.1510
  526TIP3    H1 1584   5.423   5.713   3.016 -1.2335  1.7065  0.4153
  526TIP3    H2 1585   5.295   5.686   2.939  0.1216 -0.2441 -1.2648
  527TIP3   OH2 1586   1.564   3.766   3.764  0.3479 -0.5070 -1.1213
  527TIP3    H1 1587   1.528   3.851   3.790 -1.2118 -1.2130 -0.8565
  527TIP3    H2 1588   1.551   3.710   3.840  0.5429 -1.2151 -1.6001
  528TIP3   OH2 1589   5.350   3.442   2.757  0.4943  0.3542  0.4905
  528TIP3    H1 1590   5.433   3.441   2.805  0.7291  1.8486  0.1766
  528TIP3    H2 1591   5.291   3.495   2.812  0.5639  1.5068 -0.5077
  529TIP3   OH2 1592   5.715   2.422   2.014  0.3724 -0.3696 -0.2578
  529TIP3    H1 1593   5.652   2.386   1.951 -1.4535  1.8213  0.1982
  529TIP3    H2 1594   5.795   2.435   1.963  0.1372 -2.0632 -1.1483
  530TIP3   OH2 1595   5.938   5.101   3.502  0.1380  0.3060  0.2991
  530TIP3    H1 1596   5.892   5.017   3.504 -1.6255  1.2227  1.3195
  530TIP3    H2 1597   6.027   5.079   3.477 -0.4227 -1.7918 -0.0645
  531TIP3   OH2 1598   0.566   4.225   4.452 -0.1880 -0.5800 -0.4296
  531TIP3    H1 1599   0.631   4.252   4.516 -0.2900 -1.9038  0.2825
  531TIP3    H2 1600   0.616   4.188   4.379 -0.1097 -0.6050 -0.3625
  532TIP3   OH2 1601   4.630   2.842   3.268 -0.0673  0.2108  0.0892
  532TIP3    H1 1602   4.592   2.781   3.204 -0.6200  1.9829 -1.3292
  532TIP3    H2 1603   4.559   2.859   3.330 -0.4378  0.7002 -0.4683
  533TIP3   OH2 1604   4.691   0.954   4.569 -0.6001  0.2530  0.2912
  533TIP3    H1 1605   4.604   0.923   4.542  0.1581 -1.2465 -0.5795
  533TIP3    H2 1606   4.709   1.026   4.509 -0.4750 -0.6709 -0.8263
  534TIP3   OH2 1607   2.656   2.596   1.640 -0.1880  0.8962 -0.4023
  534TIP3    H1 1608   2.617   2.550   1.566 -2.7592  1.4758  0.4894
  534TIP3    H2 1609   2.651   2.533   1.712  0.9239  0.8482 -0.3606
  535TIP3   OH2 1610   4.540   0.806   4.774  0.0854 -0.1189 -0.8161
  535TIP3    H1 1611   4.580   0.850   4.699  0.0326  1.4824  0.0672
  535TIP3    H2 1612   4.602   0.820   4.846 -0.9104  0.3249 -0.0172
  536TIP3   OH2 1613   0.526   5.193   4.006  0.1088 -0.3795 -0.2288
  536TIP3    H1 1614   0.466   5.267   3.995  0.3403 -0.1532  0.0014
  536TIP3    H2 1615   0.472   5.116   3.994 -0.2107 -0.1755 -0.1080
  537TIP3   OH2 1616   3.729   2.251   4.825 -0.1412  0.0149  0.4438
  537TIP3    H1 1617   3.681   2.272   4.745 -1.5798  0.0110  1.2711
  537TIP3    H2 1618   3.702   2.162   4.846  1.5997 -0.6581  0.0023
  538TIP3   OH2 1619   5.671   4.650   4.783  0.0413 -0.4401 -0.6657
  538TIP3    H1 1620   5.695   4.675   4.872  0.1788 -0.7797 -0.6075
  538TIP3    H2 1621   5.607   4.716   4.756  2.6533  1.8868 -1.6487
  539TIP3   OH2 1622   4.582   1.389   5.023 -0.0211  0.4780  0.2651
  539TIP3    H1 1623   4.535   1.354   5.098  0.1153 -0.9796 -0.2917
  539TIP3    H2 1624   4.673   1.362   5.036 -0.0751 -0.1766 -0.6254
  540TIP3   OH2 1625   2.830   0.881   0.372 -0.0233  0.5567  0.0235
  540TIP3    H1 1626   2.924   0.896   0.384  0.0406  0.1876 -0.0302
  540TIP3    H2 1627   2.798   0.856   0.459  0.4812 -2.3496 -0.5304
  541TIP3   OH2 1628   5.952   0.224   1.197  0.4154 -0.0524 -0.3917
  541TIP3    H1 1629   5.959   0.258   1.286 -1.4389 -0.4381 -0.0453
  541TIP3    H2 1630   5.865   0.183   1.194 -0.4957  1.8015 -3.0050
  542TIP3   OH2 1631   3.486   3.387   1.866 -0.8718 -0.0906 -0.0836
  542TIP3    H1 1632   3.500   3.308   1.919 -0.9586 -0.3777 -0.4847
  542TIP3    H2 1633   3.392   3.402   1.870 -0.8974 -0.1974 -0.2754
  543TIP3   OH2 1634   3.804   0.737   4.746 -0.3295  0.4696  0.1828
  543TIP3    H1 1635   3.863   0.687   4.691 -1.8737 -1.1316 -0.0970
  543TIP3    H2 1636   3.834   0.720   4.835 -0.4274 -0.4480  0.0514
  544TIP3   OH2 1637   0.606   4.882   3.916 -0.3008 -0.5904  0.3969
  544TIP3    H1 1638   0.592   4.792   3.885  1.1338 -0.5065 -0.6062
  544TIP3    H2 1639   0.524   4.927   3.898 -1.1060 -1.7355  1.0847
  545TIP3   OH2 1640   6.179   3.761   3.436  0.0088  0.2901 -0.3872
  545TIP3    H1 1641   6.246   3.735   3.499 -1.2734 -1.3537  0.3767
  545TIP3    H2 1642   6.186   3.698   3.365 -0.6122  0.1990 -0.3766
  546TIP3   OH2 1643   3.130   0.238   5.010 -0.3455 -0.6180  0.1341
  546TIP3    H1 1644   3.209   0.243   5.063 -1.0222 -1.7161  1.3122
  546TIP3    H2 1645   3.158   0.198   4.928  0.1986 -1.7881  0.8618
  547TIP3   OH2 1646   6.197   5.432   3.357  0.5371 -0.0211  0.1648
  547TIP3    H1 1647   6.225   5.449   3.267 -0.5635  0.4790 -0.0913
  547TIP3    H2 1648   6.250   5.492   3.410 -1.8541  2.9478 -0.5484
  548TIP3   OH2 1649   0.536   5.746   0.088 -0.3951 -0.5713  0.3873
  548TIP3    H1 1650   0.608   5.698   0.129 -0.5754  0.4483  1.9994
  548TIP3    H2 1651   0.511   5.693   0.013  1.5150 -1.3455  0.2523
  549TIP3   OH2 1652   1.779   4.338   2.081  0.1797 -0.3793 -0.2486
  549TIP3    H1 1653   1.821   4.328   1.995 -0.4629  1.0647 -0.7541
  549TIP3    H2 1654   1.686   4.337   2.062  0.0333  0.0269  0.4326
  550TIP3   OH2 1655   6.179   3.862   3.825 -0.4509 -0.0105  0.1430
  550TIP3    H1 1656   6.116   3.820   3.766  0.9470  0.6382 -1.9109
  550TIP3    H2 1657   6.186   3.952   3.792 -0.1295  0.5778  1.7470
  551TIP3   OH2 1658   5.118   4.243   3.940 -0.5055 -0.1958  0.0703
  551TIP3    H1 1659   5.178   4.172   3.962  1.9079  1.7986  0.3578
  551TIP3    H2 1660   5.114   4.242   3.844 -4.5421 -3.7202 -0.0255
  552TIP3   OH2 1661   6.097   4.820   3.776  0.2563  0.0994  0.4697
  552TIP3    H1 1662   6.157   4.836   3.703  0.4345 -0.0688  0.5762
  552TIP3    H2 1663   6.021   4.778   3.736 -0.3547  1.4881  0.1468
  553TIP3   OH2 1664   2.627   3.845   4.320 -0.0881 -0.7749  0.2876
  553TIP3    H1 1665   2.567   3.793   4.267  0.5260  0.2796 -1.5575
  553TIP3    H2 1666   2.713   3.804   4.306  0.3975  0.6270 -1.1699
  554TIP3   OH2 1667   0.864   5.526   1.063 -0.3617 -0.1428 -0.3859
  554TIP3    H1 1668   0.813   5.453   1.027 -0.4093 -0.7370  0.8160
  554TIP3    H2 1669   0.806   5.565   1.128 -0.0743  0.5474 -0.5358
  555TIP3   OH2 1670   5.513   5.336   0.259  0.3959 -0.2610 -0.3057
  555TIP3    H1 1671   5.509   5.374   0.347  0.9694 -0.1815 -0.3086
  555TIP3    H2 1672   5.429   5.293   0.247  1.0621 -2.1069  1.1303
  556TIP3   OH2 1673   4.260   0.102   3.535 -0.5347 -0.5074  0.4991
  556TIP3    H1 1674   4.333   0.092   3.474 -1.6508  0.2554 -1.0305
  556TIP3    H2 1675   4.225   0.189   3.516 -1.8392 -0.8578  1.2069
  557TIP3   OH2 1676   0.911   3.849   4.341 -0.4660 -0.3227 -0.4330
  557TIP3    H1 1677   0.829   3.836   4.293 -1.6370 -1.8024  1.7935
  557TIP3    H2 1678   0.965   3.774   4.317 -0.8770 -0.8271  0.1935
  558TIP3   OH2 1679   2.878   3.131   3.945  0.5796 -0.5507 -0.2487
  558TIP3    H1 1680   2.939   3.103   3.877 -0.9960 -1.0510 -1.5318
  558TIP3    H2 1681   2.845   3.050   3.982  1.0898 -0.2796  0.8362
  559TIP3   OH2 1682   4.675   4.333   1.221  0.7528  0.4080 -0.1861
  559TIP3    H1 1683   4.710   4.376   1.299  0.7346 -0.0769  0.0876
  559TIP3    H2 1684   4.665   4.404   1.158 -0.7259  1.0836  0.7519
  560TIP3   OH2 1685   0.572   2.659   0.734  0.0444  0.2773  0.1967
  560TIP3    H1 1686   0.606   2.629   0.818 -1.7419  1.4225  1.3925
  560TIP3    H2 1687   0.611   2.745   0.721  0.6971 -0.0984 -0.4153
  561TIP3   OH2 1688   4.950   0.438   3.507 -0.0119 -0.0913  0.3853
  561TIP3    H1 1689   4.869   0.389   3.490 -0.0325 -0.4158  1.3379
  561TIP3    H2 1690   4.931   0.527   3.479  0.9015 -1.0362 -3.9994
  562TIP3   OH2 1691   4.132   1.544   2.012 -0.2955  0.3033  0.6414
  562TIP3    H1 1692   4.214   1.569   2.054  0.0212 -0.9132  0.7904
  562TIP3    H2 1693   4.069   1.539   2.084 -0.6286  1.6655  0.4690
  563TIP3   OH2 1694   6.158   4.245   5.018 -0.1505 -0.0940  0.5504
  563TIP3    H1 1695   6.085   4.293   4.977  0.1842  0.8809  1.0630
  563TIP3    H2 1696   6.183   4.299   5.093  1.9636  0.2709 -0.3540
  564TIP3   OH2 1697   4.577   0.332   4.917  0.3299  0.6548  0.0737
  564TIP3    H1 1698   4.543   0.258   4.866  0.5648  0.8107 -0.3103
  564TIP3    H2 1699   4.580   0.404   4.855  0.5507  0.8676  0.3314
  565TIP3   OH2 1700   0.157   0.683   2.621  0.1632  0.2089 -0.3046
  565TIP3    H1 1701   0.228   0.619   2.623  0.7153  0.8238  1.2097
  565TIP3    H2 1702   0.078   0.631   2.606  0.9159 -0.4584 -2.3324
  566TIP3   OH2 1703   1.862   3.356   4.409  0.0790  0.3001  0.2209
  566TIP3    H1 1704   1.838   3.312   4.490  0.9822  0.1983  0.4481
  566TIP3    H2 1705   1.941   3.406   4.431  0.6026 -0.0820 -0.7046
  567TIP3   OH2 1706   0.734   5.625   1.452 -0.5786 -0.1537  0.2557
  567TIP3    H1 1707   0.665   5.559   1.443 -0.8561  0.2017 -0.2729
  567TIP3    H2 1708   0.696   5.693   1.507 -1.2179  0.7667 -1.2531
  568TIP3   OH2 1709   2.387   4.736   3.565  0.2095 -0.0383  0.3425
  568TIP3    H1 1710   2.438   4.817   3.559 -1.1501  0.9158  1.0265
  568TIP3    H2 1711   2.344   4.728   3.480 -1.9101  1.5908  1.1562
  569TIP3   OH2 1712   5.303   4.583   5.024  0.5748  0.1755  0.5618
  569TIP3    H1 1713   5.370   4.590   5.091  0.4958  4.0000  0.4857
  569TIP3    H2 1714   5.336   4.517   4.962  3.7390  1.1310  1.0816
  570TIP3   OH2 1715   3.608   0.896   3.243 -0.5348 -0.4262 -0.3593
  570TIP3    H1 1716   3.586   0.967   3.304 -7.2971 -1.2498 -1.0970
  570TIP3    H2 1717   3.617   0.819   3.299 -1.6709 -0.3180  0.0066
  571TIP3   OH2 1718   6.038   5.057   0.542  0.6145 -0.0692 -0.2352
  571TIP3    H1 1719   5.993   5.132   0.503 -0.3948 -0.3492  0.3449
  571TIP3    H2 1720   6.004   4.981   0.494  1.7806 -0.1522 -0.9583
  572TIP3   OH2 1721   4.254   0.559   2.801 -0.5070 -0.0829 -0.2595
  572TIP3    H1 1722   4.317   0.632   2.800  0.4222 -0.8410  0.4749
  572TIP3    H2 1723   4.191   0.583   2.869  1.2210 -1.0551  1.8057
  573TIP3   OH2 1724   5.953   2.842   0.152  1.1013 -0.5941 -0.0710
  573TIP3    H1 1725   5.871   2.850   0.104  0.8529 -1.3059  0.2051
  573TIP3    H2 1726   5.931   2.866   0.242  1.1355 -0.9866  0.0485
  574TIP3   OH2 1727   5.904   4.601   0.949  0.7827  0.5548  0.5312
  574TIP3    H1 1728   5.889   4.534   0.883  0.3043  1.7496 -0.6313
  574TIP3    H2 1729   5.953   4.557   1.018 -0.8540 -1.3852  0.5530
  575TIP3   OH2 1730   6.254   3.709   3.015  0.4149  0.4566  0.3034
  575TIP3    H1 1731   6.159   3.711   3.025  0.2084 -0.0744 -1.2578
  575TIP3    H2 1732   6.287   3.691   3.102 -1.0371 -1.5476  0.5003
  576TIP3   OH2 1733   3.867   4.363   1.589  0.1533 -0.0281 -0.6197
  576TIP3    H1 1734   3.869   4.442   1.643 -2.7770 -1.1479  1.4063
  576TIP3    H2 1735   3.859   4.396   1.499  0.2375  1.9528  0.0511
  577TIP3   OH2 1736   2.240   5.319   0.046 -0.3029 -0.3844 -0.1480
  577TIP3    H1 1737   2.314   5.260   0.061  0.2948  0.2795 -0.4270
  577TIP3    H2 1738   2.163   5.266   0.066  0.2632 -0.9545  0.5893
  578TIP3   OH2 1739   5.486   0.195   4.577 -0.4619 -0.1138  0.2848
  578TIP3    H1 1740   5.412   0.237   4.533 -1.5432  0.9511  2.9288
  578TIP3    H2 1741   5.458   0.104   4.589 -1.5379  0.3516  1.5339
  579TIP3   OH2 1742   3.160   2.121   0.753  0.1692 -0.2466 -0.4550
  579TIP3    H1 1743   3.227   2.113   0.685  1.1541 -0.4131  0.5123
  579TIP3    H2 1744   3.197   2.182   0.817 -1.1390  0.6609 -0.5081
  580TIP3   OH2 1745   2.576   4.945   1.155  0.3426 -0.0800 -0.2839
  580TIP3    H1 1746   2.487   4.939   1.120 -0.4283  1.3686  1.2867
  580TIP3    H2 1747   2.586   4.868   1.210  0.9841 -1.5170 -2.3051
  581TIP3   OH2 1748   2.220   5.809   3.964  0.2607  0.2424 -0.3727
  581TIP3    H1 1749   2.139   5.852   3.990 -0.6020 -0.5394 -1.6455
  581TIP3    H2 1750   2.235   5.839   3.874  1.8613  1.0183  0.0966
  582TIP3   OH2 1751   5.768   3.995   3.144 -0.1286  0.4446  0.6836
  582TIP3    H1 1752   5.802   4.068   3.196  2.4218 -0.4255  0.4027
  582TIP3    H2 1753   5.753   4.033   3.057 -1.5658  1.2307  1.2445
  583TIP3   OH2 1754   3.536   1.033   0.667 -0.0809 -0.0938  0.9031
  583TIP3    H1 1755   3.623   0.995   0.664  0.0217 -0.0567 -3.2307
  583TIP3    H2 1756   3.550   1.123   0.698  1.2098 -0.3445  1.0915
  584TIP3   OH2 1757   3.737   2.149   3.332 -0.4085 -0.3110 -0.1919
  584TIP3    H1 1758   3.644   2.169   3.321 -0.1685  1.1552  0.1622
  584TIP3    H2 1759   3.783   2.213   3.278  0.4430  0.5477  1.4408
  585TIP3   OH2 1760   2.946   3.637   1.781 -0.0493  0.7354  0.1573
  585TIP3    H1 1761   2.934   3.689   1.701 -1.6833 -1.9607 -1.5108
  585TIP3    H2 1762   2.880   3.672   1.842 -0.5773  1.1481 -0.6339
  586TIP3   OH2 1763   5.918   4.056   1.983 -0.1756  0.2888 -0.5468
  586TIP3    H1 1764   5.962   4.058   2.068 -1.6134  2.5466  0.2194
  586TIP3    H2 1765   5.977   4.005   1.927  1.7288  0.3397  1.2833
  587TIP3   OH2 1766   1.829   4.805   0.624 -0.2229 -0.3258 -0.4262
  587TIP3    H1 1767   1.793   4.820   0.711 -0.7811  0.2255 -0.7385
  587TIP3    H2 1768   1.763   4.841   0.565 -0.8415 -2.5029 -1.1754
  588TIP3   OH2 1769   3.004   1.165   0.097 -0.6911 -0.0220 -0.0555
  588TIP3    H1 1770   2.953   1.233   0.052  0.4453  0.6403 -0.3800
  588TIP3    H2 1771   3.093   1.199   0.100 -0.0288 -1.6039 -0.4521
  589TIP3   OH2 1772   2.517   3.570   4.305  0.0599 -0.1923 -0.1828
  589TIP3    H1 1773   2.469   3.491   4.281  1.0734 -1.3675  1.5211
  589TIP3    H2 1774   2.589   3.574   4.242 -1.3776  0.8344 -1.8774
  590TIP3   OH2 1775   0.403   1.928   0.452  0.3682  0.0881  0.8758
  590TIP3    H1 1776   0.337   1.956   0.389  1.8840 -0.3488 -0.9723
  590TIP3    H2 1777   0.443   2.009   0.483 -0.3420  0.2978  1.2704
  591TIP3   OH2 1778   3.700   2.833   3.747  0.6519 -0.3085  0.4198
  591TIP3    H1 1779   3.681   2.814   3.655  0.0183 -0.4647  0.5778
  591TIP3    H2 1780   3.648   2.769   3.795  0.9370 -0.1880  0.8905
  592TIP3   OH2 1781   3.827   2.139   4.299  0.1043  0.6153  0.4713
  592TIP3    H1 1782   3.802   2.211   4.356  0.7501  1.6782 -0.5458
  592TIP3    H2 1783   3.906   2.103   4.340 -0.1729  0.5195  0.9357
  593TIP3   OH2 1784   3.178   2.473   0.064  0.1644  0.1083 -0.4119
  593TIP3    H1 1785   3.205   2.543   0.123  0.6836 -0.6362  0.2587
  593TIP3    H2 1786   3.086   2.491   0.046 -0.0957  0.1783  0.8976
  594TIP3   OH2 1787   6.200   2.076   2.951  0.3686  0.0942  0.5450
  594TIP3    H1 1788   6.133   2.093   3.017  0.7048  2.3761  0.3818
  594TIP3    H2 1789   6.162   2.109   2.869  1.3874  0.7618  0.3213
  595TIP3   OH2 1790   3.953   1.674   1.724 -0.0320 -0.2993 -0.0442
  595TIP3    H1 1791   3.906   1.652   1.805  1.5515  1.2756  1.3810
  595TIP3    H2 1792   3.886   1.670   1.656 -1.6126 -0.8450  1.4717
  596TIP3   OH2 1793   1.428   1.703   0.219  0.3811 -0.6145 -0.2341
  596TIP3    H1 1794   1.486   1.758   0.271  0.3706 -2.1046  1.4577
  596TIP3    H2 1795   1.486   1.641   0.174  0.2390 -0.8394 -0.1127
  597TIP3   OH2 1796   4.639   3.308   2.847 -0.3294 -0.2967 -0.3034
  597TIP3    H1 1797   4.733   3.292   2.853 -0.3624  0.1191  3.2998
  597TIP3    H2 1798   4.632   3.400   2.822  0.1663 -0.4931 -1.2207
  598TIP3   OH2 1799   2.625   1.992   0.373  0.0557  0.1196 -0.1226
  598TIP3    H1 1800   2.554   2.030   0.321 -0.9752 -2.1985 -0.5305
  598TIP3    H2 1801   2.697   1.979   0.311 -0.3630 -0.5269 -0.4941
  599TIP3   OH2 1802   5.566   0.182   4.003  0.0183 -0.0768 -0.4895
  599TIP3    H1 1803   5.486   0.130   4.001  0.1976 -0.3667 -0.1497
  599TIP3    H2 1804   5.573   0.218   3.914 -0.1351 -0.5889 -0.7101
  600TIP3   OH2 1805   1.066   6.013   1.653  0.0360 -0.6700  0.6891
  600TIP3    H1 1806   1.043   6.004   1.561  1.1006  0.2171  0.3087
  600TIP3    H2 1807   1.053   5.926   1.690 -0.3387 -1.0490 -0.3073
  601TIP3   OH2 1808   5.078   3.816   4.934  0.3786 -0.0306 -0.1278
  601TIP3    H1 1809   4.993   3.772   4.928  0.5473 -0.1710 -1.7071
  601TIP3    H2 1810   5.139   3.756   4.892  0.9656  0.8084 -0.4857
  602TIP3   OH2 1811   5.723   0.505   3.585 -0.6222  0.2495  0.0775
  602TIP3    H1 1812   5.746   0.510   3.492 -0.6611  1.0551  0.1062
  602TIP3    H2 1813   5.782   0.439   3.620  0.2857  0.8504 -0.2680
  603TIP3   OH2 1814   6.051   4.086   0.202 -0.1063 -0.1380 -0.0097
  603TIP3    H1 1815   6.003   4.027   0.144  0.3647 -0.2757 -0.2647
  603TIP3    H2 1816   6.126   4.114   0.150 -0.6039  1.1180 -0.0958
  604TIP3   OH2 1817   5.797   2.850   1.953  0.1761 -0.4762 -0.3247
  604TIP3    H1 1818   5.819   2.853   1.860  0.5167 -0.6129 -0.2492
  604TIP3    H2 1819   5.865   2.796   1.992 -1.0761 -2.1025 -0.3093
  605TIP3   OH2 1820   5.879   2.233   2.884  0.1979  0.0930 -0.1346
  605TIP3    H1 1821   5.865   2.218   2.978  1.6111 -0.8695 -0.0370
  605TIP3    H2 1822   5.848   2.322   2.869  0.2051  0.3685  1.2987
  606TIP3   OH2 1823   2.819   0.646   2.746  0.2879 -0.1224 -0.0287
  606TIP3    H1 1824   2.783   0.638   2.834 -1.2698  2.1867 -0.4009
  606TIP3    H2 1825   2.908   0.680   2.760  0.9882 -2.0419  0.6787
  607TIP3   OH2 1826   3.750   0.624   4.334 -0.0170  0.3290  0.1288
  607TIP3    H1 1827   3.831   0.667   4.360  0.7040 -0.0095 -1.3909
  607TIP3    H2 1828   3.745   0.546   4.389 -0.3866  1.3727  1.6296
  608TIP3   OH2 1829   5.415   3.753   1.536 -0.3734  0.3149  0.0706
  608TIP3    H1 1830   5.482   3.702   1.582  0.9138  0.4412 -1.5378
  608TIP3    H2 1831   5.459   3.835   1.514 -1.8156  1.3772  0.9440
  609TIP3   OH2 1832   4.042   2.330   2.952 -0.1107  0.2328 -0.1922
  609TIP3    H1 1833   4.127   2.375   2.947 -0.0619  0.1284 -0.2945
  609TIP3    H2 1834   3.982   2.398   2.983 -0.4267  0.9132 -2.1480
  610TIP3   OH2 1835   2.317   3.389   0.462 -0.4518  0.1688 -0.7545
  610TIP3    H1 1836   2.244   3.333   0.487 -0.8921  0.5911 -1.0946
  610TIP3    H2 1837   2.374   3.332   0.411  0.4471 -0.7093  1.1017
  611TIP3   OH2 1838   4.997   5.684   3.792  0.2669 -0.0138 -0.8363
  611TIP3    H1 1839   5.078   5.665   3.840 -0.0942 -1.5439 -0.7957
  611TIP3    H2 1840   4.971   5.771   3.824  0.6442 -0.5027  0.9199
  612TIP3   OH2 1841   0.983   2.381   3.582 -0.4297 -0.2543  0.0627
  612TIP3    H1 1842   0.895   2.343   3.580  0.7874 -3.4914 -2.8976
  612TIP3    H2 1843   0.987   2.438   3.506 -0.6616  2.1052  1.7090
  613TIP3   OH2 1844   3.813   3.219   2.942  0.4238  0.1573  0.3391
  613TIP3    H1 1845   3.837   3.149   2.881  1.1350  0.1166  0.6560
  613TIP3    H2 1846   3.780   3.173   3.019  0.1809  0.1922  0.2565
  614TIP3   OH2 1847   2.867   5.577   1.306  0.0108  0.1139 -0.8544
  614TIP3    H1 1848   2.799   5.610   1.365 -0.5763 -1.6462 -0.4809
  614TIP3    H2 1849   2.947   5.576   1.358 -0.1789  0.0121 -0.5657
  615TIP3   OH2 1850   3.561   2.001   2.536 -0.4087 -0.0255  0.2856
  615TIP3    H1 1851   3.611   1.919   2.532  2.0829  1.2430  2.4684
  615TIP3    H2 1852   3.524   2.002   2.624 -1.0840  0.8577  0.0084
  616TIP3   OH2 1853   5.508   3.153   4.112 -0.1924 -0.1208  0.5399
  616TIP3    H1 1854   5.562   3.166   4.034 -1.2564  0.4762 -0.1290
  616TIP3    H2 1855   5.461   3.071   4.096 -0.1944 -0.1474  0.6823
  617TIP3   OH2 1856   3.264   4.225   0.907 -0.5832 -0.3135 -0.0015
  617TIP3    H1 1857   3.182   4.176   0.902 -0.8238  0.0213  0.6595
  617TIP3    H2 1858   3.305   4.196   0.988  0.6840 -1.5978 -1.0418
  618TIP3   OH2 1859   2.950   2.721   4.378 -0.3894 -0.0145 -0.2255
  618TIP3    H1 1860   3.045   2.712   4.389 -0.4154 -0.5512 -0.4180
  618TIP3    H2 1861   2.939   2.804   4.333  0.0387 -0.2766 -0.8333
  619TIP3   OH2 1862   0.096   2.232   3.523 -0.2363 -0.4903  0.2877
  619TIP3    H1 1863   0.179   2.249   3.479  0.9080 -2.7919  1.3881
  619TIP3    H2 1864   0.066   2.319   3.553  0.9544  0.5777 -1.4395
  620TIP3   OH2 1865   0.624   1.515   1.407 -0.0387  0.0964 -0.1475
  620TIP3    H1 1866   0.659   1.602   1.390 -0.1340  0.7631  2.6569
  620TIP3    H2 1867   0.529   1.528   1.412 -0.2040 -0.5048 -1.2525
  621TIP3   OH2 1868   3.048   3.832   0.195  0.4864 -0.3817 -0.5828
  621TIP3    H1 1869   3.124   3.855   0.142  0.8586  1.0912  0.5148
  621TIP3    H2 1870   3.022   3.915   0.236 -0.5375 -1.2268  0.5378
  622TIP3   OH2 1871   3.428   3.528   0.214 -0.3897  0.7680 -0.6545
  622TIP3    H1 1872   3.353   3.560   0.264  0.8776  1.9379  0.5728
  622TIP3    H2 1873   3.502   3.534   0.274  0.5342 -1.4206 -1.4708
  623TIP3   OH2 1874   4.332   0.322   5.087 -0.0601  0.4703  0.0281
  623TIP3    H1 1875   4.412   0.342   5.037 -0.8048  0.8553 -1.0447
  623TIP3    H2 1876   4.304   0.237   5.054 -0.3225  0.5249  0.1115
  624TIP3   OH2 1877   0.644   4.550   1.623 -0.6659  0.2904  0.0432
  624TIP3    H1 1878   0.648   4.605   1.544  0.5451 -0.6006 -0.5511
  624TIP3    H2 1879   0.710   4.587   1.681 -0.5170  0.0403  0.0316
  625TIP3   OH2 1880   1.460   0.567   4.809 -0.0693 -0.5373 -0.0795
  625TIP3    H1 1881   1.480   0.534   4.897  1.1385  0.3149 -0.0070
  625TIP3    H2 1882   1.435   0.658   4.822 -2.3355 -1.0695 -0.3919
  626TIP3   OH2 1883   0.844   2.877   0.859 -0.4752 -0.5015  0.0645
  626TIP3    H1 1884   0.808   2.909   0.776 -0.1884  3.1310  1.1939
  626TIP3    H2 1885   0.767   2.858   0.912 -0.6894  0.1303 -0.0133
  627TIP3   OH2 1886   1.366   1.461   0.370  0.0877  0.2121  0.1694
  627TIP3    H1 1887   1.351   1.475   0.276  1.0222 -0.9286 -0.1652
  627TIP3    H2 1888   1.346   1.368   0.384  0.0682  0.3452  1.0914
  628TIP3   OH2 1889   5.224   2.135   2.009 -0.2003  0.1114 -0.0589
  628TIP3    H1 1890   5.154   2.080   2.043 -1.0468  0.8411 -0.5545
  628TIP3    H2 1891   5.257   2.088   1.932  1.5853 -1.4422  1.5523
  629TIP3   OH2 1892   5.030   3.110   4.753 -0.1109  0.0560 -0.5909
  629TIP3    H1 1893   5.074   3.025   4.745 -1.4557 -0.9147  1.4966
  629TIP3    H2 1894   4.938   3.091   4.732 -0.8119  0.5104  1.7556
  630TIP3   OH2 1895   3.529   1.374   4.671  0.1025  0.5867  0.1797
  630TIP3    H1 1896   3.448   1.405   4.630  0.9925  1.1276 -1.2886
  630TIP3    H2 1897   3.598   1.414   4.617  1.3245 -1.1560  0.4026
  631TIP3   OH2 1898   5.357   4.453   2.094 -0.5334  0.0222  1.0263
  631TIP3    H1 1899   5.337   4.539   2.132 -1.4636 -0.4838  1.7302
  631TIP3    H2 1900   5.278   4.428   2.048 -0.0364 -0.1835  0.2637
  632TIP3   OH2 1901   0.534   5.885   0.490 -0.4580  0.0663 -0.1881
  632TIP3    H1 1902   0.530   5.885   0.395 -1.8130  1.1460 -0.1619
  632TIP3    H2 1903   0.477   5.812   0.517 -0.3978  0.0178 -0.1907
  633TIP3   OH2 1904   4.530   3.391   0.012 -0.0813  0.2188 -0.1098
  633TIP3    H1 1905   4.605   3.363   0.065  0.3039 -0.1160 -0.8075
  633TIP3    H2 1906   4.551   3.359  -0.076 -1.3184 -0.3764 -0.2050
  634TIP3   OH2 1907   1.445   2.984   0.552 -0.1717  0.3023 -0.3629
  634TIP3    H1 1908   1.379   3.031   0.602  1.1148  0.8964  0.8311
  634TIP3    H2 1909   1.467   2.908   0.606 -1.5585 -1.2489 -1.8516
  635TIP3   OH2 1910   1.510   4.030   4.867  0.4547  0.0421 -0.2251
  635TIP3    H1 1911   1.504   3.987   4.781 -0.9020  0.4639 -0.3713
  635TIP3    H2 1912   1.474   4.117   4.852 -0.2110 -0.0241  0.8683
  636TIP3   OH2 1913   5.974   3.427   3.798  0.1847 -0.6148 -0.4228
  636TIP3    H1 1914   6.012   3.487   3.862 -0.2964 -0.9261  0.1656
  636TIP3    H2 1915   5.879   3.438   3.809  0.0968 -1.0507 -0.7156
  637TIP3   OH2 1916   6.212   5.552   3.837  0.8614 -0.6778  0.5234
  637TIP3    H1 1917   6.230   5.591   3.923  1.7399 -1.0141  0.4998
  637TIP3    H2 1918   6.180   5.464   3.857  2.3293 -1.2440  0.4885
  638TIP3   OH2 1919   3.493   1.167   2.922  0.7698 -0.4764  0.0601
  638TIP3    H1 1920   3.542   1.094   2.883 -0.3950 -0.9714 -0.5218
  638TIP3    H2 1921   3.450   1.210   2.848  0.1941 -0.1500  0.5735
  639TIP3   OH2 1922   3.656   5.512   3.997  0.5852  0.2963  0.7988
  639TIP3    H1 1923   3.599   5.508   3.920 -2.3381 -1.3590  2.8585
  639TIP3    H2 1924   3.648   5.601   4.029 -0.2449  0.2882  0.6206
  640TIP3   OH2 1925   5.497   4.381   0.182  0.9880 -0.5093  0.0615
  640TIP3    H1 1926   5.409   4.415   0.199  1.6441  1.1887  0.2722
  640TIP3    H2 1927   5.482   4.300   0.132 -0.6837 -0.4221  0.3580
  641TIP3   OH2 1928   3.900   2.952   2.859 -0.1084  0.2377  0.0115
  641TIP3    H1 1929   3.942   3.026   2.816 -0.0228 -0.0553 -0.4182
  641TIP3    H2 1930   3.946   2.943   2.943  0.8628 -0.2257 -0.5463
  642TIP3   OH2 1931   5.345   0.368   2.351 -0.2301 -0.1937 -0.2817
  642TIP3    H1 1932   5.356   0.434   2.283  0.5505  1.2540  1.1601
  642TIP3    H2 1933   5.266   0.395   2.397 -1.3630 -1.7793 -1.2337
  643TIP3   OH2 1934   5.544   0.322   2.569  0.1356  0.5411 -0.1179
  643TIP3    H1 1935   5.471   0.314   2.508  0.9479  1.7349 -1.3343
  643TIP3    H2 1936   5.614   0.361   2.516  1.4401  0.0243  1.1669
  644TIP3   OH2 1937   2.146   5.583   0.819  0.4491 -0.0419  0.1087
  644TIP3    H1 1938   2.186   5.606   0.735  0.5679  0.9307  0.4167
  644TIP3    H2 1939   2.071   5.641   0.827  0.5960  0.0723  0.7922
  645TIP3   OH2 1940   6.237   1.785   0.557 -0.3479  0.1332 -0.0151
  645TIP3    H1 1941   6.251   1.868   0.603 -0.5758 -0.2385  0.7435
  645TIP3    H2 1942   6.144   1.785   0.535 -0.3844  0.0034  0.1372
  646TIP3   OH2 1943   1.011   4.694   0.527  0.0322  0.8475 -0.2053
  646TIP3    H1 1944   0.949   4.766   0.515 -0.1230  0.5950 -1.0128
  646TIP3    H2 1945   1.011   4.648   0.443 -0.8544 -0.8683  0.6582
  647TIP3   OH2 1946   5.537   2.244   0.159 -0.1621  0.1082 -0.1757
  647TIP3    H1 1947   5.525   2.171   0.219  1.0034 -0.4175 -0.5598
  647TIP3    H2 1948   5.460   2.299   0.173  1.1965  1.3694  3.6554
  648TIP3   OH2 1949   2.503   0.650   4.037 -0.5001 -0.2918 -0.1692
  648TIP3    H1 1950   2.411   0.641   4.060 -0.4328 -0.3620  0.0862
  648TIP3    H2 1951   2.504   0.671   3.944 -0.8320  1.1096  0.1224
  649TIP3   OH2 1952   2.842   2.119   2.198  0.1536 -0.2634 -0.1382
  649TIP3    H1 1953   2.789   2.190   2.234  0.0956  0.6893 -1.9667
  649TIP3    H2 1954   2.778   2.058   2.161  0.0893 -2.2519  2.8680
  650TIP3   OH2 1955   3.122   3.971   3.484  0.2739 -0.3106 -0.0173
  650TIP3    H1 1956   3.181   3.904   3.517 -0.3451 -0.3120  1.1829
  650TIP3    H2 1957   3.038   3.951   3.526 -0.3008  0.3153 -0.8354
  651TIP3   OH2 1958   4.583   1.063   2.622 -0.1732  0.4692 -0.1952
  651TIP3    H1 1959   4.664   1.085   2.578  3.1464 -3.8575  2.8694
  651TIP3    H2 1960   4.576   1.126   2.694  1.5477 -0.1270  0.5328
  652TIP3   OH2 1961   0.730   5.898   0.206 -0.1260  1.0387  0.4553
  652TIP3    H1 1962   0.714   5.985   0.241  0.8822  0.4699  2.4541
  652TIP3    H2 1963   0.643   5.861   0.193 -0.5768  1.1876  2.7012
  653TIP3   OH2 1964   4.078   3.812   3.345 -0.1059 -0.1214  0.2154
  653TIP3    H1 1965   4.138   3.884   3.327 -0.0117 -0.0714  0.7213
  653TIP3    H2 1966   4.127   3.734   3.318  0.2722 -0.0987  0.8146
  654TIP3   OH2 1967   1.390   3.179   2.628  0.4224 -0.0018 -0.0460
  654TIP3    H1 1968   1.362   3.195   2.538  0.6198 -0.7581 -0.2553
  654TIP3    H2 1969   1.324   3.222   2.682  0.2931  0.4430 -0.5548
  655TIP3   OH2 1970   3.883   1.293   4.564 -0.2864 -0.6470 -0.0150
  655TIP3    H1 1971   3.918   1.313   4.650  2.4020  0.4370 -1.2543
  655TIP3    H2 1972   3.823   1.365   4.545 -1.7111 -1.4369  1.3052
  656TIP3   OH2 1973   0.603   1.540   0.782  0.0672 -0.3022 -0.3214
  656TIP3    H1 1974   0.594   1.459   0.733  0.3801  0.1875 -1.2089
  656TIP3    H2 1975   0.696   1.564   0.772 -0.3832  1.0804 -1.5730
  657TIP3   OH2 1976   5.656   2.754   1.003 -0.0101  0.2024  0.5403
  657TIP3    H1 1977   5.716   2.710   0.942  0.2833  0.6754  0.4834
  657TIP3    H2 1978   5.615   2.682   1.051  0.3418 -0.1446  0.3370
  658TIP3   OH2 1979   0.971   1.167   0.578  0.1612  0.3056 -0.1334
  658TIP3    H1 1980   0.991   1.187   0.487 -0.4420 -1.2672 -0.6506
  658TIP3    H2 1981   0.878   1.185   0.587  0.4403  1.5261  0.5033
  659TIP3   OH2 1982   4.160   4.406   1.200  0.3823 -0.2905 -0.0461
  659TIP3    H1 1983   4.196   4.405   1.289 -0.0820  0.2307  0.1570
  659TIP3    H2 1984   4.215   4.469   1.153 -0.4072  0.7049  0.3352
  660TIP3   OH2 1985   3.688   3.275   0.546  0.2908 -0.3560 -0.2583
  660TIP3    H1 1986   3.703   3.268   0.641 -0.0772  0.1961 -0.1550
  660TIP3    H2 1987   3.613   3.219   0.529  0.6198 -0.7953 -0.3001
  661TIP3   OH2 1988   4.206   5.079   3.901 -0.4709 -0.2757 -0.2078
  661TIP3    H1 1989   4.271   5.090   3.970 -0.4213  2.1415 -0.5646
  661TIP3    H2 1990   4.233   5.139   3.832 -2.7423  0.3744 -0.6262
  662TIP3   OH2 1991   3.190   2.370   3.818  0.2760 -0.3128  0.5482
  662TIP3    H1 1992   3.136   2.437   3.775 -0.0224 -1.3779 -0.8060
  662TIP3    H2 1993   3.158   2.287   3.783  1.6785 -1.0768  0.9974
  663TIP3   OH2 1994   1.597   0.828   1.350 -0.5693  0.6524 -0.2676
  663TIP3    H1 1995   1.504   0.850   1.360 -1.1415 -0.9465 -1.6399
  663TIP3    H2 1996   1.629   0.891   1.285 -1.3480 -0.3137 -1.6437
  664TIP3   OH2 1997   2.392   3.210   3.070 -0.0942 -0.2910 -0.0822
  664TIP3    H1 1998   2.392   3.147   3.142 -0.3762  0.1753  0.3310
  664TIP3    H2 1999   2.392   3.296   3.113  1.8098  0.0228 -0.6223
  665TIP3   OH2 2000   4.759   0.421   4.186 -0.3488 -0.2807  0.0308
  665TIP3    H1 2001   4.764   0.514   4.164  0.7654  0.1673  1.9440
  665TIP3    H2 2002   4.695   0.386   4.125  1.5251  1.0589 -2.9775
  666TIP3   OH2 2003   3.725   5.643   4.534  0.0434 -0.3947 -0.3244
  666TIP3    H1 2004   3.665   5.622   4.605 -0.1359 -2.3931 -1.0178
  666TIP3    H2 2005   3.731   5.739   4.536 -1.2705 -0.2989  1.2788
  667TIP3   OH2 2006   1.228   5.337   4.279  0.3687  0.0059  0.0110
  667TIP3    H1 2007   1.191   5.293   4.203  3.5813 -0.7661 -1.2951
  667TIP3    H2 2008   1.160   5.332   4.346 -1.9045 -0.9017 -2.2237
  668TIP3   OH2 2009   4.570   1.692   0.373 -0.1406 -0.0062 -0.1029
  668TIP3    H1 2010   4.612   1.683   0.458  0.0576 -0.7564 -0.2653
  668TIP3    H2 2011   4.639   1.671   0.310 -0.6943 -1.0922 -0.3817
  669TIP3   OH2 2012   2.213   0.712   4.381  0.3770 -0.2005 -0.2768
  669TIP3    H1 2013   2.215   0.761   4.463  2.1015  2.2975 -1.6846
  669TIP3    H2 2014   2.135   0.656   4.389  0.8252 -0.5508  3.2567
  670TIP3   OH2 2015   6.035   0.868   2.508 -0.7177  0.6503 -0.3969
  670TIP3    H1 2016   5.963   0.903   2.455  1.4726  1.2281 -3.2740
  670TIP3    H2 2017   6.053   0.937   2.572 -2.8421  0.3437  0.6298
  671TIP3   OH2 2018   0.124   3.571   2.851 -0.1052 -0.7540 -0.2436
  671TIP3    H1 2019   0.071   3.639   2.892  1.3170 -0.0534  0.5047
  671TIP3    H2 2020   0.170   3.615   2.781  1.6906 -0.6256  0.9574
  672TIP3   OH2 2021   2.060   4.705   5.194 -0.0364 -0.3817  0.4147
  672TIP3    H1 2022   2.077   4.728   5.103  2.1751  0.2237  0.9011
  672TIP3    H2 2023   2.013   4.622   5.190  0.5329 -0.6501 -1.2697
  673TIP3   OH2 2024   0.165   1.737   1.241  0.3460 -0.1806  0.0120
  673TIP3    H1 2025   0.117   1.715   1.161 -0.6540  0.9690  0.2653
  673TIP3    H2 2026   0.227   1.805   1.215 -0.9476  1.2286  0.4365
  674TIP3   OH2 2027   1.935   1.544   3.956  0.0653  0.0176  0.1174
  674TIP3    H1 2028   2.022   1.504   3.945 -0.1435  0.1766 -2.8400
  674TIP3    H2 2029   1.938   1.623   3.902 -1.8678  0.1172  0.0888
  675TIP3   OH2 2030   2.870   5.162   4.936  0.1785 -0.8047  0.3467
  675TIP3    H1 2031   2.829   5.244   4.910 -0.2576 -0.6760  1.3929
  675TIP3    H2 2032   2.803   5.096   4.918  0.1097 -0.7931  0.5647
  676TIP3   OH2 2033   0.748   0.788   5.000 -0.1547  0.1131 -0.3260
  676TIP3    H1 2034   0.747   0.872   4.953  0.6019  0.5167  0.3443
  676TIP3    H2 2035   0.839   0.759   4.994 -0.6577 -1.3047 -1.6360
  677TIP3   OH2 2036   1.563   1.563   0.515  0.3880  0.6304 -0.3011
  677TIP3    H1 2037   1.560   1.526   0.603  2.8603 -1.3233 -0.9242
  677TIP3    H2 2038   1.481   1.535   0.474  0.0050  0.0359  0.8422
  678TIP3   OH2 2039   2.128   4.960   0.925  0.1586  0.6178 -0.6843
  678TIP3    H1 2040   2.052   5.017   0.932 -0.1180  0.1152  0.7673
  678TIP3    H2 2041   2.140   4.947   0.831  0.1490  2.9178 -1.0504
  679TIP3   OH2 2042   5.784   3.482   4.561  0.0512  0.3121  0.1233
  679TIP3    H1 2043   5.826   3.520   4.483  1.2277 -1.3793 -0.1237
  679TIP3    H2 2044   5.823   3.395   4.569 -2.3968 -0.8435  0.7230
  680TIP3   OH2 2045   5.945   2.969   1.422 -0.0083 -0.0214 -0.5893
  680TIP3    H1 2046   5.884   2.928   1.361 -1.0492 -0.8102  0.8979
  680TIP3    H2 2047   5.929   3.063   1.413 -0.7228 -0.1719 -0.9396
  681TIP3   OH2 2048   3.999   3.455   1.971 -0.1194  0.0327 -0.4750
  681TIP3    H1 2049   3.977   3.366   1.997 -0.0183  0.1043 -0.1387
  681TIP3    H2 2050   3.966   3.510   2.042  0.4819  0.2000 -0.3119
  682TIP3   OH2 2051   0.912   0.071   0.043  0.1055 -0.4778 -0.4554
  682TIP3    H1 2052   0.983   0.007   0.049 -0.8635 -1.4775  0.8744
  682TIP3    H2 2053   0.860   0.044  -0.032  0.7240 -0.1375 -1.0197
  683TIP3   OH2 2054   2.534   2.694   4.962 -0.0906  0.1552  0.1001
  683TIP3    H1 2055   2.616   2.706   5.010 -0.0626  0.0381  0.0821
  683TIP3    H2 2056   2.477   2.646   5.023  0.0957 -0.3800 -0.1428
  684TIP3   OH2 2057   0.473   0.847   5.092 -0.2807  0.5679 -0.3569
  684TIP3    H1 2058   0.486   0.942   5.096  1.4825  0.3142  1.1150
  684TIP3    H2 2059   0.537   0.817   5.027  0.7772  0.1702  0.8437
  685TIP3   OH2 2060   0.504   4.673   4.678  0.7562 -0.1940  0.0106
  685TIP3    H1 2061   0.537   4.718   4.600 -0.5945  0.3032 -0.3106
  685TIP3    H2 2062   0.443   4.736   4.717 -1.6817 -1.9158 -0.7896
  686TIP3   OH2 2063   1.884   5.544   1.462 -0.1647 -0.3141  0.2823
  686TIP3    H1 2064   1.836   5.594   1.397 -0.1554 -0.2992  0.2869
  686TIP3    H2 2065   1.850   5.455   1.454  0.3246 -0.4560 -0.2070
  687TIP3   OH2 2066   4.219   2.286   3.819  0.5335 -0.2329  0.2637
  687TIP3    H1 2067   4.195   2.211   3.873 -0.6037 -0.1207 -0.0693
  687TIP3    H2 2068   4.284   2.332   3.871  0.4419 -0.8562  0.9509
  688TIP3   OH2 2069   0.401   1.313   2.340  0.3457  0.3814 -1.0093
  688TIP3    H1 2070   0.309   1.286   2.336  0.2621  0.7782 -1.8027
  688TIP3    H2 2071   0.449   1.240   2.301  0.5920 -0.7627  1.2569
  689TIP3   OH2 2072   1.837   3.262   1.360  0.6635  0.2993 -0.2686
  689TIP3    H1 2073   1.784   3.291   1.434  0.6469  0.5975 -0.3942
  689TIP3    H2 2074   1.790   3.294   1.283  0.8998  0.3615 -0.3880
  690TIP3   OH2 2075   5.343   2.032   1.754  0.7173 -0.2869  0.3729
  690TIP3    H1 2076   5.423   2.017   1.805  1.9878  1.2619 -1.0166
  690TIP3    H2 2077   5.333   1.951   1.703  0.2058 -1.2974  1.9874
  691TIP3   OH2 2078   0.650   0.066   1.197  0.1174 -0.8283  0.1976
  691TIP3    H1 2079   0.604   0.071   1.113  0.4952  0.7884  0.0437
  691TIP3    H2 2080   0.634   0.151   1.238 -0.1870 -1.6480  1.8522
  692TIP3   OH2 2081   4.199   5.190   0.496  0.5080 -0.2171 -0.1453
  692TIP3    H1 2082   4.235   5.103   0.476  1.4530 -0.0324  0.6892
  692TIP3    H2 2083   4.275   5.248   0.496 -0.1511  0.6880 -0.9988
  693TIP3   OH2 2084   3.527   4.186   4.915 -0.4208 -0.2881 -0.6348
  693TIP3    H1 2085   3.621   4.204   4.906 -0.0837 -1.0449  1.0749
  693TIP3    H2 2086   3.492   4.200   4.827  1.0608  1.2863 -1.0249
  694TIP3   OH2 2087   0.829   4.748   3.531 -0.3140  0.1320  0.2699
  694TIP3    H1 2088   0.839   4.653   3.525  0.2502  0.2477 -0.7687
  694TIP3    H2 2089   0.740   4.760   3.563 -0.6841 -0.7289 -0.3945
  695TIP3   OH2 2090   4.277   4.816   4.338 -0.5672  0.2843 -0.4364
  695TIP3    H1 2091   4.265   4.787   4.429  1.0834  0.7882 -0.0283
  695TIP3    H2 2092   4.340   4.755   4.302 -0.9232  0.3290 -1.1448
  696TIP3   OH2 2093   0.736   5.369   0.100  0.5798 -0.1288 -0.1573
  696TIP3    H1 2094   0.672   5.416   0.047  1.8204  1.5534 -0.2585
  696TIP3    H2 2095   0.713   5.392   0.190  1.4154  1.0438 -0.2228
  697TIP3   OH2 2096   5.591   0.625   0.625 -0.4517 -0.3033 -0.8208
  697TIP3    H1 2097   5.581   0.579   0.709 -0.5826  1.4527  0.1883
  697TIP3    H2 2098   5.620   0.558   0.564 -0.1295 -1.6012  0.6856
  698TIP3   OH2 2099   0.975   5.035   2.940  0.3947  0.0708  0.2285
  698TIP3    H1 2100   1.002   4.999   2.855  0.5510 -0.5350  0.5259
  698TIP3    H2 2101   0.912   4.972   2.974 -0.4039  0.8024  0.1438
  699TIP3   OH2 2102   1.570   3.695   0.900 -0.0308 -0.0726  0.2392
  699TIP3    H1 2103   1.652   3.681   0.947 -0.2476  0.8424  0.9251
  699TIP3    H2 2104   1.503   3.696   0.969 -0.5274 -0.1046 -0.2358
  700TIP3   OH2 2105   4.792   4.447   4.495  0.0740 -0.3732 -0.0965
  700TIP3    H1 2106   4.838   4.452   4.579 -0.3820  1.1004  0.0948
  700TIP3    H2 2107   4.753   4.533   4.484 -1.8074 -1.2368 -0.7242
  701TIP3   OH2 2108   5.094   3.813   4.471  0.4198 -0.6212  0.4145
  701TIP3    H1 2109   5.128   3.898   4.498 -0.5329  0.3204 -1.1561
  701TIP3    H2 2110   5.163   3.751   4.494  1.2429  0.6068  1.3724
  702TIP3   OH2 2111   1.967   2.175   2.836  0.2190 -0.2139  0.2488
  702TIP3    H1 2112   2.053   2.213   2.817  0.6428 -0.7336  1.0482
  702TIP3    H2 2113   1.907   2.249   2.834  0.6540  0.1307 -0.4991
  703TIP3   OH2 2114   3.465   0.190   2.358  0.6495  0.4623 -0.1397
  703TIP3    H1 2115   3.548   0.190   2.312  1.5345 -0.6041  1.3695
  703TIP3    H2 2116   3.447   0.098   2.377  0.2995  0.8303  1.5312
  704TIP3   OH2 2117   5.817   1.719   2.568 -0.6019 -0.1154 -0.1761
  704TIP3    H1 2118   5.799   1.648   2.506  1.9644 -0.0341 -1.1318
  704TIP3    H2 2119   5.827   1.676   2.653 -1.5969 -0.5435 -0.2630
  705TIP3   OH2 2120   0.795   2.859   4.686 -0.0546  0.0344 -0.0622
  705TIP3    H1 2121   0.753   2.834   4.768  0.4540  0.5615  0.3644
  705TIP3    H2 2122   0.728   2.844   4.619 -1.8317  3.1401  0.8488
  706TIP3   OH2 2123   0.142   1.922   4.780 -0.1888 -0.4409 -0.1073
  706TIP3    H1 2124   0.053   1.908   4.749 -0.8530 -0.1795  1.6159
  706TIP3    H2 2125   0.161   1.846   4.836  0.4794 -0.2371 -0.0423
  707TIP3   OH2 2126   4.513   0.311   1.652  0.2634  0.1168  0.0573
  707TIP3    H1 2127   4.456   0.245   1.693 -0.1705 -0.3592 -1.2711
  707TIP3    H2 2128   4.497   0.391   1.703  1.2728 -0.8943  2.1190
  708TIP3   OH2 2129   4.865   5.730   2.495  0.0610 -0.7071  0.1798
  708TIP3    H1 2130   4.831   5.717   2.406  0.3394 -0.7046  0.0720
  708TIP3    H2 2131   4.901   5.819   2.494  0.4514 -0.8622  0.1666
  709TIP3   OH2 2132   3.525   1.358   4.078  0.7760 -0.2353  0.2133
  709TIP3    H1 2133   3.537   1.440   4.031  0.8780 -0.3373  0.0620
  709TIP3    H2 2134   3.605   1.308   4.061  0.0883 -0.9847 -0.9426
  710TIP3   OH2 2135   1.705   3.559   2.825  0.5339  0.1533  0.7114
  710TIP3    H1 2136   1.626   3.611   2.836  1.3365  1.6926 -0.5208
  710TIP3    H2 2137   1.694   3.515   2.741  0.8192  0.0524  0.7240
  711TIP3   OH2 2138   2.192   4.995   1.309 -0.2160 -0.4296 -0.0942
  711TIP3    H1 2139   2.101   5.006   1.281 -0.1914  0.0338  0.0040
  711TIP3    H2 2140   2.232   5.081   1.296 -0.1712 -0.2330  1.2547
  712TIP3   OH2 2141   2.711   5.947   0.835  0.0922  0.3298 -0.0725
  712TIP3    H1 2142   2.752   5.861   0.823  1.6922  1.2383 -1.6453
  712TIP3    H2 2143   2.725   5.967   0.928  1.9593 -0.0739 -0.2119
  713TIP3   OH2 2144   1.186   0.486   2.611 -0.2599 -0.2512 -0.1017
  713TIP3    H1 2145   1.232   0.404   2.591  0.0873  0.0361 -0.4940
  713TIP3    H2 2146   1.130   0.502   2.534  0.5033  0.4556 -0.5204
  714TIP3   OH2 2147   4.213   4.849   3.080 -0.0563 -0.0339 -0.4042
  714TIP3    H1 2148   4.229   4.793   3.156 -1.5575 -0.1455 -0.1312
  714TIP3    H2 2149   4.298   4.886   3.059  0.7310 -1.4275  0.1996
  715TIP3   OH2 2150   1.732   0.748   0.483 -0.5291 -0.3813  0.1971
  715TIP3    H1 2151   1.719   0.839   0.511  0.0823  0.0168 -0.7688
  715TIP3    H2 2152   1.647   0.707   0.498 -0.3951 -0.0456  2.0370
  716TIP3   OH2 2153   1.406   0.234   3.609  0.5543 -0.2430 -0.0984
  716TIP3    H1 2154   1.386   0.221   3.702 -2.6770  1.8698 -0.3492
  716TIP3    H2 2155   1.348   0.173   3.563 -0.3127  1.0311 -0.7488
  717TIP3   OH2 2156   5.112   5.850   0.878  0.1541  0.1629  0.6399
  717TIP3    H1 2157   5.100   5.804   0.795  2.5154  0.3156  0.1555
  717TIP3    H2 2158   5.096   5.783   0.945  2.3485 -1.1589 -0.0405
  718TIP3   OH2 2159   5.954   2.948   0.440 -0.4890 -0.0314 -0.2214
  718TIP3    H1 2160   6.018   3.014   0.467  1.5237 -1.5888 -0.9633
  718TIP3    H2 2161   5.869   2.987   0.461  0.6701  2.2184  0.5777
  719TIP3   OH2 2162   4.528   2.764  -0.004  0.3518  0.5039  0.1033
  719TIP3    H1 2163   4.444   2.724  -0.027  1.3884 -1.0656 -1.1655
  719TIP3    H2 2164   4.527   2.768   0.092 -2.4077  3.4426  0.0976
  720TIP3   OH2 2165   2.914   4.789   1.553 -0.1477 -0.5974  0.1329
  720TIP3    H1 2166   2.875   4.709   1.590  1.0730 -1.0150  0.5771
  720TIP3    H2 2167   2.992   4.804   1.607  0.2456  0.2692 -0.6576
  721TIP3   OH2 2168   3.395   1.270   3.351  0.2503 -0.2787 -0.1110
  721TIP3    H1 2169   3.328   1.224   3.300 -1.7605 -0.2140  2.2689
  721TIP3    H2 2170   3.442   1.200   3.397  1.6356 -0.2951 -1.4688
  722TIP3   OH2 2171   2.873   0.540   2.134 -0.0097  0.3436 -0.2550
  722TIP3    H1 2172   2.937   0.521   2.066  0.2230 -0.1542  0.0947
  722TIP3    H2 2173   2.791   0.503   2.102 -0.4522  2.1298 -1.3049
  723TIP3   OH2 2174   0.657   2.545   3.499 -0.2240 -0.0764 -0.0587
  723TIP3    H1 2175   0.682   2.461   3.462 -0.3372 -0.8738  1.5582
  723TIP3    H2 2176   0.561   2.540   3.505 -0.2379  0.2082 -0.0532
  724TIP3   OH2 2177   6.034   5.075   2.611 -0.7083 -0.5437 -0.1342
  724TIP3    H1 2178   6.042   5.043   2.521 -0.3060 -2.8102  0.6255
  724TIP3    H2 2179   5.942   5.098   2.621 -1.1564 -2.0478 -0.6083
  725TIP3   OH2 2180   3.180   1.637   4.795 -0.1149 -0.1922  0.0024
  725TIP3    H1 2181   3.143   1.556   4.832 -0.7650  0.9794  2.0540
  725TIP3    H2 2182   3.135   1.647   4.711 -0.5314 -1.5931  0.0244
  726TIP3   OH2 2183   5.158   5.863   3.238 -0.4189 -0.6756  0.1671
  726TIP3    H1 2184   5.077   5.910   3.219  0.4874  0.5404 -0.8508
  726TIP3    H2 2185   5.157   5.788   3.178  0.0353  0.3469 -1.1743
  727TIP3   OH2 2186   0.196   1.743   2.300 -0.0686  0.2134  0.0498
  727TIP3    H1 2187   0.148   1.800   2.360  0.2497 -0.0834  0.5881
  727TIP3    H2 2188   0.130   1.684   2.265 -0.1223 -0.1023  0.6820
  728TIP3   OH2 2189   3.489   5.291   3.515  0.1459  0.3300 -0.0700
  728TIP3    H1 2190   3.540   5.350   3.571  0.1336  0.3213 -0.0496
  728TIP3    H2 2191   3.531   5.206   3.524 -0.0261  0.2653  0.1489
  729TIP3   OH2 2192   0.765   5.850   4.367  0.2324  0.1819 -0.1163
  729TIP3    H1 2193   0.814   5.890   4.439  0.9249 -1.7486  0.5488
  729TIP3    H2 2194   0.679   5.891   4.371  0.2217  0.0785  1.8702
  730TIP3   OH2 2195   1.056   3.239   2.419 -0.0169  0.6413 -0.3219
  730TIP3    H1 2196   1.029   3.184   2.346 -1.7388  3.0012 -1.6196
  730TIP3    H2 2197   1.145   3.267   2.397  0.8311 -1.4093  0.3064
  731TIP3   OH2 2198   5.296   4.358   4.331  0.6887 -0.3338 -0.8652
  731TIP3    H1 2199   5.323   4.271   4.302  1.1653 -0.6929  0.5959
  731TIP3    H2 2200   5.345   4.373   4.411 -1.1583  0.2726  0.2101
  732TIP3   OH2 2201   0.354   1.869   4.181  0.1339 -0.1848 -0.1568
  732TIP3    H1 2202   0.437   1.894   4.221  0.7752  0.0582 -1.5642
  732TIP3    H2 2203   0.371   1.874   4.087 -0.6947 -2.6473 -0.5163
  733TIP3   OH2 2204   2.663   4.525   2.279 -0.2172 -0.2709  0.4675
  733TIP3    H1 2205   2.738   4.507   2.223  0.1726  1.0786  0.5361
  733TIP3    H2 2206   2.647   4.442   2.324  1.3421 -0.5365  0.5912
  734TIP3   OH2 2207   4.245   0.275   0.861  0.3788  0.5058  0.4840
  734TIP3    H1 2208   4.251   0.279   0.766 -0.9862  1.7917  0.4175
  734TIP3    H2 2209   4.316   0.217   0.887  0.6202 -0.0728 -1.3315
  735TIP3   OH2 2210   3.568   1.959   0.395  0.3579  0.0459 -0.5072
  735TIP3    H1 2211   3.637   1.908   0.436  0.1660  1.7362  2.1140
  735TIP3    H2 2212   3.486   1.918   0.424  0.2082 -0.0547 -1.0437
  736TIP3   OH2 2213   2.867   2.854   2.986  0.2773  0.7276 -0.3465
  736TIP3    H1 2214   2.849   2.776   3.040 -0.8011  0.6000 -0.8471
  736TIP3    H2 2215   2.840   2.827   2.898  1.3847  1.1580 -0.8202
  737TIP3   OH2 2216   1.651   4.509   2.639  0.3866 -0.4645  0.0540
  737TIP3    H1 2217   1.620   4.570   2.707 -0.9037 -0.5036 -0.4685
  737TIP3    H2 2218   1.718   4.457   2.683 -0.7247 -0.7818  1.4562
  738TIP3   OH2 2219   6.350   0.092   0.850  0.6790 -0.3156 -0.0384
  738TIP3    H1 2220   6.366   0.185   0.869  0.5899 -0.0396 -1.2011
  738TIP3    H2 2221   6.257   0.080   0.868  0.9418 -0.4926  1.2689
  739TIP3   OH2 2222   0.570   3.158   3.240 -0.3021  0.0350  0.5681
  739TIP3    H1 2223   0.593   3.075   3.198  1.1499 -0.0461  1.4623
  739TIP3    H2 2224   0.527   3.209   3.171  2.9214  0.3246 -1.4091
  740TIP3   OH2 2225   4.014   2.401   4.278 -0.8422 -0.0599  0.2423
  740TIP3    H1 2226   3.971   2.474   4.235 -0.2813  0.5483  0.7044
  740TIP3    H2 2227   4.099   2.435   4.306 -0.7869 -0.7286  0.9311
  741TIP3   OH2 2228   1.409   5.407   3.660  0.0913  0.7828 -0.0436
  741TIP3    H1 2229   1.431   5.461   3.584 -2.1876  1.7862 -0.0622
  741TIP3    H2 2230   1.314   5.410   3.665  0.0747 -0.8040  1.7685
  742TIP3   OH2 2231   2.998   5.962   3.209 -0.7026 -0.3393 -0.1489
  742TIP3    H1 2232   3.001   5.969   3.114  0.2374 -1.4313 -0.2234
  742TIP3    H2 2233   3.030   5.874   3.228 -1.2068 -0.2748  1.1688
  743TIP3   OH2 2234   5.054   1.922   4.089 -0.0439  0.8448  0.3745
  743TIP3    H1 2235   5.078   1.952   4.001  2.1637  1.4998  1.1209
  743TIP3    H2 2236   4.985   1.982   4.117 -0.6745  0.7159 -0.8253
  744TIP3   OH2 2237   0.617   1.134   3.488 -0.3292  0.4983 -0.2357
  744TIP3    H1 2238   0.560   1.060   3.468 -0.7468  0.6276  0.4169
  744TIP3    H2 2239   0.656   1.112   3.573 -0.7058  1.1644  0.1156
  745TIP3   OH2 2240   5.906   5.432   4.017  0.0259  0.1537 -0.0733
  745TIP3    H1 2241   5.968   5.477   4.074  0.2011  0.8733 -0.8038
  745TIP3    H2 2242   5.904   5.485   3.937  1.1442 -1.7635 -1.4663
  746TIP3   OH2 2243   0.511   4.343   3.594 -0.0162  0.8193  0.1236
  746TIP3    H1 2244   0.544   4.332   3.683 -0.5073 -0.0906  0.2024
  746TIP3    H2 2245   0.416   4.347   3.603 -0.1728 -0.6439 -0.4534
  747TIP3   OH2 2246   2.591   0.051   3.247  0.0861 -0.0874  0.3245
  747TIP3    H1 2247   2.667  -0.008   3.238 -0.7835 -1.3802  1.0601
  747TIP3    H2 2248   2.624   0.125   3.297  1.1099 -0.1499 -0.2280
  748TIP3   OH2 2249   1.280   1.984   3.068  0.0194 -0.1121  0.5145
  748TIP3    H1 2250   1.246   1.950   3.151 -2.2670 -0.6273 -0.5514
  748TIP3    H2 2251   1.210   2.039   3.034 -0.0730 -1.6661 -2.0845
  749TIP3   OH2 2252   0.283   4.018   3.648  0.3850 -0.2179 -0.0780
  749TIP3    H1 2253   0.239   3.964   3.583  0.3457  0.5738 -0.7296
  749TIP3    H2 2254   0.361   4.051   3.604  0.1245  0.6898  0.1196
  750TIP3   OH2 2255   0.047   4.320   1.232  0.3998  0.1763  0.0144
  750TIP3    H1 2256   0.041   4.308   1.137  2.3804  0.0798 -0.1358
  750TIP3    H2 2257  -0.025   4.380   1.253 -0.3603 -0.1735 -1.4612
  751TIP3   OH2 2258   6.051   3.343   0.908  0.0030 -0.0211 -0.0174
  751TIP3    H1 2259   6.095   3.275   0.857 -2.1866 -1.0648 -0.6429
  751TIP3    H2 2260   5.971   3.362   0.858  0.0263  2.2577  0.7143
  752TIP3   OH2 2261   0.973   5.631   2.271  0.2341 -0.6536 -0.6286
  752TIP3    H1 2262   0.895   5.589   2.236 -0.3636 -0.8752  0.8800
  752TIP3    H2 2263   0.990   5.704   2.212 -1.3336 -0.3928 -0.7810
  753TIP3   OH2 2264   1.121   1.054   4.047  0.6056  0.7403 -0.1410
  753TIP3    H1 2265   1.111   1.031   4.140 -0.5334  1.0003 -0.1889
  753TIP3    H2 2266   1.186   1.124   4.046 -0.7180  2.0455  0.6781
  754TIP3   OH2 2267   3.829   0.601   1.034  0.2342 -0.5140  0.0102
  754TIP3    H1 2268   3.861   0.630   0.949  1.9920 -1.3079  0.3513
  754TIP3    H2 2269   3.903   0.615   1.094 -1.1883  0.6918  1.5818
  755TIP3   OH2 2270   2.506   2.820   2.344  0.2242  0.3408 -0.3794
  755TIP3    H1 2271   2.441   2.887   2.369  0.7610  1.5393 -2.0379
  755TIP3    H2 2272   2.585   2.845   2.393  0.5022  1.1243 -1.1916
  756TIP3   OH2 2273   4.889   2.474   1.454 -0.6163  0.3727  0.3340
  756TIP3    H1 2274   4.942   2.448   1.379 -0.7386  1.6743 -0.2204
  756TIP3    H2 2275   4.851   2.392   1.486  1.3035 -0.5315  0.4310
  757TIP3   OH2 2276   3.451   5.519   4.598  0.0725 -0.1564  0.2949
  757TIP3    H1 2277   3.521   5.453   4.596 -0.5963 -0.9716  1.7406
  757TIP3    H2 2278   3.375   5.474   4.561  0.1186  0.5049 -0.6421
  758TIP3   OH2 2279   4.331   1.526   0.317  0.0731  0.1731  0.3622
  758TIP3    H1 2280   4.397   1.577   0.270  0.1102  1.1394  1.4078
  758TIP3    H2 2281   4.374   1.497   0.396 -0.5862  0.3758  0.8092
  759TIP3   OH2 2282   3.261   3.786   1.000  0.2177 -0.0366 -0.5336
  759TIP3    H1 2283   3.179   3.766   1.045  0.5407  1.1364  0.6622
  759TIP3    H2 2284   3.329   3.757   1.060  0.6853 -0.6790 -1.3631
  760TIP3   OH2 2285   4.786   2.465   4.087  0.7209 -0.1150  0.5780
  760TIP3    H1 2286   4.756   2.503   4.004  0.7814  0.4556  0.8149
  760TIP3    H2 2287   4.842   2.392   4.061 -1.0974 -1.3980  0.1256
  761TIP3   OH2 2288   2.573   3.475   2.804 -0.7480  0.2845  0.5252
  761TIP3    H1 2289   2.661   3.507   2.785 -1.6855  2.2242 -0.9333
  761TIP3    H2 2290   2.564   3.397   2.749  0.1116 -0.0342  0.8241
  762TIP3   OH2 2291   3.484   3.936   2.524  0.6578 -0.2782 -0.1224
  762TIP3    H1 2292   3.389   3.922   2.525  0.6803 -0.4072  0.3730
  762TIP3    H2 2293   3.520   3.855   2.560  0.9058  0.1584  0.6142
  763TIP3   OH2 2294   6.149   0.712   0.608  0.4662 -0.0087 -0.2544
  763TIP3    H1 2295   6.107   0.687   0.690 -0.3594 -0.1913 -0.7255
  763TIP3    H2 2296   6.160   0.806   0.615  0.2010  0.0077 -0.0262
  764TIP3   OH2 2297   5.462   0.853   1.889 -0.1380 -0.5797  0.2734
  764TIP3    H1 2298   5.464   0.832   1.982 -1.7584  0.0441  0.4834
  764TIP3    H2 2299   5.488   0.772   1.845  1.9494 -0.5176  1.2715
  765TIP3   OH2 2300   1.901   0.040   2.927 -0.0237  0.1053 -0.4638
  765TIP3    H1 2301   1.886   0.121   2.879  1.2774  0.4341 -0.3382
  765TIP3    H2 2302   1.974   0.059   2.985  0.3189 -1.1630 -0.4549
  766TIP3   OH2 2303   1.374   5.852   2.023  0.2420  0.6226 -0.1011
  766TIP3    H1 2304   1.328   5.788   1.970  1.7320  1.3544 -2.4660
  766TIP3    H2 2305   1.430   5.800   2.081 -2.2432 -0.2215  1.7174
  767TIP3   OH2 2306   3.594   3.841   3.624  0.3712 -0.6206 -0.1827
  767TIP3    H1 2307   3.570   3.851   3.532  0.9426  0.1126 -0.2630
  767TIP3    H2 2308   3.680   3.800   3.622  1.3337  1.2826 -0.0638
  768TIP3   OH2 2309   4.617   1.912   3.200  0.1745 -0.6293 -0.3004
  768TIP3    H1 2310   4.567   1.896   3.280 -0.2088  0.7702 -0.2473
  768TIP3    H2 2311   4.577   1.989   3.161  2.2781  0.5616 -0.2491
  769TIP3   OH2 2312   2.701   0.462   3.964 -0.0193 -0.3116  0.0527
  769TIP3    H1 2313   2.630   0.403   3.991  0.0742 -0.8185 -0.7493
  769TIP3    H2 2314   2.667   0.550   3.979 -2.0291 -0.4202 -2.9989
  770TIP3   OH2 2315   4.335   0.783   0.888  0.4166  0.2737 -0.3945
  770TIP3    H1 2316   4.292   0.862   0.854 -1.0133 -0.3094 -0.0449
  770TIP3    H2 2317   4.388   0.751   0.815 -2.5381 -0.9249 -2.2138
  771TIP3   OH2 2318   1.009   0.434   3.683 -0.1188 -0.0354  0.1886
  771TIP3    H1 2319   1.079   0.446   3.618 -0.4234  2.9528  0.2686
  771TIP3    H2 2320   0.935   0.402   3.631  1.1023 -2.9628  0.0578
  772TIP3   OH2 2321   3.874   3.983   0.391  0.2609  0.3661 -0.0301
  772TIP3    H1 2322   3.922   4.059   0.358 -0.7173  1.4346  0.8863
  772TIP3    H2 2323   3.783   4.001   0.367 -0.0236 -0.3996  0.4447
  773TIP3   OH2 2324   5.663   0.332   3.001  0.2334  0.3218  0.1787
  773TIP3    H1 2325   5.724   0.295   2.938  0.8542  0.9964  0.3639
  773TIP3    H2 2326   5.585   0.352   2.950 -0.1739 -1.3227  0.0971
  774TIP3   OH2 2327   1.128   2.829   0.885 -0.3276 -0.6069  0.7034
  774TIP3    H1 2328   1.038   2.859   0.877  0.0244  0.3265  0.0382
  774TIP3    H2 2329   1.175   2.904   0.921  0.3258 -0.8031  0.2756
  775TIP3   OH2 2330   0.020   4.229   0.969  0.5079 -0.2842  0.5465
  775TIP3    H1 2331   0.002   4.142   0.933 -1.9680 -0.6984  2.5230
  775TIP3    H2 2332   0.105   4.253   0.931 -0.1404 -2.1944 -2.5214
  776TIP3   OH2 2333   3.036   1.921   2.019  0.1181 -0.5651  0.1115
  776TIP3    H1 2334   3.090   1.935   1.941 -1.6343  2.3263 -0.7267
  776TIP3    H2 2335   3.010   1.829   2.013  1.3555 -0.8516 -1.8438
  777TIP3   OH2 2336   2.919   2.879   0.207 -0.3737 -0.6990 -0.1209
  777TIP3    H1 2337   2.850   2.836   0.156 -0.7252 -1.7764  1.2039
  777TIP3    H2 2338   2.887   2.877   0.297  0.5585  0.4936  0.2568
  778TIP3   OH2 2339   2.746   5.706   2.234  0.1245  0.1822 -0.4292
  778TIP3    H1 2340   2.708   5.794   2.235 -1.6270 -0.4969  2.6497
  778TIP3    H2 2341   2.812   5.707   2.303  0.3394 -0.8661 -0.6029
  779TIP3   OH2 2342   2.372   3.959   0.722 -0.1776  0.1909  0.9273
  779TIP3    H1 2343   2.451   4.010   0.708 -0.1340  0.1078  0.8653
  779TIP3    H2 2344   2.300   4.016   0.695 -0.0525 -0.2292 -0.3786
  780TIP3   OH2 2345   2.850   1.351   0.542 -0.1972  0.3493  0.2362
  780TIP3    H1 2346   2.922   1.362   0.604  0.1697 -4.1968  1.0206
  780TIP3    H2 2347   2.892   1.340   0.457 -0.1451  0.2150  0.2783
  781TIP3   OH2 2348   0.803   1.404   4.214  0.2623  0.6961  0.6009
  781TIP3    H1 2349   0.806   1.491   4.175  0.8966  0.9226  1.1486
  781TIP3    H2 2350   0.797   1.344   4.139 -0.3478  1.2088  0.2307
  782TIP3   OH2 2351   1.362   2.056   2.183  0.1323  0.0808  0.3596
  782TIP3    H1 2352   1.270   2.034   2.195 -0.1672  0.2113 -1.4348
  782TIP3    H2 2353   1.408   1.973   2.192 -0.5261 -0.5919 -1.9021
  783TIP3   OH2 2354   0.573   4.178   2.392  0.4185 -0.0873  0.3883
  783TIP3    H1 2355   0.491   4.215   2.358  1.8002  1.2954 -1.7186
  783TIP3    H2 2356   0.570   4.195   2.486 -0.5356  2.4583 -0.0144
  784TIP3   OH2 2357   0.970   0.097   1.725 -0.3204  0.3154 -0.2868
  784TIP3    H1 2358   1.064   0.112   1.734 -0.5013  1.1934  0.1601
  784TIP3    H2 2359   0.929   0.162   1.782 -1.1461 -1.5602  1.4182
  785TIP3   OH2 2360   3.057   0.714   2.891  0.2408 -0.3130  0.5826
  785TIP3    H1 2361   3.047   0.655   2.965 -0.9976  0.4416  1.0448
  785TIP3    H2 2362   3.005   0.791   2.914  2.3002  1.2589  0.2969
  786TIP3   OH2 2363   4.417   2.292   3.544  0.4367 -0.0059 -0.5207
  786TIP3    H1 2364   4.456   2.376   3.565 -0.2515  0.6976 -1.8819
  786TIP3    H2 2365   4.476   2.254   3.479 -0.3968  0.4713 -1.5957
  787TIP3   OH2 2366   1.455   1.569   1.076  0.1853  0.1978  0.4320
  787TIP3    H1 2367   1.432   1.651   1.118  1.0304  0.0144  1.2647
  787TIP3    H2 2368   1.512   1.524   1.138  1.7064  0.0410 -1.0028
  788TIP3   OH2 2369   3.083   5.461   5.081 -0.0792 -0.0478 -0.2938
  788TIP3    H1 2370   3.173   5.481   5.105 -0.5061  0.7188  0.7456
  788TIP3    H2 2371   3.088   5.378   5.034  1.1700  0.0248 -0.3106
  789TIP3   OH2 2372   0.134   0.612   4.900 -0.1566 -0.5687 -0.5350
  789TIP3    H1 2373   0.048   0.626   4.941  0.2957  0.6236  0.0723
  789TIP3    H2 2374   0.122   0.640   4.809 -0.4093 -0.4163 -0.4561
  790TIP3   OH2 2375   1.814   2.152   0.418 -0.0908 -0.1431  0.4334
  790TIP3    H1 2376   1.805   2.099   0.497  1.1209  0.3704  0.9438
  790TIP3    H2 2377   1.799   2.091   0.346 -0.8418 -0.6966  1.0539
  791TIP3   OH2 2378   2.651   0.977   3.257 -0.4337 -0.3434  0.0829
  791TIP3    H1 2379   2.640   1.032   3.334  0.7204  1.0829 -0.7203
  791TIP3    H2 2380   2.628   0.889   3.286  0.0031  0.1576  2.0534
  792TIP3   OH2 2381   1.738   0.488   5.125  0.0753  0.0133 -0.8249
  792TIP3    H1 2382   1.664   0.497   5.065 -0.4268  0.8658 -0.1101
  792TIP3    H2 2383   1.804   0.549   5.091 -0.0307  0.1629 -0.7600
  793TIP3   OH2 2384   2.084   2.635   2.825  0.2059 -0.0126 -0.5530
  793TIP3    H1 2385   2.058   2.547   2.798 -0.3764  0.1532 -0.5580
  793TIP3    H2 2386   2.047   2.644   2.913  2.3938 -0.6846  0.5111
  794TIP3   OH2 2387   2.853   5.074   1.581  0.2564 -0.7183  1.0130
  794TIP3    H1 2388   2.898   4.990   1.572 -1.4706 -1.5868 -0.3879
  794TIP3    H2 2389   2.804   5.067   1.663  0.1236 -1.0879  0.9043
  795TIP3   OH2 2390   3.040   3.155   2.774  0.2639 -0.0174  0.6632
  795TIP3    H1 2391   3.083   3.182   2.855  0.9372  0.5044  0.1402
  795TIP3    H2 2392   2.946   3.163   2.794  0.3606 -1.4218  1.8972
  796TIP3   OH2 2393   5.222   4.514   0.079  0.2746  0.1851 -0.3871
  796TIP3    H1 2394   5.218   4.485  -0.012 -1.7958  0.6655 -0.5174
  796TIP3    H2 2395   5.186   4.440   0.129  0.2400  0.3882 -0.1099
  797TIP3   OH2 2396   2.507   0.520   4.317  0.0066 -0.1044 -0.0968
  797TIP3    H1 2397   2.462   0.541   4.399 -0.1506 -0.6530 -0.0401
  797TIP3    H2 2398   2.578   0.584   4.312  1.4885 -1.4547  1.6676
  798TIP3   OH2 2399   2.111   0.051   1.544  0.1993 -0.2720  0.0236
  798TIP3    H1 2400   2.062   0.089   1.616  0.0084  0.5604 -0.5356
  798TIP3    H2 2401   2.090   0.105   1.468  0.8578 -0.7700 -0.5371
  799TIP3   OH2 2402   3.663   0.067   4.971 -0.2425  0.2384 -0.0092
  799TIP3    H1 2403   3.587   0.074   4.913 -1.3046  1.0245  1.4012
  799TIP3    H2 2404   3.699   0.156   4.974 -0.0010  0.1318  0.2719
  800TIP3   OH2 2405   4.670   4.072   2.201 -0.2106  0.6245 -0.5105
  800TIP3    H1 2406   4.743   4.103   2.255  0.9720  0.1666 -1.7744
  800TIP3    H2 2407   4.632   4.151   2.164  0.4502  0.7943 -0.8315
  801TIP3   OH2 2408   0.464   5.272   0.866  0.2223 -0.1366  0.8387
  801TIP3    H1 2409   0.372   5.298   0.873  0.0305 -0.8023  0.8140
  801TIP3    H2 2410   0.511   5.354   0.850 -0.4754  0.0691 -0.1904
  802TIP3   OH2 2411   1.108   1.383   1.227 -0.0968 -0.3612  0.5711
  802TIP3    H1 2412   1.184   1.397   1.283  0.6415 -0.8281 -0.2760
  802TIP3    H2 2413   1.135   1.417   1.141 -1.2387  0.4554  0.5151
  803TIP3   OH2 2414   4.675   0.545   3.150 -0.0854  0.2749  0.4063
  803TIP3    H1 2415   4.613   0.531   3.079 -1.3036  1.2739  1.2310
  803TIP3    H2 2416   4.709   0.458   3.170  0.5438  0.0154 -1.5938
  804TIP3   OH2 2417   4.014   1.666   0.351  1.1091  0.0881 -0.4340
  804TIP3    H1 2418   4.073   1.595   0.325 -0.2948 -1.5446  0.6181
  804TIP3    H2 2419   4.006   1.720   0.272  1.0142 -1.8019 -1.8056
  805TIP3   OH2 2420   1.365   5.563   0.926 -0.0890 -0.5377  0.6381
  805TIP3    H1 2421   1.279   5.593   0.896  0.8190  0.7264 -0.9200
  805TIP3    H2 2422   1.407   5.529   0.847  1.7547  1.2432  0.7536
  806TIP3   OH2 2423   2.475   1.906   1.881  0.1223 -0.4872 -0.2972
  806TIP3    H1 2424   2.511   1.820   1.905 -0.0468 -1.0656 -1.9626
  806TIP3    H2 2425   2.388   1.887   1.847 -0.9907  0.6797  1.7301
  807TIP3   OH2 2426   2.629   4.999   5.179  0.0818  0.4329  0.2370
  807TIP3    H1 2427   2.707   5.015   5.127  0.1202 -0.3876  0.0213
  807TIP3    H2 2428   2.646   4.915   5.223 -0.3114  0.6834  0.8833
  808TIP3   OH2 2429   0.158   2.664   1.110 -0.1229  0.6461  0.1424
  808TIP3    H1 2430   0.122   2.583   1.146  1.3481 -0.1304 -0.0107
  808TIP3    H2 2431   0.096   2.689   1.041 -0.9820  0.0586  0.6804
  809TIP3   OH2 2432   2.322   1.042   3.300  0.0587  0.8364  0.7758
  809TIP3    H1 2433   2.375   1.087   3.234  1.6055 -1.6592  0.1742
  809TIP3    H2 2434   2.232   1.066   3.280  0.5606  0.8625 -1.7040
  810TIP3   OH2 2435   4.559   0.440   3.422 -0.0863  0.6066 -0.1242
  810TIP3    H1 2436   4.574   0.448   3.327  1.3971  0.9100  0.1184
  810TIP3    H2 2437   4.624   0.376   3.451 -0.5907  0.4489  0.6848
  811TIP3   OH2 2438   4.835   1.689   2.386 -0.0162 -0.2253  0.5072
  811TIP3    H1 2439   4.750   1.728   2.371  0.3156  0.4185  0.2582
  811TIP3    H2 2440   4.816   1.603   2.424 -0.8670 -1.3110 -2.1887
  812TIP3   OH2 2441   4.103   3.392   2.410  0.0940  0.1697  0.1730
  812TIP3    H1 2442   4.051   3.415   2.488  0.2287  0.4578  0.1778
  812TIP3    H2 2443   4.100   3.296   2.407 -1.9124  0.2094 -0.8136
  813TIP3   OH2 2444   6.112   1.115   4.561  0.2580 -0.4190 -0.3397
  813TIP3    H1 2445   6.193   1.066   4.578  1.1287  1.4983  1.5534
  813TIP3    H2 2446   6.047   1.074   4.619  0.1504 -1.2419 -1.0263
  814TIP3   OH2 2447   2.290   4.803   0.715  0.3482  0.4945  0.0859
  814TIP3    H1 2448   2.346   4.784   0.791  1.5360 -0.1166 -0.9169
  814TIP3    H2 2449   2.212   4.749   0.728  0.3484  0.7120  1.0730
  815TIP3   OH2 2450   1.801   1.489   0.900  0.2168  0.0083  0.2071
  815TIP3    H1 2451   1.835   1.554   0.962  0.6010 -0.4825  0.5285
  815TIP3    H2 2452   1.872   1.425   0.892 -1.3524 -2.2584  2.5866
  816TIP3   OH2 2453   1.641   0.060   4.529  0.1126  0.4960 -0.0263
  816TIP3    H1 2454   1.580   0.114   4.480 -0.8942  0.5439  1.2372
  816TIP3    H2 2455   1.636  -0.026   4.487 -0.0438  0.7650 -0.5682
  817TIP3   OH2 2456   4.077   1.398   4.957  0.1491  0.0437  0.6887
  817TIP3    H1 2457   4.098   1.445   5.038  1.6273 -0.2865  0.5278
  817TIP3    H2 2458   4.136   1.434   4.892 -0.5230 -0.2160 -0.0787
  818TIP3   OH2 2459   5.511   1.141   1.290  0.3021  0.2732  0.1297
  818TIP3    H1 2460   5.512   1.057   1.335 -0.6815  1.2442  2.1157
  818TIP3    H2 2461   5.560   1.200   1.348 -1.4302  1.6866  0.2363
  819TIP3   OH2 2462   1.911   1.783   3.832  0.7622  0.0283 -0.1312
  819TIP3    H1 2463   1.919   1.846   3.904 -0.1424 -1.0706  0.9771
  819TIP3    H2 2464   1.860   1.829   3.766  0.5696  0.6432  0.4301
  820TIP3   OH2 2465   5.321   3.269   2.336 -0.2685 -0.1475  0.2407
  820TIP3    H1 2466   5.357   3.250   2.250  0.3179 -0.6018  0.5793
  820TIP3    H2 2467   5.395   3.299   2.388 -0.3250 -1.2231  0.9831
  821TIP3   OH2 2468   4.507   2.544   3.604  0.1312 -0.1400  0.3037
  821TIP3    H1 2469   4.570   2.546   3.676  1.2091  1.2152 -0.6193
  821TIP3    H2 2470   4.437   2.603   3.631 -0.9684 -1.8697  1.4599
  822TIP3   OH2 2471   1.019   5.899   0.858 -0.0832  0.8771 -0.1409
  822TIP3    H1 2472   0.935   5.936   0.885  0.1740  1.9060 -0.6964
  822TIP3    H2 2473   1.084   5.945   0.912  0.1924  0.7844 -0.3882
  823TIP3   OH2 2474   0.543   1.814   0.745  0.9062  0.1031 -0.1285
  823TIP3    H1 2475   0.614   1.851   0.797  1.7621 -1.1704 -0.3424
  823TIP3    H2 2476   0.556   1.719   0.751  0.9876 -0.1060 -2.5473
  824TIP3   OH2 2477   4.361   4.238   2.081  0.0855 -0.0309  0.7792
  824TIP3    H1 2478   4.274   4.262   2.048  0.6050  0.3175 -0.3752
  824TIP3    H2 2479   4.354   4.144   2.099 -0.0123 -0.4110 -1.0538
  825TIP3   OH2 2480   2.303   3.167   4.886  0.5211 -0.3197 -0.7095
  825TIP3    H1 2481   2.352   3.085   4.878  0.8598 -0.2315  0.2636
  825TIP3    H2 2482   2.350   3.216   4.954 -0.2490  0.2542 -0.5775
  826TIP3   OH2 2483   4.395   1.843   0.202 -0.4465 -0.2833  0.1770
  826TIP3    H1 2484   4.426   1.858   0.113 -0.7843 -0.0480  0.0969
  826TIP3    H2 2485   4.473   1.821   0.251 -0.0937  0.6540  0.0594
  827TIP3   OH2 2486   1.182   6.016   4.171 -0.7545 -0.2056  0.4771
  827TIP3    H1 2487   1.211   5.933   4.209  1.5798  0.5093  0.4285
  827TIP3    H2 2488   1.151   5.994   4.084 -4.2047 -1.5644  1.8602
  828TIP3   OH2 2489   1.912   5.953   0.141 -0.0415 -0.4952 -0.4271
  828TIP3    H1 2490   1.818   5.953   0.123 -0.0206 -0.4843 -0.5358
  828TIP3    H2 2491   1.948   6.019   0.083 -0.0235 -0.1919 -0.0758
  829TIP3   OH2 2492   2.310   0.953   1.271 -0.1082  0.4937 -0.2352
  829TIP3    H1 2493   2.274   0.989   1.351 -0.0587 -0.2143  0.1140
  829TIP3    H2 2494   2.242   0.895   1.237  0.1601  0.2187 -0.3084
  830TIP3   OH2 2495   0.590   5.897   1.408  0.6059 -0.1024  0.2784
  830TIP3    H1 2496   0.538   5.975   1.426  0.9119  0.7980 -2.2906
  830TIP3    H2 2497   0.676   5.917   1.446  0.5531  0.6302  0.0320
  831TIP3   OH2 2498   0.091   2.575   0.131 -0.1742 -0.4639 -0.0915
  831TIP3    H1 2499   0.011   2.624   0.149 -0.4111 -1.0916  0.6248
  831TIP3    H2 2500   0.083   2.548   0.039 -0.0382  0.8110 -0.4953
  832TIP3   OH2 2501   2.254   1.590   3.121 -0.1612 -0.4300  0.2361
  832TIP3    H1 2502   2.163   1.613   3.141  0.1475  1.5402 -0.4435
  832TIP3    H2 2503   2.301   1.673   3.124  1.3049 -1.1653 -1.0574
  833TIP3   OH2 2504   2.194   1.631   0.114  0.3010  0.2994  0.3575
  833TIP3    H1 2505   2.153   1.669   0.192 -1.7441 -2.3522  0.7141
  833TIP3    H2 2506   2.268   1.581   0.147 -0.4300 -0.6344  0.6397
  834TIP3   OH2 2507   2.875   4.314   4.715  0.2298  0.3610 -0.4954
  834TIP3    H1 2508   2.863   4.220   4.700 -1.2882  0.2073  1.2826
  834TIP3    H2 2509   2.825   4.356   4.646 -0.6037 -0.1886 -0.2392
  835TIP3   OH2 2510   1.585   4.358   2.948 -0.0091 -0.0188  0.9445
  835TIP3    H1 2511   1.659   4.323   2.897 -0.7124  0.1707 -0.2478
  835TIP3    H2 2512   1.591   4.313   3.032  2.2794  1.0059  1.4160
  836TIP3   OH2 2513   0.310   1.100   1.520 -0.0869  0.2282 -0.8414
  836TIP3    H1 2514   0.332   1.174   1.575  2.9949 -1.1090 -0.0645
  836TIP3    H2 2515   0.255   1.044   1.575  1.1023 -0.0228  0.1340
  837TIP3   OH2 2516   1.344   5.819   1.575  0.4351 -0.4512 -0.0717
  837TIP3    H1 2517   1.287   5.802   1.650  0.9069 -0.4958  0.2793
  837TIP3    H2 2518   1.287   5.807   1.499 -0.3852  0.8774  0.3016
  838TIP3   OH2 2519   3.573   0.117   1.919 -0.0030 -0.1374 -0.1871
  838TIP3    H1 2520   3.496   0.146   1.870  0.3970 -1.2929 -1.5741
  838TIP3    H2 2521   3.545   0.035   1.961  0.5218 -0.7398 -0.9622
  839TIP3   OH2 2522   4.491   3.478   2.424 -0.3445 -0.5471 -0.1408
  839TIP3    H1 2523   4.460   3.445   2.508  0.1859 -0.5340  0.0679
  839TIP3    H2 2524   4.521   3.400   2.377 -0.0983 -0.4930 -0.0788
  840TIP3   OH2 2525   1.020   4.175   0.918  0.2846 -0.2566  0.2150
  840TIP3    H1 2526   0.961   4.119   0.869  1.3125 -1.1060 -0.0886
  840TIP3    H2 2527   1.100   4.180   0.865  1.0734 -0.4358  1.3383
  841TIP3   OH2 2528   6.212   1.767   1.294  0.0941 -0.4199  0.1593
  841TIP3    H1 2529   6.302   1.749   1.320  0.8694 -1.7059 -2.9097
  841TIP3    H2 2530   6.218   1.844   1.237 -0.4279 -1.4279 -1.3305
  842TIP3   OH2 2531   4.941   4.662   2.614  0.2407  0.0884 -0.7415
  842TIP3    H1 2532   4.894   4.614   2.546 -0.0019  0.2449 -0.6871
  842TIP3    H2 2533   5.023   4.688   2.573  0.3241 -0.2732 -0.8061
  843TIP3   OH2 2534   2.040   0.205   1.329 -0.3199 -0.1324 -0.1137
  843TIP3    H1 2535   2.057   0.298   1.311 -0.6622  0.3367  1.7751
  843TIP3    H2 2536   1.953   0.189   1.291 -0.1143  0.2245 -0.7478
  844TIP3   OH2 2537   0.854   3.816   1.150 -0.4562  0.4429  0.0158
  844TIP3    H1 2538   0.884   3.891   1.201  0.8220 -0.2890  0.4087
  844TIP3    H2 2539   0.909   3.816   1.072 -0.0388 -0.3767  0.2874
  845TIP3   OH2 2540   4.685   2.288   2.236 -0.2412  1.1760 -0.9310
  845TIP3    H1 2541   4.616   2.231   2.269  0.3133 -0.1389 -1.9310
  845TIP3    H2 2542   4.688   2.270   2.142  1.8100  0.7665 -0.8357
  846TIP3   OH2 2543   1.359   1.830   4.878  0.4718  0.3997  0.3325
  846TIP3    H1 2544   1.431   1.812   4.818  1.2875 -0.7903  1.5991
  846TIP3    H2 2545   1.280   1.823   4.824  1.1802 -0.4218 -0.6355
  847TIP3   OH2 2546   3.299   3.430   1.240  0.3777  0.5367  0.4779
  847TIP3    H1 2547   3.317   3.523   1.225  2.0250  0.0433 -1.0182
  847TIP3    H2 2548   3.350   3.408   1.318  0.9896  0.6285  0.1100
  848TIP3   OH2 2549   3.242   3.910   3.243 -0.2949  0.3158 -0.2534
  848TIP3    H1 2550   3.212   3.950   3.325  0.7900  1.7134 -0.4928
  848TIP3    H2 2551   3.255   3.984   3.184  2.3976 -0.2860 -0.5405
  849TIP3   OH2 2552   0.727   1.813   0.440  0.5218  0.3335 -0.3957
  849TIP3    H1 2553   0.656   1.791   0.500  1.0927 -1.3720 -0.3030
  849TIP3    H2 2554   0.691   1.883   0.385 -0.5366  0.8511  0.9003
  850TIP3   OH2 2555   1.877   0.775   0.242 -0.6208 -0.0186  0.5852
  850TIP3    H1 2556   1.896   0.865   0.216 -1.2411 -0.2521 -0.7909
  850TIP3    H2 2557   1.842   0.782   0.331 -0.8379  1.1105  0.4211
  851TIP3   OH2 2558   3.449   4.783   2.088 -0.0226 -0.3472  0.3766
  851TIP3    H1 2559   3.483   4.848   2.150  1.8092 -0.8499 -0.0515
  851TIP3    H2 2560   3.491   4.701   2.114  0.8592 -0.5558 -1.5651
  852TIP3   OH2 2561   2.564   5.553   4.635  0.1202 -0.5900  0.1431
  852TIP3    H1 2562   2.513   5.481   4.598 -1.1602  0.9485 -1.2662
  852TIP3    H2 2563   2.617   5.585   4.562  0.0973  0.3632  0.5285
  853TIP3   OH2 2564   2.389   5.007   2.267 -0.5645  0.1040  0.4998
  853TIP3    H1 2565   2.395   5.033   2.359  0.4522  1.1814  0.1536
  853TIP3    H2 2566   2.431   5.078   2.219 -2.0405  0.0838 -0.9077
  854TIP3   OH2 2567   4.951   3.085   1.880 -0.7844 -0.3203 -0.0932
  854TIP3    H1 2568   4.935   3.052   1.791 -0.6889 -1.1880  0.2031
  854TIP3    H2 2569   4.956   3.180   1.869  0.6797 -0.4901 -1.2617
  855TIP3   OH2 2570   3.254   5.295   1.442  0.0718 -0.7211  0.3235
  855TIP3    H1 2571   3.221   5.236   1.374  1.0147  1.2336 -1.9656
  855TIP3    H2 2572   3.223   5.382   1.416  2.8547  0.5111  0.7185
  856TIP3   OH2 2573   3.979   4.913   0.313  0.7747 -0.0071  0.1402
  856TIP3    H1 2574   3.984   4.817   0.315  0.0312 -0.0477  0.7725
  856TIP3    H2 2575   4.058   4.940   0.267  1.2858 -0.9044  0.4440
  857TIP3   OH2 2576   4.916   2.969   1.637  0.0293  0.0115  0.0907
  857TIP3    H1 2577   4.821   2.959   1.639 -0.0505  0.6737  0.0299
  857TIP3    H2 2578   4.948   2.891   1.592 -0.2898 -1.4538  2.2299
  858TIP3   OH2 2579   0.488   5.957   5.155 -0.1202 -0.2945  0.4352
  858TIP3    H1 2580   0.528   5.930   5.237 -1.3469 -0.0887  1.1148
  858TIP3    H2 2581   0.406   5.908   5.151  0.3347 -0.9978 -1.1183
  859TIP3   OH2 2582   3.023   2.999   3.206  0.1021 -0.7508 -0.0960
  859TIP3    H1 2583   2.964   2.950   3.149  0.5812 -0.5423 -0.7914
  859TIP3    H2 2584   2.978   3.083   3.219  0.8733 -0.0211 -1.8277
  860TIP3   OH2 2585   0.116   4.606   3.613  0.4640  0.1418 -0.1902
  860TIP3    H1 2586   0.113   4.688   3.663  1.1423  1.2782 -1.9524
  860TIP3    H2 2587   0.025   4.590   3.588  0.4751  0.9656 -0.7784
  861TIP3   OH2 2588   0.317   0.353   2.158 -0.5456  1.0502  0.7751
  861TIP3    H1 2589   0.269   0.319   2.233 -1.9458  1.6246  0.1738
  861TIP3    H2 2590   0.388   0.404   2.196 -1.4495  1.6366  1.7110
  862TIP3   OH2 2591   4.222   2.048   3.571  0.1647 -0.4634  0.0817
  862TIP3    H1 2592   4.183   2.133   3.549 -0.2622 -0.9372 -1.0999
  862TIP3    H2 2593   4.314   2.058   3.547  0.4623  0.1573  1.4168
  863TIP3   OH2 2594   5.512   3.492   4.591 -0.4229 -0.2757 -0.2416
  863TIP3    H1 2595   5.606   3.474   4.586 -0.1662 -0.1445  2.4420
  863TIP3    H2 2596   5.481   3.483   4.501  2.1331 -0.3760 -1.2027
  864TIP3   OH2 2597   4.578   3.439   1.862  0.1629  0.0698  0.1047
  864TIP3    H1 2598   4.661   3.454   1.907  0.0064  1.3511  0.0046
  864TIP3    H2 2599   4.519   3.504   1.899 -1.2954 -1.8858  1.3587
  865TIP3   OH2 2600   2.932   0.614   1.239  0.2622  0.1429 -0.1949
  865TIP3    H1 2601   2.980   0.693   1.217 -0.2031  1.1969  2.3138
  865TIP3    H2 2602   2.992   0.563   1.293 -0.2096 -0.2027  0.0138
  866TIP3   OH2 2603   4.192   3.379   0.056 -0.1061  0.6186 -0.0473
  866TIP3    H1 2604   4.179   3.469   0.086 -0.2137  0.5798  0.0230
  866TIP3    H2 2605   4.126   3.365  -0.011 -0.0309  0.6213 -0.1224
  867TIP3   OH2 2606   3.459   2.183   3.974  0.5143 -0.0014 -0.8309
  867TIP3    H1 2607   3.526   2.161   4.039 -0.8755 -0.2067  0.5904
  867TIP3    H2 2608   3.479   2.128   3.899 -0.3843 -3.1474  1.0517
  868TIP3   OH2 2609   0.609   4.515   4.933 -0.2350  0.6301  0.1276
  868TIP3    H1 2610   0.556   4.539   4.858 -0.7726 -1.5539 -0.2542
  868TIP3    H2 2611   0.699   4.517   4.900 -0.5631 -2.0571 -1.1966
  869TIP3   OH2 2612   5.373   3.332   3.149 -0.2166  0.7702 -0.0477
  869TIP3    H1 2613   5.283   3.315   3.176  0.9306 -3.9130  1.7040
  869TIP3    H2 2614   5.396   3.414   3.193 -2.9595  1.0510  1.0650
  870TIP3   OH2 2615   2.620   1.776   4.971  0.6757  0.1405  0.6419
  870TIP3    H1 2616   2.590   1.703   5.025 -0.3265 -0.5549 -0.7659
  870TIP3    H2 2617   2.696   1.741   4.924  1.5533  0.7443  1.5822
  871TIP3   OH2 2618   0.570   2.087   3.513 -0.3137  0.0678 -0.2788
  871TIP3    H1 2619   0.583   1.997   3.543 -0.8624 -0.1602 -0.7068
  871TIP3    H2 2620   0.543   2.134   3.592 -0.3609 -0.2193 -0.1206
  872TIP3   OH2 2621   1.515   0.522   2.033 -0.2832 -0.1007 -0.6593
  872TIP3    H1 2622   1.508   0.539   2.127 -0.0371 -0.1788 -0.6257
  872TIP3    H2 2623   1.426   0.534   1.999 -0.1043  1.4963 -0.6782
  873TIP3   OH2 2624   5.933   1.424   2.475 -0.5289 -0.8329 -0.2354
  873TIP3    H1 2625   6.006   1.434   2.414 -0.6343  3.4069  0.0565
  873TIP3    H2 2626   5.855   1.436   2.421 -0.8434 -1.5004  0.0626
  874TIP3   OH2 2627   4.288   5.279   2.263 -0.2511 -0.2562 -0.1550
  874TIP3    H1 2628   4.255   5.326   2.187 -0.4406  0.0372  0.1046
  874TIP3    H2 2629   4.383   5.289   2.259 -0.2264 -0.6555 -0.6163
  875TIP3   OH2 2630   1.697   0.256   0.209 -0.8503 -0.1279 -1.0287
  875TIP3    H1 2631   1.780   0.215   0.186 -1.0359 -0.5786 -0.8987
  875TIP3    H2 2632   1.718   0.350   0.214  0.2681 -0.4344  1.5527
  876TIP3   OH2 2633   5.438   2.077   4.548 -0.8186  0.6544  0.1697
  876TIP3    H1 2634   5.390   2.055   4.468  0.8553 -0.6008 -0.5478
  876TIP3    H2 2635   5.505   2.009   4.555 -1.2635  0.4024  2.9772
  877TIP3   OH2 2636   4.670   1.081   3.183  0.3169  0.2524  0.1357
  877TIP3    H1 2637   4.703   1.033   3.259 -0.3871  1.4079  1.1957
  877TIP3    H2 2638   4.647   1.167   3.216 -1.2334  0.3716 -1.1173
  878TIP3   OH2 2639   3.103   3.260   0.843 -0.3459 -0.0718  0.2679
  878TIP3    H1 2640   3.122   3.186   0.785 -1.0468 -1.4544  1.7150
  878TIP3    H2 2641   3.016   3.290   0.815 -0.7266 -0.8004  0.6253
  879TIP3   OH2 2642   3.327   4.170   0.626 -0.6430  0.2726 -0.0806
  879TIP3    H1 2643   3.355   4.169   0.717  1.4939  0.2343 -0.7023
  879TIP3    H2 2644   3.267   4.245   0.621  2.2139  2.8168  0.5596
  880TIP3   OH2 2645   4.817   4.664   1.243  0.0871  0.0158  0.3833
  880TIP3    H1 2646   4.835   4.694   1.155  2.0558  0.0078  0.7349
  880TIP3    H2 2647   4.898   4.621   1.271 -0.8359 -0.8876  1.8181
  881TIP3   OH2 2648   5.927   0.291   3.620  0.2375  0.5131 -0.1274
  881TIP3    H1 2649   5.865   0.242   3.566 -0.4442  1.7394 -0.4793
  881TIP3    H2 2650   5.932   0.241   3.701  0.5089 -0.8041 -0.9310
  882TIP3   OH2 2651   6.122   2.368   3.642 -0.0473 -0.3923 -0.5067
  882TIP3    H1 2652   6.079   2.289   3.674 -1.3385 -0.5579 -2.4677
  882TIP3    H2 2653   6.117   2.430   3.714 -2.1526 -0.9632 -0.1185
  883TIP3   OH2 2654   1.020   1.869   0.748 -0.2577 -0.6619  0.0726
  883TIP3    H1 2655   1.095   1.826   0.789  1.1192  1.1384 -0.4245
  883TIP3    H2 2656   1.054   1.902   0.664 -1.7623 -0.2693 -0.4156
  884TIP3   OH2 2657   4.360   3.945   4.378  0.0553 -0.0960  1.1013
  884TIP3    H1 2658   4.447   3.979   4.357 -0.8999  0.5186 -2.5704
  884TIP3    H2 2659   4.367   3.851   4.364 -0.0135  0.0347  0.1543
  885TIP3   OH2 2660   0.988   4.957   3.216  0.1246  0.3178 -0.1151
  885TIP3    H1 2661   0.923   4.888   3.207  0.0597  0.5484 -1.6517
  885TIP3    H2 2662   1.001   4.966   3.311 -1.8571  0.0706  0.2129
  886TIP3   OH2 2663   0.104   0.968   2.720 -0.1012 -0.0574  0.8757
  886TIP3    H1 2664   0.194   0.940   2.734  0.1301  0.7717  1.0798
  886TIP3    H2 2665   0.053   0.887   2.720  0.9264 -0.7994 -1.7028
  887TIP3   OH2 2666   1.250   5.735   1.325 -0.2703  0.2200  0.1889
  887TIP3    H1 2667   1.256   5.796   1.251  0.4152 -2.4385 -2.0992
  887TIP3    H2 2668   1.189   5.667   1.296 -0.3687 -0.6725  2.2925
  888TIP3   OH2 2669   2.055   0.477   4.401 -0.2339  0.0543 -0.1919
  888TIP3    H1 2670   2.052   0.461   4.307  1.4441 -1.1581 -0.0984
  888TIP3    H2 2671   1.964   0.486   4.428 -0.8334 -1.2093 -1.6885
  889TIP3   OH2 2672   4.852   4.527   3.267  0.2358 -0.4672 -0.3076
  889TIP3    H1 2673   4.765   4.519   3.307  1.7546 -2.2494  3.0612
  889TIP3    H2 2674   4.877   4.618   3.282 -0.4274 -0.3508  0.1502
  890TIP3   OH2 2675   2.836   1.115   3.561 -0.2491  0.2598  0.0420
  890TIP3    H1 2676   2.827   1.025   3.591  0.1408  1.4139  4.2513
  890TIP3    H2 2677   2.923   1.142   3.590 -0.3110  1.9853 -1.2167
  891TIP3   OH2 2678   5.421   1.573   1.530 -0.1869  0.2540 -0.6026
  891TIP3    H1 2679   5.356   1.545   1.465  0.2678 -1.3572 -0.4189
  891TIP3    H2 2680   5.504   1.574   1.482  0.7615 -4.1677  0.5042
  892TIP3   OH2 2681   1.280   0.791   0.423 -0.0772 -0.1604 -0.2096
  892TIP3    H1 2682   1.237   0.816   0.342 -1.9593 -2.3949 -0.0335
  892TIP3    H2 2683   1.274   0.868   0.479 -0.5592  0.7694 -1.5082
  893TIP3   OH2 2684   4.315   1.566   1.025 -1.0178 -0.3260 -0.0978
  893TIP3    H1 2685   4.368   1.547   1.102 -0.1104  0.3110 -0.5399
  893TIP3    H2 2686   4.350   1.649   0.992 -3.8658  1.4261  0.9399
  894TIP3   OH2 2687   2.344   3.961   0.179 -0.0093  0.0701  0.0489
  894TIP3    H1 2688   2.358   3.877   0.222  0.3692  0.1532  0.0907
  894TIP3    H2 2689   2.430   4.004   0.182  0.1281 -0.0946 -1.1606
  895TIP3   OH2 2690   2.212   2.605   0.626 -0.9376 -0.2820  0.2694
  895TIP3    H1 2691   2.124   2.634   0.602 -1.0609 -0.3620  0.6199
  895TIP3    H2 2692   2.199   2.519   0.666 -0.7956  0.0627  1.0778
  896TIP3   OH2 2693   4.108   4.846   0.609  0.3955  0.4351 -0.3799
  896TIP3    H1 2694   4.130   4.888   0.526  1.4380  1.2862  0.2957
  896TIP3    H2 2695   4.191   4.811   0.641  0.0249  0.1974  0.3501
  897TIP3   OH2 2696   0.037   0.050   0.059 -0.3443  0.2595 -0.0146
  897TIP3    H1 2697   0.029  -0.046   0.061  1.9790 -0.1325 -3.1141
  897TIP3    H2 2698   0.097   0.070   0.131  0.4924 -0.8204 -0.3827
  898TIP3   OH2 2699   0.083   5.258   4.558  0.1474 -0.6983 -0.0239
  898TIP3    H1 2700   0.114   5.206   4.484 -1.0597 -2.5053  0.6556
  898TIP3    H2 2701   0.005   5.302   4.526  1.0177  0.5319 -0.5201
  899TIP3   OH2 2702   0.024   0.305   0.347  0.5848 -0.4930 -0.4680
  899TIP3    H1 2703   0.028   0.356   0.266 -1.1934 -0.1576 -0.3943
  899TIP3    H2 2704   0.074   0.357   0.410 -0.6887  0.9236 -0.5518
  900TIP3   OH2 2705   1.840   2.641   2.287  0.3445 -0.6538 -0.6799
  900TIP3    H1 2706   1.765   2.582   2.277 -0.1812  0.0631 -1.0419
  900TIP3    H2 2707   1.897   2.620   2.214  0.4392 -1.1161 -0.4759
  901TIP3   OH2 2708   1.799   5.238   4.791  0.2604 -0.1378 -0.1016
  901TIP3    H1 2709   1.732   5.293   4.832 -0.0460 -1.7669  1.7335
  901TIP3    H2 2710   1.755   5.197   4.717 -0.0205  0.6743 -0.4036
  902TIP3   OH2 2711   2.580   1.564   0.021 -0.2541  0.5048 -0.0306
  902TIP3    H1 2712   2.534   1.525   0.095  0.0931  0.3638  0.1129
  902TIP3    H2 2713   2.558   1.508  -0.054  1.2530 -0.7490  0.4034
  903TIP3   OH2 2714   0.474   3.065   4.953 -0.1896  0.4758 -0.0216
  903TIP3    H1 2715   0.529   3.117   5.012 -1.1832  1.6692 -0.1178
  903TIP3    H2 2716   0.403   3.032   5.008  0.1600 -0.3958 -0.0693
  904TIP3   OH2 2717   2.518   0.176   4.586  1.0746  0.4674  0.1793
  904TIP3    H1 2718   2.444   0.118   4.567  0.8125  0.7631  0.2981
  904TIP3    H2 2719   2.484   0.238   4.650  1.4507  0.5553  0.2961
  905TIP3   OH2 2720   3.008   5.847   3.713 -0.1842 -0.3665  0.4804
  905TIP3    H1 2721   2.920   5.810   3.705  0.3638 -2.0145  1.5928
  905TIP3    H2 2722   3.002   5.933   3.672 -2.3090 -0.4542  0.5224
  906TIP3   OH2 2723   1.696   2.226   4.929  0.1393  0.5333  0.5810
  906TIP3    H1 2724   1.692   2.138   4.967 -1.4632  0.5912  0.6503
  906TIP3    H2 2725   1.604   2.248   4.911  0.5360  2.0698  0.2775
  907TIP3   OH2 2726   3.644   3.544   1.680 -0.9055 -0.4394 -0.0236
  907TIP3    H1 2727   3.578   3.490   1.725 -1.1606 -2.0284 -2.1703
  907TIP3    H2 2728   3.705   3.481   1.642  0.7282  0.9463  0.1818
  908TIP3   OH2 2729   4.756   3.235   5.010  0.2308  0.5788  0.3402
  908TIP3    H1 2730   4.733   3.144   4.993 -1.3260  1.2398 -1.4213
  908TIP3    H2 2731   4.846   3.231   5.044  0.4128 -1.5551 -0.2646
  909TIP3   OH2 2732   5.596   1.964   5.127  0.0563 -0.4574 -0.4214
  909TIP3    H1 2733   5.557   1.881   5.153 -0.4716  0.4974  2.1386
  909TIP3    H2 2734   5.542   2.031   5.171  1.4383  1.1656 -1.0709
  910TIP3   OH2 2735   3.435   2.464   3.157 -0.2603 -0.3512 -0.8376
  910TIP3    H1 2736   3.431   2.556   3.131 -1.1889 -0.8866 -2.7362
  910TIP3    H2 2737   3.409   2.464   3.249  2.9168  1.6216  0.2135
  911TIP3   OH2 2738   5.198   1.765   4.262 -0.4585 -0.2673  0.3008
  911TIP3    H1 2739   5.168   1.818   4.188 -0.3505 -0.1274  0.3563
  911TIP3    H2 2740   5.241   1.690   4.221  2.2065  1.2265  0.1586
  912TIP3   OH2 2741   1.426   0.658   2.628  0.0941  0.3318 -0.3943
  912TIP3    H1 2742   1.384   0.575   2.606  0.5390  0.0827 -0.3114
  912TIP3    H2 2743   1.359   0.708   2.674 -0.4309  0.3337 -1.1431
  913TIP3   OH2 2744   1.212   4.940   4.392  0.2559 -0.3079  0.0002
  913TIP3    H1 2745   1.223   4.863   4.447  0.4985  0.1936  0.6650
  913TIP3    H2 2746   1.118   4.945   4.375  0.0878 -0.0626  0.9589
  914TIP3   OH2 2747   5.891   1.794   1.329  0.4209 -1.1614 -0.0809
  914TIP3    H1 2748   5.814   1.821   1.279  0.8084  0.2898  0.0611
  914TIP3    H2 2749   5.954   1.765   1.263  0.3777 -0.6984 -0.3281
  915TIP3   OH2 2750   0.690   2.902   0.284 -0.3212 -0.4035  0.1465
  915TIP3    H1 2751   0.645   2.986   0.284 -1.8205 -1.1364  2.1079
  915TIP3    H2 2752   0.622   2.837   0.269  0.6647 -1.3522 -0.4089
  916TIP3   OH2 2753   4.356   3.550   5.038 -0.1887  0.4594  0.0471
  916TIP3    H1 2754   4.305   3.476   5.005  0.8114  0.7164 -2.3070
  916TIP3    H2 2755   4.308   3.580   5.115 -1.8021 -1.2829 -0.2153
  917TIP3   OH2 2756   3.017   0.489   0.463  0.1314 -0.4181  0.3699
  917TIP3    H1 2757   3.015   0.420   0.397  0.4309 -0.4224  0.3643
  917TIP3    H2 2758   3.089   0.546   0.436  0.0529 -0.2474  0.5187
  918TIP3   OH2 2759   5.566   2.127   0.747  0.1173  0.1095  0.3301
  918TIP3    H1 2760   5.490   2.116   0.690  0.6188  1.0992 -0.5730
  918TIP3    H2 2761   5.533   2.109   0.835 -0.2999 -3.0711 -0.3676
  919TIP3   OH2 2762   0.044   3.394   0.844 -0.1601 -0.4904  0.2877
  919TIP3    H1 2763   0.136   3.384   0.822 -0.2077 -0.6643  0.1599
  919TIP3    H2 2764   0.000   3.402   0.759 -0.0489  1.6066  0.3836
  920TIP3   OH2 2765   1.799   4.089   4.047  0.5432 -0.1645 -0.4198
  920TIP3    H1 2766   1.740   4.055   4.115 -0.0980  1.6041 -0.0436
  920TIP3    H2 2767   1.756   4.067   3.965 -0.7426  1.1902 -0.1482
  921TIP3   OH2 2768   3.421   3.831   1.765 -0.3734  0.5359 -0.2954
  921TIP3    H1 2769   3.433   3.884   1.687 -0.7787  0.9973 -0.0455
  921TIP3    H2 2770   3.374   3.754   1.735 -0.9982  0.9616 -0.4111
  922TIP3   OH2 2771   3.009   3.824   5.159 -0.4160  0.1033 -0.0362
  922TIP3    H1 2772   2.926   3.854   5.120 -0.9943  0.3373  1.3234
  922TIP3    H2 2773   2.982   3.769   5.232  0.6403  0.1083  0.3646
  923TIP3   OH2 2774   4.230   0.382   4.417 -0.0057  0.6309 -0.5104
  923TIP3    H1 2775   4.280   0.318   4.469 -0.5933  0.8713  0.3655
  923TIP3    H2 2776   4.258   0.467   4.450 -1.0912  0.7685  0.0980
  924TIP3   OH2 2777   2.883   2.181   0.664  0.5522  0.0438 -0.7008
  924TIP3    H1 2778   2.938   2.175   0.586 -0.0405 -1.9012 -1.0135
  924TIP3    H2 2779   2.930   2.242   0.721  2.6967 -0.9987 -1.2443
  925TIP3   OH2 2780   1.503   4.670   1.933 -0.0722 -0.0726 -0.2643
  925TIP3    H1 2781   1.441   4.736   1.962 -0.6619 -1.0965  0.8953
  925TIP3    H2 2782   1.505   4.680   1.837 -2.1235 -0.0711 -0.3551
  926TIP3   OH2 2783   6.084   1.894   0.095 -0.2366 -0.0593  0.3637
  926TIP3    H1 2784   6.177   1.868   0.094 -0.0829  0.4782  0.2510
  926TIP3    H2 2785   6.079   1.961   0.163 -0.8281 -1.0690  1.3559
  927TIP3   OH2 2786   3.536   4.823   3.740 -1.0099  0.1440 -0.1938
  927TIP3    H1 2787   3.516   4.769   3.664  0.0759 -1.6513  0.7321
  927TIP3    H2 2788   3.631   4.822   3.746 -0.9371  2.2549 -0.1544
  928TIP3   OH2 2789   5.811   0.451   1.985  0.3107  0.0273  0.2782
  928TIP3    H1 2790   5.853   0.423   2.066 -0.8197  0.2691  0.9619
  928TIP3    H2 2791   5.727   0.487   2.012 -0.4155 -0.5790 -1.0648
  929TIP3   OH2 2792   4.364   4.773   0.720 -0.5254  0.1918  0.1142
  929TIP3    H1 2793   4.439   4.820   0.684 -1.2773  1.2553 -0.1289
  929TIP3    H2 2794   4.400   4.720   0.791  0.4939  0.4647 -0.1896
  930TIP3   OH2 2795   0.760   4.470   3.318  0.2858 -0.1657  0.6417
  930TIP3    H1 2796   0.685   4.512   3.362  0.6179  0.2696  0.7981
  930TIP3    H2 2797   0.828   4.468   3.385  0.8020  0.5181  0.1523
  931TIP3   OH2 2798   0.346   2.481   0.969 -0.5499  0.0714 -0.4169
  931TIP3    H1 2799   0.261   2.522   0.982 -0.6805 -0.3824  0.1880
  931TIP3    H2 2800   0.394   2.498   1.051 -0.1561  0.1003 -0.6503
  932TIP3   OH2 2801   3.894   2.603   3.661 -0.9410 -0.0458 -0.3024
  932TIP3    H1 2802   3.939   2.596   3.745 -1.8021  1.2940  0.2917
  932TIP3    H2 2803   3.813   2.553   3.672 -0.4552 -0.9762 -0.7954
  933TIP3   OH2 2804   3.874   4.481   4.768  0.2035 -0.8708  0.0624
  933TIP3    H1 2805   3.863   4.395   4.729 -1.6648 -0.4697 -0.3760
  933TIP3    H2 2806   3.914   4.534   4.698 -1.4973 -0.6189 -0.7753
  934TIP3   OH2 2807   0.873   4.336   2.216  0.2761  0.0094 -0.5300
  934TIP3    H1 2808   0.873   4.366   2.125  0.5435  1.7662  0.0075
  934TIP3    H2 2809   0.848   4.413   2.267 -1.3462 -1.3187  0.7936
  935TIP3   OH2 2810   1.508   2.839   2.451 -0.2593  0.0144  0.0989
  935TIP3    H1 2811   1.551   2.789   2.382  0.6744 -0.2470  0.8423
  935TIP3    H2 2812   1.420   2.804   2.456 -1.0453  1.4038 -2.3267
  936TIP3   OH2 2813   0.441   3.521   1.201 -0.5052 -0.1436  0.4702
  936TIP3    H1 2814   0.515   3.574   1.230 -0.1923 -0.3125 -0.0203
  936TIP3    H2 2815   0.401   3.571   1.130  0.3425 -0.9664 -0.6279
  937TIP3   OH2 2816   5.240   0.107   2.305 -0.3971 -0.3235  0.0729
  937TIP3    H1 2817   5.306   0.157   2.353  0.3983 -1.3465  0.0754
  937TIP3    H2 2818   5.193   0.058   2.372  0.4426 -1.4367 -0.1265
  938TIP3   OH2 2819   3.807   3.333   3.979  0.8752 -0.3052  0.2832
  938TIP3    H1 2820   3.780   3.260   3.923  0.4533 -1.6578  2.1436
  938TIP3    H2 2821   3.728   3.358   4.027  1.4249  0.1656  0.9660
  939TIP3   OH2 2822   5.803   4.959   1.565 -0.2332 -0.0767  0.0061
  939TIP3    H1 2823   5.834   4.875   1.529  0.2543  0.4824 -0.9142
  939TIP3    H2 2824   5.876   5.019   1.551 -1.1877  0.9166 -0.8877
  940TIP3   OH2 2825   2.332   5.957   1.829  0.3275 -0.1663 -0.0050
  940TIP3    H1 2826   2.419   5.932   1.861 -0.6754 -0.6306  2.6149
  940TIP3    H2 2827   2.273   5.891   1.865 -1.1223 -0.0492 -1.9955
  941TIP3   OH2 2828   3.166   4.456   3.780  0.2568  0.5275 -0.5613
  941TIP3    H1 2829   3.172   4.522   3.849  0.4940 -0.2290  0.1531
  941TIP3    H2 2830   3.164   4.506   3.699 -0.2367  1.4426  0.0011
  942TIP3   OH2 2831   0.792   4.236   4.697 -0.0605 -0.6719 -0.3508
  942TIP3    H1 2832   0.829   4.162   4.648 -1.8750 -1.2275 -0.9872
  942TIP3    H2 2833   0.782   4.203   4.786 -2.5704 -1.9366 -1.0112
  943TIP3   OH2 2834   4.164   5.097   4.545  0.0035 -0.0512  0.3895
  943TIP3    H1 2835   4.080   5.066   4.578  0.0530  0.9330  1.5241
  943TIP3    H2 2836   4.143   5.167   4.484 -0.0896 -1.9091 -1.8516
  944TIP3   OH2 2837   2.781   0.187   4.830 -0.1326 -0.0890  0.6714
  944TIP3    H1 2838   2.755   0.270   4.870 -0.3900 -0.1243  0.5820
  944TIP3    H2 2839   2.817   0.211   4.744 -2.0144 -0.2020 -0.2059
  945TIP3   OH2 2840   3.383   5.227   0.139  0.1565  0.4112 -0.1666
  945TIP3    H1 2841   3.364   5.280   0.216  1.4693 -0.3111  0.7032
  945TIP3    H2 2842   3.466   5.184   0.160 -0.0210 -0.6632 -1.5341
  946TIP3   OH2 2843   0.776   4.128   2.904 -0.0632  0.1891  0.3380
  946TIP3    H1 2844   0.836   4.175   2.845  0.1230 -0.3285  0.1112
  946TIP3    H2 2845   0.735   4.062   2.848 -0.3942  0.1390  0.6366
  947TIP3   OH2 2846   2.075   1.126   3.714  0.3394 -0.4773 -0.4667
  947TIP3    H1 2847   2.098   1.043   3.754 -1.4782 -1.6486 -1.6883
  947TIP3    H2 2848   2.109   1.192   3.775  0.8971 -2.1024  1.0796
  948TIP3   OH2 2849   3.961   3.620   1.726 -0.2727 -0.1659 -0.2322
  948TIP3    H1 2850   3.869   3.599   1.706 -0.0770 -0.1391 -1.2283
  948TIP3    H2 2851   3.979   3.572   1.807 -0.9962 -0.6476 -0.3430
  949TIP3   OH2 2852   3.488   2.579   2.155 -0.0276  0.0912  0.1602
  949TIP3    H1 2853   3.401   2.590   2.195 -0.1040  1.0993 -0.2495
  949TIP3    H2 2854   3.470   2.566   2.062  0.2507 -0.1004  0.1311
  950TIP3   OH2 2855   2.587   1.763   3.309 -0.1488  0.4707  0.2361
  950TIP3    H1 2856   2.564   1.672   3.290  1.0612  0.4713 -1.5342
  950TIP3    H2 2857   2.666   1.756   3.363  1.5612  0.3643 -2.1039
  951TIP3   OH2 2858   3.446   2.574   0.393  0.0244  0.2371  0.0498
  951TIP3    H1 2859   3.540   2.571   0.379  0.2466 -0.4288  1.5481
  951TIP3    H2 2860   3.432   2.644   0.456 -0.3343 -0.4831  0.7946
  952TIP3   OH2 2861   5.358   2.046   4.268  0.3622  0.1536 -0.3024
  952TIP3    H1 2862   5.408   1.978   4.224  1.6697 -0.2053  1.6139
  952TIP3    H2 2863   5.408   2.126   4.253  0.5790  0.1036  0.1210
  953TIP3   OH2 2864   1.457   4.943   3.280  0.0639 -0.1445 -0.5587
  953TIP3    H1 2865   1.465   5.036   3.259 -0.9124  0.1098  0.1332
  953TIP3    H2 2866   1.369   4.934   3.317  0.4042 -1.2174  0.0388
  954TIP3   OH2 2867   3.098   5.668   3.259  0.4290  0.0995  0.2587
  954TIP3    H1 2868   3.099   5.714   3.343 -0.3185  1.2997 -0.3619
  954TIP3    H2 2869   3.175   5.612   3.262 -0.2827 -0.8653  2.2690
  955TIP3   OH2 2870   1.453   4.215   4.051  0.2959  0.7256  0.0315
  955TIP3    H1 2871   1.491   4.173   4.128  1.8876  2.8988  0.5474
  955TIP3    H2 2872   1.368   4.248   4.082 -0.6046 -1.2562 -0.1607
  956TIP3   OH2 2873   2.451   1.093   5.023  0.0534 -0.5076  0.4085
  956TIP3    H1 2874   2.383   1.044   4.978  0.6464 -0.0190 -1.0823
  956TIP3    H2 2875   2.531   1.076   4.972  1.0175 -0.8992  1.9874
  957TIP3   OH2 2876   1.580   0.438   3.867 -0.3197  0.6339  0.1519
  957TIP3    H1 2877   1.495   0.395   3.878  0.0999 -0.2442  0.0580
  957TIP3    H2 2878   1.600   0.475   3.953  0.5691 -1.7515  1.0396
  958TIP3   OH2 2879   4.816   2.684   3.659  0.0595 -0.1623 -0.0212
  958TIP3    H1 2880   4.817   2.762   3.603  0.7123 -1.5322 -2.0504
  958TIP3    H2 2881   4.908   2.671   3.682 -0.2581  0.6642  1.8663
  959TIP3   OH2 2882   4.426   0.250   4.227  0.5715  0.1567 -0.1176
  959TIP3    H1 2883   4.352   0.222   4.173  0.4516 -0.3255  0.2818
  959TIP3    H2 2884   4.410   0.343   4.243  0.2880  0.1603 -0.4045
  960TIP3   OH2 2885   2.575   5.546   2.574 -0.5440  0.1236 -0.2644
  960TIP3    H1 2886   2.504   5.508   2.626 -0.1478 -0.8896 -0.4316
  960TIP3    H2 2887   2.649   5.485   2.587  0.0293  0.6969 -0.7653
  961TIP3   OH2 2888   0.851   2.109   2.856 -0.4353  0.2799  0.8384
  961TIP3    H1 2889   0.890   2.054   2.787  1.5142  0.7628  1.4828
  961TIP3    H2 2890   0.820   2.046   2.921 -0.8291 -0.1278  0.2721
  962TIP3   OH2 2891   6.198   5.221   1.999 -0.1526  0.2321 -0.2732
  962TIP3    H1 2892   6.229   5.237   1.910  0.5526 -0.2815 -0.1278
  962TIP3    H2 2893   6.107   5.252   1.999  0.6033  2.5855 -0.4703
  963TIP3   OH2 2894   2.696   3.853   2.636 -0.2468 -0.3766  0.5718
  963TIP3    H1 2895   2.720   3.784   2.575  2.7761  1.2601 -0.3030
  963TIP3    H2 2896   2.722   3.819   2.722 -0.3679 -0.9922  0.3671
  964TIP3   OH2 2897   0.038   1.371   3.296 -0.0984  0.0789  0.1787
  964TIP3    H1 2898  -0.022   1.321   3.351  1.1175 -0.1673  1.3315
  964TIP3    H2 2899   0.053   1.452   3.345  0.4676  0.1582 -0.1210
  965TIP3   OH2 2900   1.686   2.683   4.483  0.2646 -0.1330  0.2980
  965TIP3    H1 2901   1.666   2.775   4.467 -0.0551 -0.3176 -0.3952
  965TIP3    H2 2902   1.690   2.676   4.578  0.5215  0.6444  0.3501
  966TIP3   OH2 2903   5.271   1.053   2.056 -0.0064 -0.1814  0.1969
  966TIP3    H1 2904   5.212   0.998   2.107  0.5004 -0.3476  0.6031
  966TIP3    H2 2905   5.359   1.021   2.076  0.2785  0.5800  0.2053
  967TIP3   OH2 2906   2.689   0.642   4.795  0.0241 -0.3150 -0.0365
  967TIP3    H1 2907   2.691   0.596   4.711 -0.9685 -1.4924  0.5523
  967TIP3    H2 2908   2.675   0.734   4.772  3.4277  0.0428 -1.3329
  968TIP3   OH2 2909   0.267   4.712   2.552  0.0537 -0.7178  0.0067
  968TIP3    H1 2910   0.309   4.632   2.520  1.9915 -0.4874  1.7814
  968TIP3    H2 2911   0.282   4.711   2.646 -0.9159  1.1729  0.2236
  969TIP3   OH2 2912   0.268   1.242   0.849  0.1877 -0.1701  0.5308
  969TIP3    H1 2913   0.218   1.248   0.931 -0.5452  0.7823  0.0306
  969TIP3    H2 2914   0.214   1.288   0.785  1.6881  0.8897 -0.0324
  970TIP3   OH2 2915   2.765   0.074   3.525  0.0624  0.3644 -0.0042
  970TIP3    H1 2916   2.703   0.142   3.500 -1.9414 -1.0144  0.9659
  970TIP3    H2 2917   2.770   0.078   3.621  0.1183 -0.6581  0.0555
  971TIP3   OH2 2918   0.680   0.870   4.491  0.2053  0.4707  0.0997
  971TIP3    H1 2919   0.665   0.883   4.397  0.8313  1.0052  0.0668
  971TIP3    H2 2920   0.626   0.938   4.533 -0.0281  0.2698  0.1289
  972TIP3   OH2 2921   4.244   5.078   0.904 -0.0968 -0.2943 -0.3402
  972TIP3    H1 2922   4.193   5.030   0.839 -1.1318 -0.4240  0.5436
  972TIP3    H2 2923   4.247   5.021   0.980  1.5056 -0.3403 -0.3987
  973TIP3   OH2 2924   2.740   3.715   1.910  0.3697  0.5052  0.7300
  973TIP3    H1 2925   2.713   3.750   1.995  0.6039  1.0272  0.6006
  973TIP3    H2 2926   2.659   3.685   1.869  0.2035  0.6066  0.9817
  974TIP3   OH2 2927   4.807   0.177   0.255 -0.0531 -0.3604 -0.0505
  974TIP3    H1 2928   4.892   0.145   0.283 -0.1509 -0.3612  0.2524
  974TIP3    H2 2929   4.744   0.121   0.302 -0.2216 -1.0744 -1.1005
  975TIP3   OH2 2930   1.446   0.859   1.917  0.0796 -0.2094 -0.1370
  975TIP3    H1 2931   1.519   0.804   1.948 -0.4878 -0.3098  1.0863
  975TIP3    H2 2932   1.453   0.939   1.969 -0.8098 -0.3100  0.1567
  976TIP3   OH2 2933   6.073   3.196   0.472 -0.0606 -0.3889 -0.1566
  976TIP3    H1 2934   6.051   3.289   0.471 -1.0371 -0.5994 -1.3914
  976TIP3    H2 2935   6.145   3.188   0.408 -0.3155 -0.5457 -0.4275
  977TIP3   OH2 2936   2.329   1.797   3.397  0.0671  0.2451  0.3055
  977TIP3    H1 2937   2.424   1.790   3.391 -0.0708 -0.4674 -3.0826
  977TIP3    H2 2938   2.303   1.729   3.459  1.7032  0.1878  0.9577
  978TIP3   OH2 2939   5.141   1.988   4.433  0.4907  0.3863  0.1363
  978TIP3    H1 2940   5.214   2.013   4.375  0.3277 -0.3454 -0.4094
  978TIP3    H2 2941   5.139   1.892   4.428  0.9065  0.2562  1.9095
  979TIP3   OH2 2942   0.318   5.282   0.516 -0.7670 -0.1461  0.5113
  979TIP3    H1 2943   0.228   5.294   0.545 -0.4822 -0.3564  1.5417
  979TIP3    H2 2944   0.349   5.205   0.565 -0.3924 -0.8128 -0.7221
  980TIP3   OH2 2945   5.741   2.221   3.119  0.1021 -0.8402  0.3652
  980TIP3    H1 2946   5.687   2.300   3.123  1.2671 -0.0519  2.0904
  980TIP3    H2 2947   5.701   2.161   3.181 -0.7402 -1.6182 -0.8940
  981TIP3   OH2 2948   2.780   3.733   0.672  0.0903  0.1759 -0.0523
  981TIP3    H1 2949   2.826   3.702   0.594 -2.0662 -0.7895 -1.0446
  981TIP3    H2 2950   2.793   3.663   0.737 -1.0588 -0.7696 -0.7940
  982TIP3   OH2 2951   1.969   3.953   0.689  0.2383 -0.4363 -0.3157
  982TIP3    H1 2952   1.938   3.910   0.609  1.5524  1.4669 -1.9424
  982TIP3    H2 2953   1.931   4.041   0.686  0.5844 -0.2140  0.9937
  983TIP3   OH2 2954   2.993   3.733   4.879 -0.0236  0.0190  0.2304
  983TIP3    H1 2955   3.029   3.773   4.958 -0.4345  2.4090 -0.7138
  983TIP3    H2 2956   3.016   3.793   4.808  0.6426 -2.2088 -1.5773
  984TIP3   OH2 2957   1.705   1.037   0.215 -0.2194 -0.1910  0.2417
  984TIP3    H1 2958   1.795   1.046   0.248 -0.5170  0.1444  0.9799
  984TIP3    H2 2959   1.658   1.111   0.253 -0.3558  0.8049 -1.7532
  985TIP3   OH2 2960   2.331   5.736   2.368  0.2021  0.5461  0.3987
  985TIP3    H1 2961   2.313   5.808   2.308  0.4346  1.3855  1.3030
  985TIP3    H2 2962   2.266   5.746   2.438  0.3565 -0.0094  0.6269
  986TIP3   OH2 2963   5.740   1.890   2.105  0.3196 -0.5588 -0.9798
  986TIP3    H1 2964   5.684   1.865   2.032  0.5437  0.6231 -1.5767
  986TIP3    H2 2965   5.829   1.881   2.071  0.4785 -1.2703 -0.4149
  987TIP3   OH2 2966   0.159   2.373   1.906 -0.4896  0.0530 -0.3682
  987TIP3    H1 2967   0.079   2.408   1.866 -0.9881  0.1875  0.6945
  987TIP3    H2 2968   0.156   2.279   1.889 -0.7113  0.1030 -0.6103
  988TIP3   OH2 2969   5.926   5.615   1.243 -0.0376 -0.0650 -0.3596
  988TIP3    H1 2970   5.837   5.650   1.244  0.3930  1.0999 -0.8118
  988TIP3    H2 2971   5.926   5.551   1.172 -1.4166 -2.7115  1.8344
  989TIP3   OH2 2972   3.775   5.500   4.832 -0.4079  0.0828  0.0000
  989TIP3    H1 2973   3.799   5.574   4.887 -0.1549 -0.5568  0.7826
  989TIP3    H2 2974   3.841   5.498   4.763 -0.3665  0.5273  0.0247
  990TIP3   OH2 2975   2.814   0.257   3.219 -0.8905 -0.2951 -0.1847
  990TIP3    H1 2976   2.889   0.203   3.244  0.1908  0.2108 -2.1516
  990TIP3    H2 2977   2.790   0.303   3.299 -0.7555 -2.3579  1.1335
  991TIP3   OH2 2978   1.219   0.786   2.203  0.3983  0.0005 -0.0451
  991TIP3    H1 2979   1.313   0.797   2.218  0.7595 -1.0610 -1.3296
  991TIP3    H2 2980   1.203   0.693   2.215 -0.2586 -0.0303 -1.0011
  992TIP3   OH2 2981   0.794   3.796   2.990 -0.3216  0.1565  0.3616
  992TIP3    H1 2982   0.724   3.751   3.036  0.3922 -2.8724 -1.2737
  992TIP3    H2 2983   0.768   3.794   2.898  0.6831  1.3972  0.0169
  993TIP3   OH2 2984   5.499   1.495   2.732 -0.1462 -0.3445 -0.4049
  993TIP3    H1 2985   5.412   1.513   2.697 -1.5077 -0.4091  2.6542
  993TIP3    H2 2986   5.536   1.429   2.673 -1.8022  0.2724 -2.2329
  994TIP3   OH2 2987   4.766   5.082   0.081  0.7936  0.4886 -0.3625
  994TIP3    H1 2988   4.733   4.998   0.114  0.7465  0.4187 -0.5895
  994TIP3    H2 2989   4.768   5.072  -0.014 -0.0047  1.0303 -0.4512
  995TIP3   OH2 2990   5.627   3.486   1.923 -0.2394 -0.2728 -0.8060
  995TIP3    H1 2991   5.718   3.461   1.941 -0.1735  0.5950  0.1639
  995TIP3    H2 2992   5.588   3.407   1.886  1.4469 -0.0467 -3.3537
  996TIP3   OH2 2993   2.613   3.655   3.651  0.5016  0.1920 -0.5279
  996TIP3    H1 2994   2.528   3.662   3.695  0.9923  0.8512  0.3448
  996TIP3    H2 2995   2.663   3.594   3.706  0.9906  0.7296 -0.3738
  997TIP3   OH2 2996   4.069   1.989   1.184 -0.4108 -0.1784 -0.3662
  997TIP3    H1 2997   4.001   1.978   1.118 -0.0833  1.2606 -0.9874
  997TIP3    H2 2998   4.076   2.084   1.195  2.0394 -0.2325 -0.9272
  998TIP3   OH2 2999   5.895   1.287   4.059 -0.2370 -0.3318 -0.2407
  998TIP3    H1 3000   5.913   1.218   4.123  0.9709  0.7654  0.6666
  998TIP3    H2 3001   5.909   1.245   3.974  0.6702 -1.1644  0.2924
  999TIP3   OH2 3002   4.843   0.090   1.353  0.3667 -0.2812 -0.2405
  999TIP3    H1 3003   4.766   0.095   1.409  0.9085  1.9234  0.4157
  999TIP3    H2 3004   4.918   0.094   1.413  0.9887 -0.3043 -0.9846
 1000TIP3   OH2 3005   5.219   2.477   2.455 -0.0011  0.1443  0.2473
 1000TIP3    H1 3006   5.227   2.485   2.550 -0.1625 -1.2941  0.3979
 1000TIP3    H2 3007   5.131   2.511   2.436  0.3593  1.2621  0.4853
 1001TIP3   OH2 3008   2.506   5.896   3.608  0.2404 -0.3568 -0.3465
 1001TIP3    H1 3009   2.446   5.946   3.664  0.1591 -0.3464 -0.4435
 1001TIP3    H2 3010   2.558   5.963   3.564  0.3652 -0.3679 -0.2164
 1002TIP3   OH2 3011   2.289   5.278   1.517 -0.3157  0.0810 -0.4031
 1002TIP3    H1 3012   2.254   5.299   1.431  0.9918  1.9605 -0.5367
 1002TIP3    H2 3013   2.361   5.217   1.501  0.0864  0.6227 -0.6880
 1003TIP3   OH2 3014   1.891   4.785   0.035  0.1262 -0.1282 -0.1228
 1003TIP3    H1 3015   1.916   4.709   0.088  0.2601  1.1391  1.7247
 1003TIP3    H2 3016   1.808   4.760  -0.005 -0.0477 -1.0892  0.7966
 1004TIP3   OH2 3017   2.669   4.395   1.066  0.2225  0.4811 -0.1276
 1004TIP3    H1 3018   2.703   4.345   1.139 -0.9658  0.2660  0.2992
 1004TIP3    H2 3019   2.682   4.339   0.990 -2.1682 -1.0709  0.4968
 1005TIP3   OH2 3020   5.463   2.600   1.377 -0.7721  0.3366 -0.3131
 1005TIP3    H1 3021   5.518   2.591   1.299  0.9665 -0.3638  0.9406
 1005TIP3    H2 3022   5.519   2.575   1.450 -2.7526 -0.3608  1.0739
 1006TIP3   OH2 3023   0.335   6.003   2.987  0.3678  0.0707  0.0549
 1006TIP3    H1 3024   0.362   5.984   3.077  0.2918  1.8033  0.4792
 1006TIP3    H2 3025   0.277   5.931   2.964  1.2102 -0.9454  1.0144
 1007TIP3   OH2 3026   5.368   4.664   0.278  0.1721 -0.5286  0.4892
 1007TIP3    H1 3027   5.287   4.692   0.320  0.3861  3.6965 -1.3912
 1007TIP3    H2 3028   5.341   4.629   0.193  0.2077  0.5555  0.0082
 1008TIP3   OH2 3029   3.013   5.163   0.694 -0.4050 -0.5585  0.0929
 1008TIP3    H1 3030   2.941   5.102   0.682 -1.3044  0.6539 -0.9717
 1008TIP3    H2 3031   3.069   5.122   0.759 -1.2352 -2.2673 -0.2176
 1009TIP3   OH2 3032   4.875   4.144   1.217  0.1451 -0.2547  0.1555
 1009TIP3    H1 3033   4.801   4.204   1.228 -0.4166 -1.0424  0.6949
 1009TIP3    H2 3034   4.932   4.164   1.291  0.0057 -0.3145  0.2799
 1010TIP3   OH2 3035   6.125   2.420   4.441  0.1722  0.0300 -0.0569
 1010TIP3    H1 3036   6.144   2.380   4.356 -1.3727  0.5556 -0.6891
 1010TIP3    H2 3037   6.120   2.346   4.502  1.6541 -0.3214 -0.3314
 1011TIP3   OH2 3038   3.585   5.215   0.845  0.5324  0.7097  0.0103
 1011TIP3    H1 3039   3.500   5.258   0.838  0.3950  0.6375  1.1339
 1011TIP3    H2 3040   3.577   5.138   0.788  0.3789  1.4913 -1.0683
 1012TIP3   OH2 3041   2.374   1.153   2.211  0.0903  0.4761  0.2774
 1012TIP3    H1 3042   2.372   1.108   2.295 -1.2577 -0.5436 -0.2607
 1012TIP3    H2 3043   2.385   1.245   2.233 -0.5378  0.2556  1.5957
 1013TIP3   OH2 3044   1.229   2.735   2.468  0.3307  0.4445 -0.1876
 1013TIP3    H1 3045   1.150   2.784   2.443 -1.6273 -2.5925 -0.5182
 1013TIP3    H2 3046   1.210   2.703   2.557  2.0649  1.1849  0.4982
 1014TIP3   OH2 3047   3.225   2.083   2.411  0.4974  0.5765 -0.2599
 1014TIP3    H1 3048   3.155   2.018   2.400  1.8440 -0.8841 -0.6623
 1014TIP3    H2 3049   3.203   2.153   2.351 -0.8858  0.3901  0.0087
 1015TIP3   OH2 3050   0.549   3.325   1.459 -0.2359 -0.1695  0.0354
 1015TIP3    H1 3051   0.611   3.387   1.422 -0.0383  0.2387  1.0213
 1015TIP3    H2 3052   0.500   3.291   1.384  1.4292 -0.8006 -0.8140
 1016TIP3   OH2 3053   5.040   5.303   2.901 -0.3406 -0.1407 -0.2121
 1016TIP3    H1 3054   5.092   5.242   2.849 -1.5397 -0.3385 -1.2370
 1016TIP3    H2 3055   5.091   5.317   2.980  0.1869 -2.1108 -0.1537
 1017TIP3   OH2 3056   0.502   3.285   0.724 -0.3020  0.0180  0.0184
 1017TIP3    H1 3057   0.486   3.295   0.630 -0.2875 -0.0546  0.0082
 1017TIP3    H2 3058   0.454   3.357   0.765  0.4603  0.6268 -0.1176
 1018TIP3   OH2 3059   4.312   0.596   0.242  0.5285 -0.5332  0.7315
 1018TIP3    H1 3060   4.387   0.538   0.225  0.6952  0.0222 -0.4910
 1018TIP3    H2 3061   4.238   0.552   0.201  0.6790  0.1539 -0.3147
 1019TIP3   OH2 3062   4.749   3.370   3.246  0.4491  0.4425  0.2789
 1019TIP3    H1 3063   4.727   3.431   3.316 -1.6927 -2.1249  2.0079
 1019TIP3    H2 3064   4.716   3.412   3.167 -0.4533  1.7827  1.3127
 1020TIP3   OH2 3065   6.249   3.600   4.767  0.0564 -0.6270  0.3409
 1020TIP3    H1 3066   6.320   3.612   4.705  0.0680  1.7941  0.7200
 1020TIP3    H2 3067   6.271   3.657   4.840 -1.8829 -0.4083  0.8077
 1021TIP3   OH2 3068   5.163   3.329   2.555  0.1687 -0.6060 -0.5824
 1021TIP3    H1 3069   5.241   3.360   2.602 -0.1810 -0.4233 -0.1163
 1021TIP3    H2 3070   5.193   3.315   2.465  0.2127  1.7556 -1.0034
 1022TIP3   OH2 3071   4.976   5.761   2.815  0.1239  0.2311 -0.2235
 1022TIP3    H1 3072   4.913   5.689   2.820  0.0494  0.2940 -0.2545
 1022TIP3    H2 3073   4.957   5.804   2.732  0.8614 -0.3518 -0.7092
 1023TIP3   OH2 3074   5.162   4.037   1.514 -0.2193  0.1565  0.5161
 1023TIP3    H1 3075   5.107   3.962   1.533  0.4472 -0.5100 -0.1368
 1023TIP3    H2 3076   5.133   4.067   1.428 -1.0577  1.1941  1.1270
 1024TIP3   OH2 3077   2.703   2.961   4.096 -0.0354  0.6523 -0.0137
 1024TIP3    H1 3078   2.635   3.019   4.131 -0.9216  0.8321 -1.9376
 1024TIP3    H2 3079   2.656   2.888   4.058  0.7663  1.0199 -1.8392
 1025TIP3   OH2 3080   5.760   0.442   3.964  0.3193  0.1206  0.3444
 1025TIP3    H1 3081   5.760   0.352   3.929 -1.3242  0.6540 -1.1641
 1025TIP3    H2 3082   5.771   0.431   4.058 -2.5486 -1.8922  0.5711
 1026TIP3   OH2 3083   3.056   1.822   0.851 -0.4841  0.0014 -0.4418
 1026TIP3    H1 3084   3.078   1.913   0.832 -0.0183 -0.1026 -0.4224
 1026TIP3    H2 3085   3.127   1.771   0.811  0.3375 -0.2519  1.2540
 1027TIP3   OH2 3086   3.912   5.145   1.513  0.3689  0.4494  0.1814
 1027TIP3    H1 3087   3.894   5.132   1.606 -1.4899 -0.4488 -0.2696
 1027TIP3    H2 3088   3.901   5.239   1.500  2.3427  0.8835  1.1516
 1028TIP3   OH2 3089   2.321   5.314   0.742  0.2550 -0.1521 -0.1591
 1028TIP3    H1 3090   2.252   5.380   0.730 -0.2848 -0.8772 -1.1838
 1028TIP3    H2 3091   2.344   5.287   0.653  1.5575 -0.2431  0.1934
 1029TIP3   OH2 3092   2.082   0.454   1.526 -0.0821 -0.2173  0.2596
 1029TIP3    H1 3093   1.999   0.471   1.571  0.2262 -0.0126  0.7676
 1029TIP3    H2 3094   2.067   0.480   1.436 -1.3939 -2.6150 -0.3124
 1030TIP3   OH2 3095   0.139   4.042   3.881 -0.3495  0.2617 -0.1526
 1030TIP3    H1 3096   0.167   4.106   3.946 -0.8460  1.0719 -0.7137
 1030TIP3    H2 3097   0.192   4.062   3.803 -0.5360  0.0130 -0.3473
 1031TIP3   OH2 3098   0.808   1.901   3.026  0.5364 -0.5588 -0.3113
 1031TIP3    H1 3099   0.718   1.920   3.054  1.2471  1.9994  0.4996
 1031TIP3    H2 3100   0.808   1.806   3.010 -2.2102 -0.6998 -0.0773
 1032TIP3   OH2 3101   1.002   0.570   1.810  0.9627 -0.0420 -0.2809
 1032TIP3    H1 3102   1.056   0.646   1.826  0.4704  0.2297  0.1307
 1032TIP3    H2 3103   0.947   0.594   1.735  1.6357 -0.4420 -0.9139
 1033TIP3   OH2 3104   3.921   4.002   0.863  0.2068 -0.3432 -0.3349
 1033TIP3    H1 3105   3.909   4.011   0.958 -2.5045  1.6218 -0.7274
 1033TIP3    H2 3106   3.852   3.941   0.837  0.0804  0.1571 -1.1839
 1034TIP3   OH2 3107   2.754   5.155   3.780  0.3547  0.0964 -0.4701
 1034TIP3    H1 3108   2.776   5.180   3.869  1.0352 -1.5761 -0.1352
 1034TIP3    H2 3109   2.820   5.090   3.756 -0.7655 -0.6646 -1.6069
 1035TIP3   OH2 3110   1.782   0.990   1.130  0.2371  0.2206 -0.1160
 1035TIP3    H1 3111   1.716   1.058   1.140 -1.6814 -1.8406  3.0837
 1035TIP3    H2 3112   1.847   1.009   1.198  1.0177  0.2068 -0.8447
 1036TIP3   OH2 3113   4.217   0.240   3.146  0.3658 -0.2148 -0.1147
 1036TIP3    H1 3114   4.176   0.227   3.231  2.4197  2.1127  1.4001
 1036TIP3    H2 3115   4.144   0.243   3.084 -1.5531  1.1462  2.0218
 1037TIP3   OH2 3116   1.711   1.074   1.928 -0.1711  0.0549  0.0793
 1037TIP3    H1 3117   1.673   1.154   1.893  1.3429  0.6862 -0.2214
 1037TIP3    H2 3118   1.768   1.042   1.858  0.2853 -0.5376  0.7065
 1038TIP3   OH2 3119   5.282   0.306   4.135 -0.4581 -0.4022 -0.6544
 1038TIP3    H1 3120   5.352   0.306   4.070 -1.7215 -0.2401 -2.0511
 1038TIP3    H2 3121   5.305   0.377   4.196 -0.3833  0.9533 -2.2021
 1039TIP3   OH2 3122   5.114   3.705   0.048 -0.3006  0.3083 -0.0913
 1039TIP3    H1 3123   5.113   3.694  -0.047 -0.3369  3.4013 -0.5321
 1039TIP3    H2 3124   5.023   3.693   0.074 -0.4593  0.4052 -0.5832
 1040TIP3   OH2 3125   0.437   5.140   3.506 -0.0286  0.1866  0.1360
 1040TIP3    H1 3126   0.507   5.134   3.441 -0.4836 -0.8470 -0.2825
 1040TIP3    H2 3127   0.414   5.233   3.509  2.2229  0.7746  1.2115
 1041TIP3   OH2 3128   1.080   2.838   3.877  0.1833  0.4625  0.3776
 1041TIP3    H1 3129   0.992   2.875   3.890  0.7119  1.5838  0.8546
 1041TIP3    H2 3130   1.097   2.853   3.784 -1.0475 -1.8842 -0.3027
 1042TIP3   OH2 3131   2.958   5.334   4.576 -0.3264 -0.9320 -0.2578
 1042TIP3    H1 3132   2.901   5.365   4.646  0.8931 -0.8410  0.7341
 1042TIP3    H2 3133   2.959   5.239   4.586 -0.3048 -0.9336 -0.2761
 1043TIP3   OH2 3134   3.659   0.960   4.686  0.2412  0.0348  0.1765
 1043TIP3    H1 3135   3.715   0.893   4.726  0.0657  0.1930  0.6923
 1043TIP3    H2 3136   3.634   1.017   4.759  0.6552  0.8604 -0.3130
 1044TIP3   OH2 3137   1.201   4.338   4.041  0.0206 -0.3917  0.0947
 1044TIP3    H1 3138   1.208   4.396   4.117  0.1342 -0.9458  0.5110
 1044TIP3    H2 3139   1.175   4.396   3.970  0.0173  0.1547  0.5308
 1045TIP3   OH2 3140   5.103   5.494   2.593 -0.2873 -0.6381 -0.5567
 1045TIP3    H1 3141   5.152   5.535   2.522  0.7653  1.2506  1.1982
 1045TIP3    H2 3142   5.012   5.519   2.577  0.0013  0.1540 -0.9743
 1046TIP3   OH2 3143   5.320   0.399   3.231  0.0581 -0.6333 -0.2414
 1046TIP3    H1 3144   5.332   0.450   3.151 -0.2409  0.2323  0.2495
 1046TIP3    H2 3145   5.372   0.446   3.297  0.3855 -1.3933  0.0493
 1047TIP3   OH2 3146   4.848   1.766   5.181 -0.8042 -0.1434  0.0553
 1047TIP3    H1 3147   4.753   1.765   5.187 -0.9655  2.9788 -0.5085
 1047TIP3    H2 3148   4.866   1.755   5.087 -0.5556 -1.1943  0.2137
 1048TIP3   OH2 3149   4.665   3.802   1.518 -0.1324 -0.6363 -0.4650
 1048TIP3    H1 3150   4.598   3.830   1.581 -1.4708 -1.7936 -1.3033
 1048TIP3    H2 3151   4.737   3.864   1.530 -0.1576 -1.0130  2.4559
 1049TIP3   OH2 3152   3.178   3.466   1.889 -0.2852  0.1563 -0.7273
 1049TIP3    H1 3153   3.215   3.541   1.935  1.6132  0.3642 -2.4190
 1049TIP3    H2 3154   3.084   3.483   1.886 -0.2392  1.0259  1.3626
 1050TIP3   OH2 3155   1.998   4.968   3.612  0.0312  0.1147 -0.3356
 1050TIP3    H1 3156   2.083   4.930   3.593 -0.2494  1.2596 -4.9899
 1050TIP3    H2 3157   1.939   4.892   3.617  0.6692 -0.4995 -1.6362
 1051TIP3   OH2 3158   3.018   4.307   2.842  0.2928 -0.6311  0.1279
 1051TIP3    H1 3159   3.014   4.304   2.747 -0.4597  0.3412  0.1147
 1051TIP3    H2 3160   2.945   4.253   2.871 -1.2686  1.3592  0.0947
 1052TIP3   OH2 3161   5.212   3.642   2.912 -0.0463  0.1439 -0.1016
 1052TIP3    H1 3162   5.217   3.705   2.984 -0.4090  0.9303 -0.7435
 1052TIP3    H2 3163   5.207   3.697   2.834  0.8938 -0.6871 -0.7687
 1053TIP3   OH2 3164   4.385   5.769   3.468 -0.1794  0.2037  0.5883
 1053TIP3    H1 3165   4.414   5.705   3.533 -2.2143 -1.8511 -0.4158
 1053TIP3    H2 3166   4.370   5.849   3.518  0.5765 -0.6350  2.2197
 1054TIP3   OH2 3167   4.596   2.813   0.761  0.0125  0.2071 -0.3365
 1054TIP3    H1 3168   4.657   2.779   0.827  0.3150  0.4464 -0.4941
 1054TIP3    H2 3169   4.516   2.762   0.775  0.7325 -1.1806 -1.1337
 1055TIP3   OH2 3170   4.130   3.808   0.858  0.0001 -0.0465  0.0644
 1055TIP3    H1 3171   4.077   3.746   0.808 -0.4286  0.0154  0.4330
 1055TIP3    H2 3172   4.109   3.893   0.822  1.2007 -0.1703 -0.9923
 1056TIP3   OH2 3173   3.442   4.353   5.128  0.7152 -0.3982  0.2003
 1056TIP3    H1 3174   3.484   4.299   5.061  2.8615  0.3135  0.8884
 1056TIP3    H2 3175   3.401   4.424   5.078  2.3504  0.1715 -0.4254
 1057TIP3   OH2 3176   6.014   2.066   0.295 -0.2006  0.1976  0.5203
 1057TIP3    H1 3177   5.971   2.151   0.291 -0.1568  0.1829 -0.5594
 1057TIP3    H2 3178   5.966   2.018   0.363 -1.6398  0.3272 -0.3575
 1058TIP3   OH2 3179   0.023   3.412   0.552 -0.1301 -0.1759 -0.5914
 1058TIP3    H1 3180   0.069   3.363   0.484 -1.6567  0.5135 -2.2016
 1058TIP3    H2 3181   0.004   3.497   0.512  2.4984  1.8869  2.1177
 1059TIP3   OH2 3182   6.056   2.185   1.365  0.1215  0.2521 -0.1725
 1059TIP3    H1 3183   6.003   2.127   1.419  1.1672 -0.7465 -0.1827
 1059TIP3    H2 3184   6.116   2.127   1.318 -0.5214  1.1021 -2.1742
 1060TIP3   OH2 3185   4.794   0.207   1.618 -0.2036  0.2900 -0.4468
 1060TIP3    H1 3186   4.805   0.287   1.565  0.2646  0.7471  0.3126
 1060TIP3    H2 3187   4.704   0.179   1.600  0.1673  0.0241 -2.0229
 1061TIP3   OH2 3188   2.983   5.039   0.144 -0.0951  0.2552 -0.1772
 1061TIP3    H1 3189   2.987   5.081   0.230 -0.3908 -1.1019  0.5378
 1061TIP3    H2 3190   2.918   5.090   0.095 -0.0917  0.9080  0.4797
 1062TIP3   OH2 3191   3.537   4.594   0.404  0.1954 -0.0118 -0.0293
 1062TIP3    H1 3192   3.605   4.570   0.468  1.1755 -1.2908 -1.4731
 1062TIP3    H2 3193   3.586   4.617   0.325 -1.0185  0.6664 -0.5998
 1063TIP3   OH2 3194   2.443   0.164   3.642 -0.1949 -0.4318  0.0964
 1063TIP3    H1 3195   2.488   0.098   3.695  0.0607  0.0584  0.5050
 1063TIP3    H2 3196   2.437   0.126   3.555  0.2369 -0.8622  0.2529
 1064TIP3   OH2 3197   4.982   2.854   1.063 -0.3039  0.5310 -0.0501
 1064TIP3    H1 3198   5.065   2.901   1.071  2.1035 -3.4048  0.6705
 1064TIP3    H2 3199   4.947   2.850   1.152  0.5534 -0.7106  0.2460
 1065TIP3   OH2 3200   4.624   3.511   5.068 -0.4416 -0.2096 -0.0773
 1065TIP3    H1 3201   4.661   3.423   5.079  0.1002  0.1959  1.7511
 1065TIP3    H2 3202   4.532   3.502   5.092 -0.3849 -0.2828  0.1152
 1066TIP3   OH2 3203   5.586   1.040   0.607  0.2031 -0.2564  0.1940
 1066TIP3    H1 3204   5.596   1.114   0.548  0.7025 -0.6343 -0.2019
 1066TIP3    H2 3205   5.659   0.982   0.586 -0.3761 -1.0311  0.2578
 1067TIP3   OH2 3206   3.210   1.651   3.083 -0.3159 -0.1551  0.6421
 1067TIP3    H1 3207   3.287   1.607   3.120 -0.7803  0.1770  2.0941
 1067TIP3    H2 3208   3.183   1.596   3.010  0.3557 -1.1446  1.1132
 1068TIP3   OH2 3209   2.321   5.343   4.747 -0.1586 -0.1074  0.0291
 1068TIP3    H1 3210   2.299   5.408   4.680 -0.7889 -0.5305 -0.1790
 1068TIP3    H2 3211   2.238   5.303   4.771  0.3171 -1.4940 -0.5231
 1069TIP3   OH2 3212   2.507   3.485   0.143 -0.6418  0.7248  0.1815
 1069TIP3    H1 3213   2.451   3.537   0.085 -1.8935 -2.1768 -1.4385
 1069TIP3    H2 3214   2.463   3.400   0.149  2.3560 -0.9352  0.8147
 1070TIP3   OH2 3215   3.912   5.200   1.812 -0.7366  0.1608  0.8847
 1070TIP3    H1 3216   3.889   5.266   1.878  0.9365  0.8668  0.8070
 1070TIP3    H2 3217   3.924   5.119   1.862  0.5006  0.6861  1.4760
 1071TIP3   OH2 3218   4.881   4.162   0.537  0.8301  0.1306  0.4310
 1071TIP3    H1 3219   4.795   4.139   0.571 -0.5186  1.9052 -1.4776
 1071TIP3    H2 3220   4.941   4.099   0.576 -1.2680 -0.9323  2.1161
 1072TIP3   OH2 3221   4.013   2.046   1.475 -0.0460  0.3559  0.6246
 1072TIP3    H1 3222   4.078   2.058   1.406  0.2607  0.3762  0.9148
 1072TIP3    H2 3223   4.004   1.951   1.483 -1.7011  0.3343 -0.9478
 1073TIP3   OH2 3224   1.080   1.299   4.488  0.3314 -0.5554  0.1626
 1073TIP3    H1 3225   1.045   1.379   4.527 -1.2613 -0.7000 -0.8789
 1073TIP3    H2 3226   1.157   1.326   4.439  0.5737  0.1038  0.8893
 1074TIP3   OH2 3227   4.864   2.647   1.919 -0.2349 -0.1161  0.4539
 1074TIP3    H1 3228   4.945   2.694   1.937 -0.5214  0.0875  1.2625
 1074TIP3    H2 3229   4.801   2.680   1.983 -1.1961  0.2943 -0.6587
 1075TIP3   OH2 3230   5.823   4.321   2.307  0.3537  0.0654  0.2290
 1075TIP3    H1 3231   5.736   4.324   2.268  0.2466 -0.0010  0.4606
 1075TIP3    H2 3232   5.809   4.285   2.395  0.4901  0.9008  0.6083
 1076TIP3   OH2 3233   3.969   5.810   1.050 -0.1447  0.5213  0.3106
 1076TIP3    H1 3234   4.052   5.802   1.098  0.6435 -1.9566 -1.2921
 1076TIP3    H2 3235   3.904   5.771   1.109  0.4682 -0.6908  0.2152
 1077TIP3   OH2 3236   1.609   0.940   0.628 -0.3398  0.3762  0.4061
 1077TIP3    H1 3237   1.580   1.025   0.662  2.4793  2.0751 -1.0835
 1077TIP3    H2 3238   1.627   0.888   0.706 -1.2323  1.4556  1.3745
 1078TIP3   OH2 3239   5.853   3.411   0.214  0.0449  0.4285 -0.4158
 1078TIP3    H1 3240   5.793   3.482   0.237 -1.8702 -0.8282 -1.2697
 1078TIP3    H2 3241   5.916   3.408   0.286 -0.9205  1.7966  0.5252
 1079TIP3   OH2 3242   2.162   0.715   1.266 -0.4039 -0.6288  0.0720
 1079TIP3    H1 3243   2.114   0.636   1.291  1.2713 -2.5385 -2.2286
 1079TIP3    H2 3244   2.138   0.729   1.174 -0.1754  1.2188  0.2562
 1080TIP3   OH2 3245   5.565   5.886   2.482  0.4259  0.5180  0.3237
 1080TIP3    H1 3246   5.494   5.868   2.420  1.4949 -2.1831 -0.2391
 1080TIP3    H2 3247   5.628   5.937   2.431 -0.1507  1.1069  0.1887
 1081TIP3   OH2 3248   4.058   4.681   0.910 -0.0649  0.0270 -0.1272
 1081TIP3    H1 3249   4.129   4.684   0.847 -0.2152  1.5171 -0.2636
 1081TIP3    H2 3250   3.998   4.615   0.876 -0.1324  0.7996 -1.5443
 1082TIP3   OH2 3251   5.347   2.738   5.062  0.6247 -0.4212  0.8196
 1082TIP3    H1 3252   5.427   2.790   5.055 -0.6916  1.5839 -0.4227
 1082TIP3    H2 3253   5.290   2.791   5.118 -0.9464 -0.1972 -0.8903
 1083TIP3   OH2 3254   6.203   5.364   0.813  0.0620 -0.5432  0.2737
 1083TIP3    H1 3255   6.204   5.344   0.906 -0.8444 -0.7903  0.2351
 1083TIP3    H2 3256   6.280   5.420   0.800  0.0843 -0.3447  1.1965
 1084TIP3   OH2 3257   4.041   4.606   4.574  0.2079  0.1981 -0.0651
 1084TIP3    H1 3258   4.123   4.637   4.613  1.3367  1.9213 -3.4593
 1084TIP3    H2 3259   3.983   4.683   4.578 -0.8680 -0.6309  1.1435
 1085TIP3   OH2 3260   1.355   3.136   5.046  0.1190  0.3864  0.2607
 1085TIP3    H1 3261   1.317   3.193   5.114 -1.7946 -0.5468  0.0387
 1085TIP3    H2 3262   1.301   3.057   5.049  0.6289 -0.0771 -1.6779
 1086TIP3   OH2 3263   5.794   0.533   5.025 -0.2993  0.5091  0.4775
 1086TIP3    H1 3264   5.735   0.607   5.020 -0.9818 -0.0329  0.3356
 1086TIP3    H2 3265   5.763   0.473   4.957  1.1462  0.7369 -0.4262
 1087TIP3   OH2 3266   1.492   1.814   2.214 -0.0496 -0.0194 -0.4185
 1087TIP3    H1 3267   1.452   1.727   2.218  2.1313 -1.1100 -0.7660
 1087TIP3    H2 3268   1.577   1.800   2.171  0.6742  2.1687  0.1428
 1088TIP3   OH2 3269   2.787   4.083   4.067  0.3923  0.8109  0.1697
 1088TIP3    H1 3270   2.805   4.150   4.001 -0.9143  1.8964  0.8656
 1088TIP3    H2 3271   2.837   4.007   4.037 -0.0375  1.2951 -1.9900
 1089TIP3   OH2 3272   4.504   4.841   1.546  0.7679 -0.4940  0.2621
 1089TIP3    H1 3273   4.574   4.898   1.513 -0.7332  2.3783  1.6859
 1089TIP3    H2 3274   4.424   4.882   1.515 -0.4045 -2.6180  0.3021
 1090TIP3   OH2 3275   3.642   2.598   0.680  0.2065 -0.0652 -0.4632
 1090TIP3    H1 3276   3.673   2.653   0.609 -0.2722 -1.0055 -1.4308
 1090TIP3    H2 3277   3.686   2.514   0.667 -2.7935 -1.5722 -2.1032
 1091TIP3   OH2 3278   2.766   0.398   1.510 -0.1345 -0.5125  0.0391
 1091TIP3    H1 3279   2.831   0.329   1.502  1.4567  1.0010 -0.6965
 1091TIP3    H2 3280   2.749   0.425   1.420 -0.5709  0.2042  0.3322
 1092TIP3   OH2 3281   5.431   0.789   3.763  0.0333 -0.0697 -0.2643
 1092TIP3    H1 3282   5.417   0.749   3.676 -0.4897 -0.6741  0.0895
 1092TIP3    H2 3283   5.526   0.790   3.773  0.0926 -0.1371 -0.7882
 1093TIP3   OH2 3284   6.321   5.756   3.349  0.5616  0.1876 -0.9932
 1093TIP3    H1 3285   6.233   5.767   3.315  0.5211 -1.3810 -1.4914
 1093TIP3    H2 3286   6.310   5.698   3.425  1.0033  1.1779 -0.1543
 1094TIP3   OH2 3287   3.349   1.726   0.956 -0.7094  0.0242  0.3789
 1094TIP3    H1 3288   3.328   1.678   0.876 -0.9520  0.6970  0.0334
 1094TIP3    H2 3289   3.375   1.658   1.018  2.7166 -0.3505 -1.2114
 1095TIP3   OH2 3290   3.298   0.518   3.080 -0.1527  0.0220  0.0718
 1095TIP3    H1 3291   3.294   0.461   3.003  1.3376  0.5348 -0.4317
 1095TIP3    H2 3292   3.277   0.461   3.154  2.3057 -1.5176 -0.2981
 1096TIP3   OH2 3293   2.411   2.346   0.432 -0.2593 -0.0390 -0.1760
 1096TIP3    H1 3294   2.435   2.298   0.511 -0.7756  1.3607  0.8633
 1096TIP3    H2 3295   2.406   2.279   0.364  0.9084 -1.1745  0.8047
 1097TIP3   OH2 3296   6.249   5.254   5.053  0.0681  0.1062  0.8951
 1097TIP3    H1 3297   6.211   5.170   5.027  0.6617  0.3908 -1.0800
 1097TIP3    H2 3298   6.308   5.276   4.981  1.5668  1.1940  2.3919
 1098TIP3   OH2 3299   5.446   0.514   3.445 -0.7350  0.1548 -0.0372
 1098TIP3    H1 3300   5.444   0.427   3.485 -2.0995 -0.0094 -0.4388
 1098TIP3    H2 3301   5.537   0.543   3.457 -0.4610 -0.9775  0.8185
 1099TIP3   OH2 3302   0.213   1.568   4.896  0.1118  0.2096 -0.4103
 1099TIP3    H1 3303   0.158   1.627   4.947  0.6708 -0.1489  0.6522
 1099TIP3    H2 3304   0.298   1.571   4.941  0.2661 -1.0777 -0.5807
 1100TIP3   OH2 3305   5.161   4.054   4.562 -0.3888 -0.3224 -0.3653
 1100TIP3    H1 3306   5.098   4.106   4.611 -0.3040 -0.5451 -0.0160
 1100TIP3    H2 3307   5.237   4.047   4.621 -0.3777 -0.7889 -0.4360
 1101TIP3   OH2 3308   1.438   2.893   2.876 -0.1101 -0.6118  0.2540
 1101TIP3    H1 3309   1.530   2.912   2.893 -0.1599  2.4438 -2.0709
 1101TIP3    H2 3310   1.390   2.951   2.935 -0.3802  1.2254 -1.6395
 1102TIP3   OH2 3311   2.879   4.178   1.751  0.1759 -0.2536 -0.1084
 1102TIP3    H1 3312   2.933   4.099   1.751 -0.8299 -0.9604  0.1492
 1102TIP3    H2 3313   2.789   4.146   1.764 -0.4174  0.8150 -1.2981
 1103TIP3   OH2 3314   4.751   0.874   1.854  0.1771 -0.7645 -0.2818
 1103TIP3    H1 3315   4.765   0.967   1.836  0.0564 -0.7634 -0.3683
 1103TIP3    H2 3316   4.724   0.872   1.946  1.9288 -0.8693  0.2684
 1104TIP3   OH2 3317   5.583   3.183   3.378  0.3795 -0.1995  0.1993
 1104TIP3    H1 3318   5.667   3.157   3.416  0.6340  1.2898  0.7231
 1104TIP3    H2 3319   5.604   3.251   3.315 -0.5140  1.0076  1.1554
 1105TIP3   OH2 3320   5.667   4.323   1.568  0.6784 -0.0423  0.1432
 1105TIP3    H1 3321   5.584   4.364   1.592  1.4569  0.8454  1.4888
 1105TIP3    H2 3322   5.676   4.249   1.628  1.0312  0.1046  0.2782
 1106TIP3   OH2 3323   5.336   4.880   2.645  0.3282  0.2496 -0.2719
 1106TIP3    H1 3324   5.416   4.894   2.695 -0.1021  0.6828  0.2966
 1106TIP3    H2 3325   5.315   4.788   2.659  0.6678  0.1587 -0.3453
 1107TIP3   OH2 3326   4.136   1.005   2.328 -0.2750  0.0104  0.3517
 1107TIP3    H1 3327   4.232   1.013   2.333 -0.3551  1.5913 -0.1871
 1107TIP3    H2 3328   4.120   0.910   2.328  1.4906 -0.4155 -2.5480
 1108TIP3   OH2 3329   3.008   1.416   1.873  0.3062  0.3014 -0.3412
 1108TIP3    H1 3330   2.926   1.372   1.897  0.3531  0.0724 -0.5910
 1108TIP3    H2 3331   3.043   1.363   1.801 -0.5431  1.7499 -1.8956
 1109TIP3   OH2 3332   6.332   5.474   1.532  0.3338  0.0206 -0.5307
 1109TIP3    H1 3333   6.243   5.509   1.518 -0.0750 -0.7532  0.0322
 1109TIP3    H2 3334   6.390   5.547   1.511 -0.4006  0.2728 -1.7783
 1110TIP3   OH2 3335   2.205   2.160   3.987  0.8371 -0.0604  0.2501
 1110TIP3    H1 3336   2.127   2.124   3.944  0.4422 -0.2340  1.1021
 1110TIP3    H2 3337   2.275   2.100   3.964  0.5194 -0.4517  0.2956
 1111TIP3   OH2 3338   3.258   0.526   3.502  0.0242 -0.0626  0.7600
 1111TIP3    H1 3339   3.297   0.613   3.509  0.2377 -0.1652  0.8402
 1111TIP3    H2 3340   3.331   0.466   3.509  0.2794 -0.2234 -2.2759
 1112TIP3   OH2 3341   5.309   2.012   3.307  0.0772 -0.1943  0.6794
 1112TIP3    H1 3342   5.272   2.093   3.272  3.7690  0.9974 -0.8491
 1112TIP3    H2 3343   5.345   1.966   3.231  0.0917 -2.2002  1.8164
 1113TIP3   OH2 3344   4.112   1.794   1.485  0.5130  0.4056  0.9075
 1113TIP3    H1 3345   4.177   1.767   1.420 -0.2862 -0.8262  0.5789
 1113TIP3    H2 3346   4.121   1.730   1.556 -1.4565 -0.8825  0.0918
 1114TIP3   OH2 3347   4.797   0.944   2.810  0.3128 -0.3054 -0.1874
 1114TIP3    H1 3348   4.724   0.992   2.772 -0.0665 -0.9904 -0.3479
 1114TIP3    H2 3349   4.756   0.868   2.852  0.9650 -0.9229 -0.6360
 1115TIP3   OH2 3350   2.479   2.317   3.796  0.1292 -0.3009 -0.1294
 1115TIP3    H1 3351   2.537   2.366   3.738 -0.8780  0.6858 -0.3368
 1115TIP3    H2 3352   2.489   2.358   3.881 -0.1647 -0.2074 -0.1382
 1116TIP3   OH2 3353   2.902   0.903   3.096 -0.0767  0.2748 -0.0772
 1116TIP3    H1 3354   2.833   0.912   3.162  0.9897  0.7450  1.0191
 1116TIP3    H2 3355   2.971   0.962   3.125  0.9003 -0.3609 -1.0062
 1117TIP3   OH2 3356   1.111   3.270   3.679 -0.0029  0.3530 -0.5729
 1117TIP3    H1 3357   1.025   3.276   3.720  0.1678  0.6365 -0.2509
 1117TIP3    H2 3358   1.169   3.242   3.750 -0.4182 -3.4553 -1.5456
 1118TIP3   OH2 3359   6.322   3.394   3.622 -0.3218 -0.0199 -0.2055
 1118TIP3    H1 3360   6.317   3.429   3.711 -1.0031 -1.3501  0.3085
 1118TIP3    H2 3361   6.392   3.328   3.626  2.2041  2.3668 -1.5988
 1119TIP3   OH2 3362   6.038   4.581   1.183  0.1696 -0.0487 -0.2519
 1119TIP3    H1 3363   6.056   4.504   1.236  0.0232 -0.7012 -1.1192
 1119TIP3    H2 3364   6.119   4.596   1.135 -0.1084 -0.2467 -0.7924
 1120TIP3   OH2 3365   0.772   2.559   1.268 -0.7202 -0.5028 -0.2368
 1120TIP3    H1 3366   0.820   2.579   1.188 -0.5465  0.0058 -0.0068
 1120TIP3    H2 3367   0.680   2.572   1.245 -0.5734  1.9095  0.2449
 1121TIP3   OH2 3368   4.810   0.465   0.319  0.5723 -0.5641  0.1373
 1121TIP3    H1 3369   4.841   0.466   0.409  1.5053 -2.1793 -0.1212
 1121TIP3    H2 3370   4.814   0.372   0.293 -2.3883 -0.5930 -0.6440
 1122TIP3   OH2 3371   5.265   0.606   0.039  0.3074 -0.2142 -0.3056
 1122TIP3    H1 3372   5.245   0.687   0.086  1.5040 -0.2257  0.2603
 1122TIP3    H2 3373   5.348   0.624  -0.006  1.1070 -1.4140  0.6124
 1123TIP3   OH2 3374   4.501   5.040   2.523 -0.1438  0.1016  0.2414
 1123TIP3    H1 3375   4.525   5.045   2.430 -2.1640  1.5116 -0.2834
 1123TIP3    H2 3376   4.575   5.079   2.569  1.8770 -2.5367 -0.4795
 1124TIP3   OH2 3377   3.489   2.836   4.037  0.2017 -0.2096  0.2451
 1124TIP3    H1 3378   3.532   2.792   4.110 -0.0818  0.6388  0.9517
 1124TIP3    H2 3379   3.489   2.929   4.063 -0.5641  0.0047 -0.4989
 1125TIP3   OH2 3380   2.663   0.716   1.006 -0.7786 -0.0535  0.0315
 1125TIP3    H1 3381   2.591   0.716   0.943 -1.2132  0.9641  0.5051
 1125TIP3    H2 3382   2.737   0.677   0.959 -1.2168  0.2965 -0.9622
 1126TIP3   OH2 3383   1.590   4.233   3.205  0.2661  0.2140 -0.5711
 1126TIP3    H1 3384   1.620   4.305   3.261 -1.9177  1.1729 -0.5284
 1126TIP3    H2 3385   1.537   4.178   3.263 -0.3265  0.0822 -1.2262
 1127TIP3   OH2 3386   5.272   1.659   0.308  0.6113 -0.3240  0.4132
 1127TIP3    H1 3387   5.310   1.586   0.356 -0.3964 -0.9596  0.2768
 1127TIP3    H2 3388   5.206   1.619   0.251  0.3828  0.6355 -0.0214
 1128TIP3   OH2 3389   4.845   3.601   1.690  0.0749  0.4451 -0.0034
 1128TIP3    H1 3390   4.862   3.601   1.784 -0.1955  0.2917  0.0461
 1128TIP3    H2 3391   4.750   3.599   1.682  0.0653  1.4442 -0.2818
 1129TIP3   OH2 3392   3.805   3.902   1.647 -0.4404  0.6433  0.0501
 1129TIP3    H1 3393   3.744   3.975   1.633  0.4273  1.2221 -0.8449
 1129TIP3    H2 3394   3.758   3.844   1.707 -1.7456  1.2147 -0.3621
 1130TIP3   OH2 3395   2.731   0.240   0.617 -0.3216  0.1900  0.1431
 1130TIP3    H1 3396   2.798   0.179   0.584  0.2075  1.3842 -1.0750
 1130TIP3    H2 3397   2.725   0.221   0.711  2.2497  0.5070  0.4422
 1131TIP3   OH2 3398   0.056   4.867   2.588  0.3456  0.6885 -0.2048
 1131TIP3    H1 3399   0.005   4.912   2.520 -2.9373 -0.1021  1.5382
 1131TIP3    H2 3400   0.125   4.822   2.539 -0.6276  1.7487 -2.7678
 1132TIP3   OH2 3401   4.334   3.665   0.649  0.5025 -0.7643 -0.2237
 1132TIP3    H1 3402   4.362   3.669   0.741 -0.8080 -1.7332  0.2460
 1132TIP3    H2 3403   4.297   3.577   0.639 -1.8806  0.2631 -0.9218
 1133TIP3   OH2 3404   2.710   0.272   2.675 -0.3961 -0.1574  0.1975
 1133TIP3    H1 3405   2.640   0.233   2.728 -1.3201  1.4510  0.2198
 1133TIP3    H2 3406   2.720   0.361   2.710  1.3700 -0.2092 -0.0942
 1134TIP3   OH2 3407   5.839   1.354   0.359  0.2329  0.3282  0.3539
 1134TIP3    H1 3408   5.897   1.427   0.378  2.6882 -0.6872 -2.4523
 1134TIP3    H2 3409   5.897   1.278   0.353 -1.9226 -1.4741  1.0315
 1135TIP3   OH2 3410   5.965   4.756   0.593  0.0005 -0.2569 -0.1082
 1135TIP3    H1 3411   5.897   4.690   0.611 -0.6400  0.5059  0.3206
 1135TIP3    H2 3412   6.029   4.744   0.662  1.0153 -1.8634 -1.2452
 1136TIP3   OH2 3413   1.923   1.868   1.617  0.9474 -0.4000  0.1265
 1136TIP3    H1 3414   1.991   1.811   1.650  0.6731 -0.3306  0.8300
 1136TIP3    H2 3415   1.912   1.935   1.684 -2.3251 -2.4016  1.8778
 1137TIP3   OH2 3416   0.520   3.907   0.418  0.1730 -0.0631 -0.5246
 1137TIP3    H1 3417   0.513   3.920   0.324 -3.6005 -0.3838 -0.4621
 1137TIP3    H2 3418   0.529   3.812   0.429  2.0352  0.0878 -0.5372
 1138TIP3   OH2 3419   0.442   1.720   0.275  0.5021  0.0979  0.5202
 1138TIP3    H1 3420   0.439   1.792   0.337  0.0838 -1.3437  2.2819
 1138TIP3    H2 3421   0.353   1.712   0.241  0.3530 -0.0963  0.9542
 1139TIP3   OH2 3422   2.729   1.535   2.167 -0.1372  0.0101 -0.0966
 1139TIP3    H1 3423   2.638   1.516   2.193 -0.2375  1.3794  0.6565
 1139TIP3    H2 3424   2.782   1.486   2.229 -0.3600 -0.6259 -0.4023
 1140TIP3   OH2 3425   1.287   1.618   2.531  0.3472  0.5539 -0.2814
 1140TIP3    H1 3426   1.311   1.691   2.587 -1.4876 -0.1384  1.5532
 1140TIP3    H2 3427   1.321   1.541   2.577  0.3447  0.0964 -1.0334
 1141TIP3   OH2 3428   0.379   2.865   2.639 -0.3865  0.3557 -0.0416
 1141TIP3    H1 3429   0.442   2.849   2.709  1.4073  1.1138 -1.3997
 1141TIP3    H2 3430   0.298   2.824   2.669  0.9673 -1.3944  1.4142
 1142TIP3   OH2 3431   1.378   3.782   4.271 -0.1035 -0.1176 -0.3644
 1142TIP3    H1 3432   1.458   3.740   4.303  0.0317  0.6867  0.3944
 1142TIP3    H2 3433   1.308   3.743   4.323 -0.0494  0.1072 -0.1167
 1143TIP3   OH2 3434   2.095   5.296   4.870 -0.0193 -0.2234 -0.0728
 1143TIP3    H1 3435   2.022   5.302   4.808 -0.3646  0.5944  0.4085
 1143TIP3    H2 3436   2.089   5.208   4.905 -0.1729 -0.5004 -0.7663
 1144TIP3   OH2 3437   5.798   5.630   1.653 -0.1501  0.0860  0.8766
 1144TIP3    H1 3438   5.845   5.578   1.718  1.3716  0.8716  0.4567
 1144TIP3    H2 3439   5.719   5.580   1.634  1.5268 -2.4018  0.0407
 1145TIP3   OH2 3440   2.392   3.511   1.368  0.4086  0.2962 -0.0057
 1145TIP3    H1 3441   2.432   3.596   1.382  1.2482 -0.2260  0.8912
 1145TIP3    H2 3442   2.448   3.468   1.304  0.2626  0.2287 -0.0903
 1146TIP3   OH2 3443   5.218   0.294   4.493  0.3116 -0.4804 -0.2143
 1146TIP3    H1 3444   5.180   0.359   4.552  2.1377  1.7278 -1.2898
 1146TIP3    H2 3445   5.165   0.302   4.413 -2.4227 -3.7532  1.0560
 1147TIP3   OH2 3446   2.718   0.168   4.063 -0.1748 -0.2655  0.4143
 1147TIP3    H1 3447   2.696   0.076   4.081  0.1328 -0.8745 -1.9945
 1147TIP3    H2 3448   2.801   0.182   4.109  0.5853 -1.7028 -0.4554
 1148TIP3   OH2 3449   5.245   5.798   3.492  0.2345  0.0948 -0.5914
 1148TIP3    H1 3450   5.215   5.795   3.402 -1.2502 -0.2901 -0.1074
 1148TIP3    H2 3451   5.206   5.878   3.528 -0.8004 -0.7478  0.2265
 1149TIP3   OH2 3452   4.747   0.628   2.621  0.2447 -0.3395  0.8397
 1149TIP3    H1 3453   4.654   0.635   2.642 -0.1342 -2.7691  0.3422
 1149TIP3    H2 3454   4.790   0.617   2.706 -0.2436 -1.5473  0.9568
 1150TIP3   OH2 3455   6.170   5.821   3.672  0.3437 -0.5551  0.5684
 1150TIP3    H1 3456   6.088   5.843   3.716 -0.5121  0.2744 -1.3153
 1150TIP3    H2 3457   6.164   5.727   3.656 -0.3710 -0.4597  0.2221
 1151TIP3   OH2 3458   0.158   4.768   4.712 -0.3290  0.3224  0.3064
 1151TIP3    H1 3459   0.161   4.691   4.770  2.4520  0.4273  0.4441
 1151TIP3    H2 3460   0.079   4.815   4.739 -1.2880 -1.6830  1.2467
 1152TIP3   OH2 3461   2.386   5.156   0.953 -0.1564  0.1951  0.0170
 1152TIP3    H1 3462   2.352   5.208   0.881  0.3876  0.4717 -0.0453
 1152TIP3    H2 3463   2.316   5.094   0.974 -1.3200  1.7401  0.9055
 1153TIP3   OH2 3464   3.680   0.311   2.839 -0.0654  0.2728  0.3124
 1153TIP3    H1 3465   3.722   0.380   2.789  0.3993 -0.1421  0.1238
 1153TIP3    H2 3466   3.587   0.336   2.841 -0.5469 -0.7896 -2.6763
 1154TIP3   OH2 3467   1.418   3.608   3.039  0.2599 -0.7123 -0.3117
 1154TIP3    H1 3468   1.440   3.636   2.950  0.8114  0.8181  0.2790
 1154TIP3    H2 3469   1.503   3.591   3.081 -0.0210 -2.0631 -0.2580
 1155TIP3   OH2 3470   2.596   0.375   3.097 -0.1294  0.1155  0.1536
 1155TIP3    H1 3471   2.656   0.334   3.159  0.3957 -1.1344 -1.1231
 1155TIP3    H2 3472   2.513   0.383   3.144  0.9925  1.9837  1.9986
 1156TIP3   OH2 3473   1.571   1.427   0.108 -0.5625  0.0331 -0.8496
 1156TIP3    H1 3474   1.614   1.402   0.026 -2.1311 -0.5361 -1.5454
 1156TIP3    H2 3475   1.480   1.399   0.097 -0.6193 -0.9415  1.4733
 1157TIP3   OH2 3476   6.281   3.652   1.552  0.0749 -0.3154  0.7204
 1157TIP3    H1 3477   6.237   3.736   1.565 -0.1256 -0.4253  0.7578
 1157TIP3    H2 3478   6.264   3.631   1.460 -0.5317 -0.6877  0.9159
 1158TIP3   OH2 3479   1.746   4.362   5.025 -0.5874 -0.1003  0.2576
 1158TIP3    H1 3480   1.792   4.422   4.967  0.4740 -0.2739  0.8876
 1158TIP3    H2 3481   1.760   4.275   4.986 -1.4734 -0.0337 -0.2358
 1159TIP3   OH2 3482   1.669   3.942   1.180  0.1895  0.1801  0.3408
 1159TIP3    H1 3483   1.723   3.922   1.103 -0.8823 -2.4343  0.1475
 1159TIP3    H2 3484   1.686   4.034   1.198  0.8922  0.7647 -2.7078
 1160TIP3   OH2 3485   2.450   4.680   2.158 -0.2315 -0.1131 -0.7508
 1160TIP3    H1 3486   2.512   4.628   2.208  2.3342  3.3231  0.0028
 1160TIP3    H2 3487   2.385   4.707   2.223  0.1933  0.1650 -0.4372
 1161TIP3   OH2 3488   4.063   4.507   2.778  0.2653  0.1407 -0.3322
 1161TIP3    H1 3489   3.980   4.547   2.801  0.7004  0.3563  0.9409
 1161TIP3    H2 3490   4.067   4.513   2.682 -1.6525 -0.8837 -0.5141
 1162TIP3   OH2 3491   2.554   1.148   4.614  0.1377 -0.2938  0.4057
 1162TIP3    H1 3492   2.620   1.123   4.550 -1.0446 -0.3399 -0.8358
 1162TIP3    H2 3493   2.494   1.205   4.566  0.8023  2.1211  2.2360
 1163TIP3   OH2 3494   0.783   5.570   4.319  0.3451  0.1607 -0.5715
 1163TIP3    H1 3495   0.875   5.593   4.313  0.6523 -0.8285  0.1228
 1163TIP3    H2 3496   0.742   5.648   4.357  1.2127 -0.0692  0.9049
 1164TIP3   OH2 3497   3.548   4.110   0.068  0.1033  0.5174  0.7421
 1164TIP3    H1 3498   3.501   4.056   0.132  1.7998 -1.1253  0.6988
 1164TIP3    H2 3499   3.547   4.198   0.105 -2.1431  0.3734  1.1754
 1165TIP3   OH2 3500   3.175   0.675   1.044 -0.3120 -0.0925  0.0992
 1165TIP3    H1 3501   3.123   0.595   1.052 -0.8150  0.3295  1.2999
 1165TIP3    H2 3502   3.131   0.725   0.975  1.1528 -1.6537 -2.0854
 1166TIP3   OH2 3503   5.766   3.221   2.219 -0.4270  0.4028 -0.0245
 1166TIP3    H1 3504   5.767   3.143   2.275 -0.5634 -0.2720 -0.9303
 1166TIP3    H2 3505   5.808   3.289   2.271  0.5466 -0.5301  0.4484
 1167TIP3   OH2 3506   3.491   2.675   2.837  0.6468  0.2829  0.3105
 1167TIP3    H1 3507   3.514   2.582   2.830  1.1020  0.2917  1.4551
 1167TIP3    H2 3508   3.574   2.720   2.850  0.3197  0.7043  1.0095
 1168TIP3   OH2 3509   0.354   2.693   3.847 -0.3295  0.2824  0.6186
 1168TIP3    H1 3510   0.449   2.685   3.844 -0.3385 -0.0964  1.2801
 1168TIP3    H2 3511   0.336   2.781   3.815  0.1276 -0.2310 -1.1897
 1169TIP3   OH2 3512   3.917   4.749   2.677  0.5730 -0.2804  0.0141
 1169TIP3    H1 3513   4.012   4.752   2.660  0.1522 -0.6917 -3.0638
 1169TIP3    H2 3514   3.887   4.670   2.632 -1.6734  1.6587 -2.1938
 1170TIP3   OH2 3515   2.072   1.976   5.078  0.5703  0.1761 -0.5073
 1170TIP3    H1 3516   2.161   1.989   5.112  0.8426 -0.6622 -0.8688
 1170TIP3    H2 3517   2.015   1.997   5.151  1.1253 -1.3548  0.4052
 1171TIP3   OH2 3518   1.567   4.928   2.313 -0.0409  0.3257  0.4034
 1171TIP3    H1 3519   1.617   4.862   2.264  1.1479  1.6456 -0.2290
 1171TIP3    H2 3520   1.516   4.877   2.376  1.6468 -1.1251  0.6711
 1172TIP3   OH2 3521   1.265   0.554   3.241  0.0920  0.3717 -0.1823
 1172TIP3    H1 3522   1.357   0.551   3.214  0.0811  2.0205 -0.4943
 1172TIP3    H2 3523   1.253   0.476   3.295  2.1773  1.0520  1.4053
 1173TIP3   OH2 3524   3.792   0.489   5.107 -0.0491  0.2393 -0.3985
 1173TIP3    H1 3525   3.704   0.528   5.102  0.4218  1.4468  0.3438
 1173TIP3    H2 3526   3.793   0.445   5.192 -0.4811 -1.2061 -1.1148
 1174TIP3   OH2 3527   4.705   3.298   0.998 -0.9111 -0.7032  0.3386
 1174TIP3    H1 3528   4.681   3.215   0.958  2.0214 -1.0018 -1.0636
 1174TIP3    H2 3529   4.772   3.275   1.064  1.4572  0.5809 -1.4537
 1175TIP3   OH2 3530   4.252   3.954   2.480 -0.5699  0.1091  0.3656
 1175TIP3    H1 3531   4.306   3.950   2.401  0.7197 -0.6948  1.2747
 1175TIP3    H2 3532   4.186   3.886   2.467 -2.0065  1.6826 -1.1520
 1176TIP3   OH2 3533   5.883   5.363   1.442  1.0295  0.6946 -0.4786
 1176TIP3    H1 3534   5.909   5.407   1.361  1.4670  0.0618 -0.6891
 1176TIP3    H2 3535   5.816   5.301   1.414  0.7220  0.9191 -0.2483
 1177TIP3   OH2 3536   5.069   4.353   0.266  0.1017 -0.0903  0.0369
 1177TIP3    H1 3537   5.055   4.400   0.348  0.6614 -2.6804  1.7431
 1177TIP3    H2 3538   4.981   4.328   0.238 -0.0585  0.3714  0.1270
 1178TIP3   OH2 3539   2.397   1.633   0.441  0.2029  0.1146  0.7142
 1178TIP3    H1 3540   2.456   1.567   0.405  1.6161  2.1679 -0.9452
 1178TIP3    H2 3541   2.452   1.688   0.496 -0.5093  1.0466  0.5314
 1179TIP3   OH2 3542   5.643   5.693   1.296 -0.5262  0.5991 -0.2675
 1179TIP3    H1 3543   5.594   5.719   1.219 -1.8456  1.7810  0.9052
 1179TIP3    H2 3544   5.601   5.613   1.326 -0.0848  0.2022 -0.6894
 1180TIP3   OH2 3545   5.786   2.298   3.487  0.1578 -0.1889  0.3722
 1180TIP3    H1 3546   5.860   2.349   3.457 -0.2909  0.7425  0.8240
 1180TIP3    H2 3547   5.724   2.362   3.523 -0.5644 -1.0036  0.6391
 1181TIP3   OH2 3548   5.610   3.247   1.154 -0.1277  0.1019  0.2321
 1181TIP3    H1 3549   5.674   3.316   1.137 -0.1701 -0.4535 -2.7917
 1181TIP3    H2 3550   5.631   3.179   1.089 -1.5445 -1.7124  1.5710
 1182TIP3   OH2 3551   2.060   3.960   1.166  0.1609 -0.1985  0.1026
 1182TIP3    H1 3552   2.123   4.016   1.120  0.3597 -0.6925 -0.2371
 1182TIP3    H2 3553   1.994   3.938   1.100  1.4319 -2.4491 -0.5379
 1183TIP3   OH2 3554   3.536   4.939   1.082  0.2978 -0.1798 -0.2229
 1183TIP3    H1 3555   3.502   4.985   1.158 -2.3239  0.9964 -1.9595
 1183TIP3    H2 3556   3.481   4.862   1.073  0.1613  0.0115 -1.2366
 1184TIP3   OH2 3557   2.831   3.385   1.094 -0.1437  0.1511  0.7905
 1184TIP3    H1 3558   2.904   3.386   1.156 -0.7213  0.2783  1.4820
 1184TIP3    H2 3559   2.825   3.293   1.067  1.6970  0.4925 -1.0283
 1185TIP3   OH2 3560   0.025   4.567   4.401 -0.1064 -0.2848  0.0718
 1185TIP3    H1 3561   0.095   4.503   4.402 -0.9276 -1.2076 -0.0522
 1185TIP3    H2 3562  -0.049   4.522   4.359 -0.8385  0.5788  0.3887
 1186TIP3   OH2 3563   3.181   2.567   1.594 -0.1502 -0.0434  0.5564
 1186TIP3    H1 3564   3.273   2.589   1.578 -0.0763 -0.6371  0.1506
 1186TIP3    H2 3565   3.148   2.536   1.509 -1.0043  1.1109  0.4309
 1187TIP3   OH2 3566   4.567   1.257   4.078 -0.7482  0.0051 -0.5344
 1187TIP3    H1 3567   4.483   1.211   4.085  0.2270 -1.6521  1.3692
 1187TIP3    H2 3568   4.631   1.187   4.061  0.5798  0.8176  0.8756
 1188TIP3   OH2 3569   1.012   5.450   0.044  0.3094 -0.5865 -0.2228
 1188TIP3    H1 3570   1.042   5.444   0.135  0.5025 -3.3097 -0.3792
 1188TIP3    H2 3571   0.925   5.411   0.045  0.1142 -0.1873 -1.1430
 1189TIP3   OH2 3572   2.672   2.857   3.307 -0.0715  0.5513  0.0873
 1189TIP3    H1 3573   2.706   2.902   3.230 -0.1672  0.7224  0.1440
 1189TIP3    H2 3574   2.590   2.816   3.277  1.2011 -1.6551 -0.6316
 1190TIP3   OH2 3575   4.518   5.933   2.313 -0.4239 -0.4690  0.2924
 1190TIP3    H1 3576   4.424   5.934   2.329 -0.2637  2.7772  1.8016
 1190TIP3    H2 3577   4.527   5.957   2.221 -1.1751  4.0080  1.1779
 1191TIP3   OH2 3578   6.278   3.178   0.296 -0.2292 -0.1955  0.9454
 1191TIP3    H1 3579   6.258   3.109   0.232 -0.6681 -0.5469  1.4536
 1191TIP3    H2 3580   6.299   3.255   0.242 -0.2423 -0.5841  0.3782
 1192TIP3   OH2 3581   0.827   5.096   0.259  0.1005 -0.4443 -1.1195
 1192TIP3    H1 3582   0.819   5.116   0.166  0.7192  0.9912 -0.8835
 1192TIP3    H2 3583   0.753   5.142   0.300  0.2732 -0.4340 -0.8128
 1193TIP3   OH2 3584   6.046   5.868   4.746  0.0628 -0.3120 -0.3887
 1193TIP3    H1 3585   6.002   5.828   4.821  0.1847 -2.3275 -1.3215
 1193TIP3    H2 3586   6.064   5.958   4.773 -1.7998 -0.3555  1.1877
 1194TIP3   OH2 3587   4.898   0.241   4.977 -0.7520  0.1343 -0.2862
 1194TIP3    H1 3588   4.979   0.190   4.972  0.3254  1.6315  0.6157
 1194TIP3    H2 3589   4.875   0.259   4.886  0.4661  0.4138 -0.5637
 1195TIP3   OH2 3590   2.522   2.983   0.848  0.0833 -0.4779  0.1664
 1195TIP3    H1 3591   2.555   2.921   0.914  3.6593  1.8446  0.8255
 1195TIP3    H2 3592   2.480   2.928   0.782  1.4193 -3.4104  1.5872
 1196TIP3   OH2 3593   4.213   3.796   4.111 -0.3027 -0.0925 -0.2227
 1196TIP3    H1 3594   4.151   3.764   4.176  0.0879 -0.8190 -0.1936
 1196TIP3    H2 3595   4.275   3.724   4.100  0.2902  0.4595 -0.5585
 1197TIP3   OH2 3596   1.824   4.837   4.974 -0.4883 -0.0158  0.2051
 1197TIP3    H1 3597   1.799   4.830   5.066 -1.0902 -0.5042  0.0175
 1197TIP3    H2 3598   1.742   4.857   4.928 -0.6416 -1.8793 -0.4543
 1198TIP3   OH2 3599   6.212   5.393   0.438 -0.2504 -1.1346  0.0810
 1198TIP3    H1 3600   6.213   5.344   0.356 -1.7180 -0.4852 -0.3569
 1198TIP3    H2 3601   6.120   5.415   0.452  0.0525 -0.7093  1.5923
 1199TIP3   OH2 3602   2.346   0.499   0.934 -0.4604  0.4003 -0.5340
 1199TIP3    H1 3603   2.275   0.492   0.870 -0.2650  1.6212 -0.9165
 1199TIP3    H2 3604   2.394   0.578   0.907 -0.4790  1.0488  1.2056
 1200TIP3   OH2 3605   3.714   5.133   0.225 -0.0590  0.7732  0.4567
 1200TIP3    H1 3606   3.774   5.195   0.184 -0.3549  1.1238  0.5520
 1200TIP3    H2 3607   3.763   5.050   0.228 -0.1087  0.6807 -0.8023
 1201TIP3   OH2 3608   1.849   1.576   0.063  0.5664  0.0280 -0.0346
 1201TIP3    H1 3609   1.827   1.483   0.075  2.5986 -0.5531 -0.4610
 1201TIP3    H2 3610   1.830   1.617   0.147  1.1038 -1.0930  0.6472
 1202TIP3   OH2 3611   5.972   4.162   1.248 -0.3502  0.2549 -0.6346
 1202TIP3    H1 3612   5.948   4.110   1.325 -1.0984 -2.1077 -2.3713
 1202TIP3    H2 3613   5.890   4.199   1.217 -0.2399  0.1700 -1.0267
 1203TIP3   OH2 3614   4.041   4.652   0.242  0.2365  0.6955 -0.0493
 1203TIP3    H1 3615   4.093   4.669   0.163  0.1563  1.3955  0.0464
 1203TIP3    H2 3616   4.091   4.587   0.290  1.2174  1.6341  0.2291
 1204TIP3   OH2 3617   1.532   3.782   3.375  0.3601 -0.0117 -0.1428
 1204TIP3    H1 3618   1.487   3.831   3.444  0.8152  0.9047 -0.4853
 1204TIP3    H2 3619   1.497   3.818   3.293  2.1984  1.2648 -0.4405
 1205TIP3   OH2 3620   0.245   0.665   3.134  0.8826 -0.0009  0.3236
 1205TIP3    H1 3621   0.319   0.608   3.119  0.2013 -0.5284 -1.2057
 1205TIP3    H2 3622   0.261   0.741   3.078  0.5996  0.1990  0.5096
 1206TIP3   OH2 3623   4.297   0.253   0.597  0.2967  0.0514 -0.4779
 1206TIP3    H1 3624   4.320   0.308   0.523 -0.0260 -0.7568 -1.1906
 1206TIP3    H2 3625   4.306   0.164   0.565  0.4817 -0.3189  0.5559
 1207TIP3   OH2 3626   3.546   3.468   2.153  0.3435  0.1032  0.2834
 1207TIP3    H1 3627   3.491   3.542   2.177  3.0656  1.8690  1.5246
 1207TIP3    H2 3628   3.557   3.475   2.058  1.2892  1.8948  0.4843
 1208TIP3   OH2 3629   4.890   3.991   5.079  0.1242  0.3397 -0.2998
 1208TIP3    H1 3630   4.944   3.958   5.008  2.3218  1.4321  0.7803
 1208TIP3    H2 3631   4.887   3.919   5.143 -1.0940 -0.3039 -1.0415
 1209TIP3   OH2 3632   3.178   4.935   0.585 -0.0170  0.4599 -0.3013
 1209TIP3    H1 3633   3.159   4.985   0.664  1.0711 -0.9065  0.8742
 1209TIP3    H2 3634   3.176   4.843   0.613  0.8421 -0.0376 -1.7491
 1210TIP3   OH2 3635   2.671   1.346   3.544  0.0491  0.2373  0.6284
 1210TIP3    H1 3636   2.694   1.254   3.552  0.5795  0.4678  2.1616
 1210TIP3    H2 3637   2.706   1.372   3.459 -0.8206 -1.1518 -0.1830
 1211TIP3   OH2 3638   6.129   0.653   0.322  0.1541 -0.1880 -0.5476
 1211TIP3    H1 3639   6.139   0.652   0.417  1.3367 -0.8044 -0.6650
 1211TIP3    H2 3640   6.072   0.728   0.305  0.7979  0.5716  0.5560
 1212TIP3   OH2 3641   3.113   1.031   2.724  0.1235 -0.4031  0.0867
 1212TIP3    H1 3642   3.208   1.023   2.730  0.0423 -1.4250  0.1051
 1212TIP3    H2 3643   3.087   0.965   2.660 -0.6358 -0.6015  0.5787
 1213TIP3   OH2 3644   6.005   3.560   2.577  0.1691  0.1202  0.4268
 1213TIP3    H1 3645   6.029   3.648   2.604  0.5997 -0.0893  0.7549
 1213TIP3    H2 3646   6.088   3.512   2.577 -0.2418 -0.6446  1.6546
 1214TIP3   OH2 3647   2.658   5.660   1.977 -0.4392 -0.1391  0.3352
 1214TIP3    H1 3648   2.606   5.736   1.952 -0.8571 -0.2756  0.7633
 1214TIP3    H2 3649   2.645   5.653   2.072  0.6679  0.0488  0.5155
 1215TIP3   OH2 3650   4.074   4.546   4.974  0.3735  0.1678  0.2269
 1215TIP3    H1 3651   3.998   4.502   4.938  0.5441  0.3157 -0.3156
 1215TIP3    H2 3652   4.076   4.518   5.066 -0.3022  0.1263  0.2348
 1216TIP3   OH2 3653   2.011   1.949   2.117  0.3777 -0.0068 -0.2812
 1216TIP3    H1 3654   2.092   1.945   2.167 -0.5217 -0.2874  1.2071
 1216TIP3    H2 3655   2.013   2.035   2.075  1.7053 -0.2462 -0.7591
 1217TIP3   OH2 3656   0.010   1.527   2.474  0.9808 -0.3002 -0.1578
 1217TIP3    H1 3657   0.062   1.497   2.548  0.2980 -0.7743  0.1458
 1217TIP3    H2 3658   0.004   1.451   2.416 -2.1105 -1.4120  1.3758
 1218TIP3   OH2 3659   2.712   2.346   2.294  0.1690  0.6954 -0.0735
 1218TIP3    H1 3660   2.797   2.378   2.324 -0.1651 -0.5582  2.5391
 1218TIP3    H2 3661   2.658   2.425   2.287  1.0925  1.3325 -0.1634
 1219TIP3   OH2 3662   6.254   2.697   2.735 -0.1637  0.3508 -0.1628
 1219TIP3    H1 3663   6.311   2.678   2.660 -0.9691  1.0082 -0.9560
 1219TIP3    H2 3664   6.190   2.625   2.735 -0.1097  0.3027 -0.0468
 1220TIP3   OH2 3665   1.701   1.582   2.317  0.1139 -0.0112 -0.5983
 1220TIP3    H1 3666   1.736   1.662   2.277  0.8889  0.4338  0.8670
 1220TIP3    H2 3667   1.643   1.545   2.251 -1.1879  2.3891 -0.9189
 1221TIP3   OH2 3668   1.901   1.964   0.650  0.0675 -0.1706 -0.4799
 1221TIP3    H1 3669   1.828   1.903   0.659  0.4944 -0.7490 -0.8584
 1221TIP3    H2 3670   1.967   1.915   0.600 -0.3867  1.2799 -2.6228
 1222TIP3   OH2 3671   0.057   0.799   1.928  0.0785 -0.0629 -0.8253
 1222TIP3    H1 3672   0.054   0.765   2.017 -0.8129  1.6318 -0.1496
 1222TIP3    H2 3673  -0.034   0.818   1.906  0.3038 -0.2960 -2.0479
 1223TIP3   OH2 3674   3.301   4.886   4.344  0.1692 -0.2068  0.1742
 1223TIP3    H1 3675   3.234   4.829   4.306  0.7439 -0.5944 -0.2870
 1223TIP3    H2 3676   3.253   4.944   4.403 -0.3876 -1.4296  0.9742
 1224TIP3   OH2 3677   1.635   3.470   4.601  0.5968  0.3890  0.3045
 1224TIP3    H1 3678   1.629   3.378   4.627 -0.9665  0.2844 -0.3294
 1224TIP3    H2 3679   1.611   3.519   4.680 -0.2857  0.1858  0.1733
 1225TIP3   OH2 3680   3.662   3.299   3.681  0.2709  0.5818 -0.6083
 1225TIP3    H1 3681   3.605   3.367   3.718  0.9746  0.6872  0.2967
 1225TIP3    H2 3682   3.605   3.252   3.620 -1.0969  0.0647  0.9857
 1226TIP3   OH2 3683   5.952   5.946   0.248  0.4316  0.8840 -0.1836
 1226TIP3    H1 3684   5.984   5.924   0.336  0.4645 -0.5566 -0.5293
 1226TIP3    H2 3685   6.032   5.956   0.195  0.4028  1.4139 -0.1312
 1227TIP3   OH2 3686   1.248   3.493   3.855 -0.4368  0.4782  0.5736
 1227TIP3    H1 3687   1.274   3.507   3.764 -0.8470  0.0154  0.3832
 1227TIP3    H2 3688   1.163   3.450   3.850 -0.4978  0.5161  1.1771
 1228TIP3   OH2 3689   4.255   2.397   2.290  0.1394 -0.0739  0.3342
 1228TIP3    H1 3690   4.183   2.353   2.335 -1.2287  0.6980 -1.0078
 1228TIP3    H2 3691   4.316   2.326   2.270 -0.5843 -0.8780  0.8597
 1229TIP3   OH2 3692   1.717   3.367   1.138 -0.1411  0.1714 -0.2414
 1229TIP3    H1 3693   1.728   3.461   1.130  2.3316 -0.1090 -0.7702
 1229TIP3    H2 3694   1.623   3.352   1.123 -0.6622  2.5544  0.3217
 1230TIP3   OH2 3695   5.805   4.230   3.939 -0.6186  0.8417 -0.2050
 1230TIP3    H1 3696   5.740   4.165   3.967 -0.0941 -0.0307 -0.9457
 1230TIP3    H2 3697   5.754   4.301   3.901 -1.1393 -0.0728 -1.2768
 1231TIP3   OH2 3698   0.176   5.575   3.056  0.1870 -0.1261 -0.1471
 1231TIP3    H1 3699   0.228   5.496   3.045 -1.2491 -1.0393 -0.6463
 1231TIP3    H2 3700   0.100   5.547   3.106  0.4440  1.3117  1.1128
 1232TIP3   OH2 3701   4.315   2.737   3.691  0.5353  0.1284  0.6034
 1232TIP3    H1 3702   4.242   2.764   3.636  1.0519 -1.2383 -0.8299
 1232TIP3    H2 3703   4.291   2.767   3.779 -1.4971  0.1681  0.0900
 1233TIP3   OH2 3704   4.399   1.695   4.070  0.3978  0.0476 -0.1635
 1233TIP3    H1 3705   4.315   1.742   4.067  0.2694 -0.2021 -2.8850
 1233TIP3    H2 3706   4.375   1.603   4.071  0.6815 -0.0431  1.4923
 1234TIP3   OH2 3707   2.474   3.295   1.721 -0.0215 -0.1723 -0.0883
 1234TIP3    H1 3708   2.380   3.287   1.736 -0.3349  0.1054 -1.7065
 1234TIP3    H2 3709   2.514   3.234   1.783 -1.0510  1.7060  2.6290
 1235TIP3   OH2 3710   0.397   1.910   1.216  0.4062 -0.3746  0.0965
 1235TIP3    H1 3711   0.407   1.923   1.311 -0.2253  0.4114  0.0701
 1235TIP3    H2 3712   0.461   1.843   1.194  0.6681 -0.4568  1.0597
 1236TIP3   OH2 3713   4.647   4.491   4.026 -0.3456  0.4177 -0.6519
 1236TIP3    H1 3714   4.614   4.482   3.936  1.2552 -0.3523 -1.2088
 1236TIP3    H2 3715   4.718   4.427   4.032 -0.7679  0.0831  1.3571
 1237TIP3   OH2 3716   6.199   3.908   1.429 -0.1371 -0.1707  0.2933
 1237TIP3    H1 3717   6.147   3.832   1.402 -0.4619  0.2111 -0.1580
 1237TIP3    H2 3718   6.136   3.969   1.466 -0.2306  0.8103 -1.3569
 1238TIP3   OH2 3719   0.082   0.695   0.057 -0.8749  0.0118  0.0815
 1238TIP3    H1 3720   0.072   0.768   0.117  0.7170 -0.4712  1.0114
 1238TIP3    H2 3721   0.008   0.637   0.076 -1.5553  0.8559  0.0660
 1239TIP3   OH2 3722   3.393   1.399   2.199 -0.4439 -0.4702  0.5750
 1239TIP3    H1 3723   3.370   1.321   2.149 -0.5550 -0.7253  1.0301
 1239TIP3    H2 3724   3.345   1.470   2.155 -0.4728 -0.6792  0.2664
 1240TIP3   OH2 3725   1.772   1.125   4.437  0.3568 -0.5453 -0.9039
 1240TIP3    H1 3726   1.730   1.061   4.494  1.5603 -0.4384  0.1507
 1240TIP3    H2 3727   1.710   1.138   4.364 -0.1960 -2.3788 -0.7932
 1241TIP3   OH2 3728   3.510   0.270   0.905  0.7052 -0.2232 -0.0233
 1241TIP3    H1 3729   3.508   0.292   0.811  1.0571 -0.3474 -0.0609
 1241TIP3    H2 3730   3.442   0.204   0.916 -0.7481  1.2341  0.1815
 1242TIP3   OH2 3731   1.052   1.912   0.483  0.1611 -0.0351  0.1709
 1242TIP3    H1 3732   0.968   1.869   0.465 -0.0395  0.3391  0.2036
 1242TIP3    H2 3733   1.117   1.855   0.443 -0.1650  0.0587 -0.5051
 1243TIP3   OH2 3734   4.111   0.323   2.789  0.2400  0.4901  0.1864
 1243TIP3    H1 3735   4.166   0.401   2.794 -0.1222  0.6891  1.5647
 1243TIP3    H2 3736   4.051   0.340   2.717  1.1691  0.7972 -0.5351
 1244TIP3   OH2 3737   5.343   5.799   1.550  0.0227 -0.0927  0.0130
 1244TIP3    H1 3738   5.288   5.839   1.483  0.0706  0.6482  0.4081
 1244TIP3    H2 3739   5.420   5.766   1.502  0.4732  1.2150 -0.1874
 1245TIP3   OH2 3740   2.455   5.946   1.194 -0.3575 -0.0694 -0.0771
 1245TIP3    H1 3741   2.476   5.876   1.257  1.8104  0.8756  0.3083
 1245TIP3    H2 3742   2.399   6.005   1.244  1.1889  0.5739  0.9739
 1246TIP3   OH2 3743   5.112   0.640   1.196 -0.3995  0.2475  0.0644
 1246TIP3    H1 3744   5.157   0.672   1.275 -0.2489  0.7832 -0.2351
 1246TIP3    H2 3745   5.171   0.574   1.161  1.3210  2.4642 -1.5692
 1247TIP3   OH2 3746   5.276   4.648   1.104 -0.0121 -0.1628  0.3067
 1247TIP3    H1 3747   5.339   4.576   1.100  0.3516  0.1208  0.8259
 1247TIP3    H2 3748   5.326   4.725   1.076 -0.2063  0.0085  0.4299
 1248TIP3   OH2 3749   1.343   2.509   3.267  0.1362 -0.0026  0.3646
 1248TIP3    H1 3750   1.247   2.515   3.269  0.1479  0.2886  0.1926
 1248TIP3    H2 3751   1.360   2.427   3.221 -0.0316  0.0099  0.2771
 1249TIP3   OH2 3752   0.630   4.089   1.126 -0.0173  0.1574  0.0661
 1249TIP3    H1 3753   0.576   4.064   1.201  1.8665 -1.0334  1.1151
 1249TIP3    H2 3754   0.633   4.011   1.072  0.8373  0.1254  0.1497
 1250TIP3   OH2 3755   1.206   0.325   1.542 -0.4309  0.0698  0.1364
 1250TIP3    H1 3756   1.126   0.278   1.564 -1.7982  1.8852 -0.7358
 1250TIP3    H2 3757   1.253   0.266   1.483 -0.5559 -1.4676  1.5099
 1251TIP3   OH2 3758   1.443   2.641   4.351 -0.2871  0.2498  0.1124
 1251TIP3    H1 3759   1.524   2.664   4.395 -0.0793 -0.6383  0.2167
 1251TIP3    H2 3760   1.440   2.546   4.355 -0.0501  0.0889 -2.1211
 1252TIP3   OH2 3761   5.727   5.080   1.079 -0.1092  0.1735 -0.6109
 1252TIP3    H1 3762   5.770   5.013   1.133  1.6409  0.3757 -1.6560
 1252TIP3    H2 3763   5.650   5.037   1.043 -0.5878 -0.3665  0.9552
 1253TIP3   OH2 3764   0.320   5.174   1.773 -0.2719  0.4321  1.3065
 1253TIP3    H1 3765   0.342   5.261   1.807  1.2150  0.4910  0.2844
 1253TIP3    H2 3766   0.404   5.131   1.760 -0.8192 -0.1297 -0.8308
 1254TIP3   OH2 3767   4.907   4.217   1.625 -0.3552  0.0060  0.1145
 1254TIP3    H1 3768   4.931   4.138   1.674 -1.0734 -0.5545 -0.4085
 1254TIP3    H2 3769   4.983   4.235   1.571 -0.4980 -0.8466 -0.3959
 1255TIP3   OH2 3770   0.800   0.669   0.221 -0.4441 -0.2547  0.4263
 1255TIP3    H1 3771   0.718   0.631   0.253 -1.0874  0.1460 -0.6696
 1255TIP3    H2 3772   0.868   0.630   0.276 -1.2496 -1.5980  0.5152
 1256TIP3   OH2 3773   2.311   1.497   2.478  0.4209 -0.4157  0.0139
 1256TIP3    H1 3774   2.351   1.576   2.441  0.5343  0.1122  1.2440
 1256TIP3    H2 3775   2.245   1.529   2.538 -0.1553 -1.2783 -0.1361
 1257TIP3   OH2 3776   4.984   5.568   3.239 -0.4134 -0.4968  0.2311
 1257TIP3    H1 3777   4.988   5.473   3.247 -0.6647 -0.6195 -0.9726
 1257TIP3    H2 3778   4.925   5.595   3.310  1.6942 -0.9423  2.2894
 1258TIP3   OH2 3779   0.304   4.095   0.132 -0.6563  0.3247 -0.1811
 1258TIP3    H1 3780   0.361   4.027   0.167 -0.7575  0.2666 -0.1283
 1258TIP3    H2 3781   0.325   4.173   0.183 -0.6900  0.2808 -0.1009
 1259TIP3   OH2 3782   3.419   5.866   0.028 -0.1001 -0.6046 -0.1273
 1259TIP3    H1 3783   3.430   5.858   0.123  0.4258  0.6469 -0.0679
 1259TIP3    H2 3784   3.508   5.870  -0.006 -0.2737  0.5082 -0.5098
 1260TIP3   OH2 3785   6.263   5.516   3.078  0.1403  0.4935 -0.1041
 1260TIP3    H1 3786   6.219   5.586   3.031  3.4965  4.4553  1.9676
 1260TIP3    H2 3787   6.317   5.473   3.011 -0.7350  0.9545 -1.1367
 1261TIP3   OH2 3788   4.804   4.061   2.680  0.9596 -0.1050  0.7207
 1261TIP3    H1 3789   4.713   4.035   2.694  1.3746 -1.3235  1.2917
 1261TIP3    H2 3790   4.798   4.147   2.638 -0.4492 -0.2223  0.6282
 1262TIP3   OH2 3791   3.262   1.385   4.553 -0.1877  0.0484 -0.6023
 1262TIP3    H1 3792   3.192   1.320   4.562 -0.7513  0.5569 -1.2029
 1262TIP3    H2 3793   3.324   1.345   4.492 -0.5541  0.0823 -1.0040
 1263TIP3   OH2 3794   5.573   2.238   0.419  0.0594 -0.4212  0.1595
 1263TIP3    H1 3795   5.657   2.279   0.398 -0.2468  0.0665 -0.1256
 1263TIP3    H2 3796   5.597   2.154   0.459  0.7014  0.2568  1.2614
 1264TIP3   OH2 3797   0.441   4.364   1.334  0.7273  0.1899 -0.5238
 1264TIP3    H1 3798   0.398   4.287   1.296 -1.3411  0.4169  1.1587
 1264TIP3    H2 3799   0.534   4.351   1.316  0.3792 -2.4045 -0.8272
 1265TIP3   OH2 3800   5.817   1.293   3.635 -0.3205  0.0659 -0.5120
 1265TIP3    H1 3801   5.874   1.309   3.560  0.7225  3.1700  0.7922
 1265TIP3    H2 3802   5.877   1.285   3.710 -1.4065 -1.3593  0.2645
 1266TIP3   OH2 3803   2.106   3.866   0.423 -0.2878 -0.6125 -0.3596
 1266TIP3    H1 3804   2.083   3.795   0.484 -2.5579 -0.3057 -0.7502
 1266TIP3    H2 3805   2.023   3.887   0.379  0.2630  2.3606 -0.1718
 1267TIP3   OH2 3806   0.468   5.233   1.311 -0.3133  0.4684 -0.1769
 1267TIP3    H1 3807   0.476   5.137   1.318 -0.6221  0.5210  1.2713
 1267TIP3    H2 3808   0.376   5.251   1.330 -0.2500  1.0591 -0.4214
 1268TIP3   OH2 3809   4.058   5.623   0.643  0.3733 -0.1654 -0.3113
 1268TIP3    H1 3810   3.966   5.630   0.668  0.7114 -1.6483  1.5932
 1268TIP3    H2 3811   4.077   5.706   0.600 -1.7751  0.2828 -0.5293
 1269TIP3   OH2 3812   4.177   1.229   4.341 -0.2127 -0.4308  0.5136
 1269TIP3    H1 3813   4.214   1.316   4.358 -0.8511  0.1313 -0.7840
 1269TIP3    H2 3814   4.174   1.186   4.426  0.4627  0.6812  1.1166
 1270TIP3   OH2 3815   2.730   3.678   5.112 -0.1023  0.0145  0.4566
 1270TIP3    H1 3816   2.694   3.688   5.200  1.2229  0.2479  0.9910
 1270TIP3    H2 3817   2.781   3.597   5.116 -0.5446 -0.3094 -0.2860
 1271TIP3   OH2 3818   3.102   5.726   0.858  0.1441 -0.0342 -0.4840
 1271TIP3    H1 3819   3.157   5.756   0.786  0.6030 -0.0184 -0.1341
 1271TIP3    H2 3820   3.080   5.805   0.907 -0.1214 -0.0502 -0.5779
 1272TIP3   OH2 3821   5.027   3.807   1.629 -0.0939 -0.2315 -0.2664
 1272TIP3    H1 3822   4.940   3.776   1.603 -0.3971  0.3993 -0.0076
 1272TIP3    H2 3823   5.012   3.865   1.703  0.6020 -0.5351  0.1260
 1273TIP3   OH2 3824   0.047   2.220   3.133 -0.3772  0.2500 -0.1087
 1273TIP3    H1 3825  -0.022   2.163   3.101 -0.3100 -0.2045  0.5364
 1273TIP3    H2 3826   0.129   2.175   3.111 -0.3014  0.4609 -0.2675
 1274TIP3   OH2 3827   3.191   0.378   3.874 -0.4609 -0.0618  0.5981
 1274TIP3    H1 3828   3.159   0.320   3.942 -0.5962  0.9165  1.3974
 1274TIP3    H2 3829   3.196   0.464   3.916  0.5589  0.3470 -0.2927
 1275TIP3   OH2 3830   3.888   0.574   0.020 -0.3092 -0.3331 -0.5099
 1275TIP3    H1 3831   3.940   0.654   0.024 -0.3633 -0.0964 -2.7904
 1275TIP3    H2 3832   3.799   0.601   0.043 -0.7013  0.7279 -2.9307
 1276TIP3   OH2 3833   3.843   2.184   0.177 -0.7507 -0.0453 -0.0407
 1276TIP3    H1 3834   3.880   2.252   0.233 -0.2687 -0.5766  0.3072
 1276TIP3    H2 3835   3.865   2.102   0.222 -1.9169 -0.4021 -0.0989
 1277TIP3   OH2 3836   5.317   2.955   4.032 -0.0553  0.4262  0.2234
 1277TIP3    H1 3837   5.243   2.992   3.983 -1.6807 -2.4022  0.3383
 1277TIP3    H2 3838   5.323   2.865   4.001  2.4393  0.1508  1.3165
 1278TIP3   OH2 3839   4.306   5.455   0.037  0.5912 -0.0572  0.8682
 1278TIP3    H1 3840   4.245   5.404   0.090  2.6738 -0.6901  2.8069
 1278TIP3    H2 3841   4.276   5.545   0.045 -0.9861 -0.5239  0.4472
 1279TIP3   OH2 3842   2.737   0.934   3.822  0.0161 -0.3114 -0.1036
 1279TIP3    H1 3843   2.645   0.922   3.846  0.0542  1.4479  1.0802
 1279TIP3    H2 3844   2.748   0.882   3.743 -2.1220 -0.1726 -0.5408
 1280TIP3   OH2 3845   2.259   4.330   2.166  0.2681  0.6184  0.2265
 1280TIP3    H1 3846   2.269   4.369   2.253  1.3659 -0.6530  0.7095
 1280TIP3    H2 3847   2.203   4.254   2.180 -0.4159  0.9980 -0.3892
 1281TIP3   OH2 3848   4.819   2.983   3.820  0.1663  0.4512 -0.0712
 1281TIP3    H1 3849   4.914   2.974   3.811  0.1553 -0.3827  0.5559
 1281TIP3    H2 3850   4.792   2.907   3.872 -0.9225  0.3906 -0.6977
 1282TIP3   OH2 3851   5.610   5.360   4.655 -0.4571 -0.3193  0.3985
 1282TIP3    H1 3852   5.555   5.386   4.581 -1.2923 -1.5668  0.5266
 1282TIP3    H2 3853   5.607   5.434   4.715 -1.2715 -0.0055 -0.0168
 1283TIP3   OH2 3854   5.421   0.928   2.498  0.4832 -0.1383  0.1050
 1283TIP3    H1 3855   5.462   0.998   2.448  0.7298 -0.7572 -0.5763
 1283TIP3    H2 3856   5.335   0.915   2.457  1.1118 -1.3796 -0.8756
 1284TIP3   OH2 3857   2.375   5.867   4.893  0.1616 -0.0265  0.1960
 1284TIP3    H1 3858   2.309   5.801   4.875 -0.8863  1.1650 -0.4895
 1284TIP3    H2 3859   2.436   5.862   4.820  0.7151 -0.9688  0.7097
 1285TIP3   OH2 3860   4.341   2.318   1.422  0.2100  0.2368  0.8566
 1285TIP3    H1 3861   4.287   2.363   1.486  0.6854 -0.4530  1.7588
 1285TIP3    H2 3862   4.383   2.388   1.372 -1.5542  0.7927  0.0751
 1286TIP3   OH2 3863   4.628   2.629   2.156 -0.4123 -0.5827 -0.6572
 1286TIP3    H1 3864   4.581   2.681   2.091 -0.7319  0.5976  0.4756
 1286TIP3    H2 3865   4.623   2.539   2.123 -3.2115 -0.4863 -0.7364
 1287TIP3   OH2 3866   3.364   1.762   2.416 -0.2709  0.0258 -0.2511
 1287TIP3    H1 3867   3.350   1.852   2.443 -1.0315 -0.6797  1.9358
 1287TIP3    H2 3868   3.281   1.735   2.376  0.0157  0.3303 -1.0652
 1288TIP3   OH2 3869   4.523   2.768   0.266  0.3321  0.2425 -0.0248
 1288TIP3    H1 3870   4.466   2.693   0.284 -3.3868  3.0645  1.2092
 1288TIP3    H2 3871   4.549   2.799   0.353 -0.1417  1.6877 -0.3767
 1289TIP3   OH2 3872   0.581   5.503   3.123  0.8582 -0.1154  0.1619
 1289TIP3    H1 3873   0.512   5.436   3.128 -1.6481  2.3213  0.8404
 1289TIP3    H2 3874   0.538   5.578   3.081  3.0498  1.6230  0.8287
 1290TIP3   OH2 3875   0.024   0.455   1.308 -0.1977  0.0017 -0.4707
 1290TIP3    H1 3876   0.074   0.500   1.376 -2.5593  0.9704  0.7474
 1290TIP3    H2 3877   0.064   0.484   1.226  1.2968  0.5901  0.4139
 1291TIP3   OH2 3878   1.389   4.984   4.183 -0.0777  0.2976  0.2277
 1291TIP3    H1 3879   1.319   4.992   4.248 -0.2293  0.9323 -0.0066
 1291TIP3    H2 3880   1.355   5.029   4.105 -0.8446 -2.3563 -1.0948
 1292TIP3   OH2 3881   3.569   1.074   1.343  0.2245  0.5713  0.0542
 1292TIP3    H1 3882   3.594   1.115   1.426 -0.2092  0.8170  0.0695
 1292TIP3    H2 3883   3.559   1.147   1.283 -0.1744  0.4560 -0.0226
 1293TIP3   OH2 3884   0.354   0.636   1.619 -0.3541 -0.1884  0.7751
 1293TIP3    H1 3885   0.273   0.685   1.602 -0.4430  0.2085  2.2128
 1293TIP3    H2 3886   0.421   0.686   1.572 -1.1162 -1.4445 -1.8423
 1294TIP3   OH2 3887   2.179   4.486   1.583  0.6788 -0.3163 -0.2629
 1294TIP3    H1 3888   2.213   4.528   1.661  1.8601  0.2446 -1.0564
 1294TIP3    H2 3889   2.093   4.527   1.569  1.6406  1.6148 -0.8109
 1295TIP3   OH2 3890   1.531   2.311   2.804 -0.0377 -0.0375 -0.2343
 1295TIP3    H1 3891   1.493   2.266   2.729 -0.6024 -1.2886  0.7647
 1295TIP3    H2 3892   1.551   2.242   2.867  0.3104  0.9820  0.8332
 1296TIP3   OH2 3893   1.619   2.810   3.131  0.6704  0.1165 -0.0080
 1296TIP3    H1 3894   1.550   2.813   3.198  2.0864 -0.5692  1.5532
 1296TIP3    H2 3895   1.595   2.735   3.076  0.2875 -0.2721  0.6701
 1297TIP3   OH2 3896   2.881   2.984   4.304  0.5061  0.3523 -0.3368
 1297TIP3    H1 3897   2.834   2.967   4.222 -0.5896 -0.9863  0.5232
 1297TIP3    H2 3898   2.830   3.051   4.348  0.5891  0.4138 -0.3331
 1298TIP3   OH2 3899   3.590   2.782   4.345  0.2262 -0.7296  0.3482
 1298TIP3    H1 3900   3.521   2.829   4.393  0.5849  0.4668 -0.2745
 1298TIP3    H2 3901   3.670   2.798   4.396  0.3087 -0.8840  0.2687
 1299TIP3   OH2 3902   0.158   4.930   0.924  0.2624 -0.7886 -0.9505
 1299TIP3    H1 3903   0.106   4.921   1.004 -0.1305  2.1803 -0.7623
 1299TIP3    H2 3904   0.247   4.950   0.955  0.1051  0.3992 -1.2032
 1300TIP3   OH2 3905   5.429   3.953   2.041 -0.3726  0.3993  0.6375
 1300TIP3    H1 3906   5.460   3.862   2.046  1.1528  0.9399  1.8617
 1300TIP3    H2 3907   5.433   3.974   1.948 -0.4686 -0.6911  0.3717
 1301TIP3   OH2 3908   4.449   2.372   3.951 -0.7611  0.4739 -0.7272
 1301TIP3    H1 3909   4.436   2.302   4.015 -1.6069  1.5684  0.3280
 1301TIP3    H2 3910   4.543   2.392   3.956 -0.9598  1.1116  0.7847
 1302TIP3   OH2 3911   5.697   3.709   1.344  0.4429  0.6025 -0.1360
 1302TIP3    H1 3912   5.775   3.678   1.389  0.1660  0.9058  0.5683
 1302TIP3    H2 3913   5.671   3.788   1.392 -0.5625  0.2469 -0.0588
 1303TIP3   OH2 3914   1.943   2.144   0.030  0.1274 -0.3761 -0.1171
 1303TIP3    H1 3915   2.013   2.175  -0.028 -1.4319  1.4530 -1.1554
 1303TIP3    H2 3916   1.875   2.212   0.023 -1.0345 -1.2194  2.1879
 1304TIP3   OH2 3917   2.188   1.087   1.965 -0.5062 -0.2570  0.2732
 1304TIP3    H1 3918   2.147   1.108   2.048 -1.0635 -1.1344  0.2330
 1304TIP3    H2 3919   2.127   1.027   1.922  0.5162 -1.0843 -0.0721
 1305TIP3   OH2 3920   2.144   4.235   2.753 -0.1199 -0.0281 -0.2375
 1305TIP3    H1 3921   2.237   4.254   2.744 -0.1739  1.5016  1.7751
 1305TIP3    H2 3922   2.136   4.191   2.838 -1.1099 -1.3979 -0.9898
 1306TIP3   OH2 3923   1.434   2.529   1.003 -0.0092  0.7277 -0.2151
 1306TIP3    H1 3924   1.355   2.520   0.950  0.4061  0.0268 -0.7394
 1306TIP3    H2 3925   1.405   2.514   1.093 -0.4581  0.3643 -0.4183
 1307TIP3   OH2 3926   6.281   5.133   0.966 -0.2575  0.3985 -0.0397
 1307TIP3    H1 3927   6.368   5.127   0.927  0.2125  0.9297  0.9079
 1307TIP3    H2 3928   6.290   5.094   1.052 -0.7556  1.2023  0.3881
 1308TIP3   OH2 3929   0.436   1.354   4.432  0.7409  0.3026 -0.2590
 1308TIP3    H1 3930   0.489   1.335   4.510  0.0469  1.5677  0.5691
 1308TIP3    H2 3931   0.433   1.450   4.428 -0.2258  0.2528 -1.1570
 1309TIP3   OH2 3932   1.615   5.050   4.686  0.2487  0.4887  0.2084
 1309TIP3    H1 3933   1.529   5.065   4.647  0.3116 -0.6843 -0.4057
 1309TIP3    H2 3934   1.597   5.011   4.771  0.1722 -0.9656 -0.4514
 1310TIP3   OH2 3935   2.780   4.591   1.713  0.5948 -0.1492 -0.5109
 1310TIP3    H1 3936   2.766   4.600   1.808  0.8546 -1.7680 -0.2792
 1310TIP3    H2 3937   2.692   4.573   1.678  0.8167 -2.0393 -0.2003
 1311TIP3   OH2 3938   6.290   3.771   2.451  0.3621 -0.4168 -0.1406
 1311TIP3    H1 3939   6.236   3.813   2.384  0.1681 -1.4254 -0.6216
 1311TIP3    H2 3940   6.278   3.677   2.437  1.2412 -0.6459  0.5626
 1312TIP3   OH2 3941   5.185   4.938   3.974 -0.0216  0.1289 -0.0519
 1312TIP3    H1 3942   5.199   4.925   4.068 -2.3454 -0.1078  0.3215
 1312TIP3    H2 3943   5.247   5.007   3.950  1.4797 -0.6544  1.3615
 1313TIP3   OH2 3944   0.423   0.532   4.634  1.2082  0.2426 -0.0037
 1313TIP3    H1 3945   0.417   0.447   4.677 -0.2028 -0.6116 -1.7401
 1313TIP3    H2 3946   0.515   0.558   4.644  1.5643 -1.2546  0.9513
 1314TIP3   OH2 3947   2.879   3.974   4.506  0.4012  0.1817  0.0373
 1314TIP3    H1 3948   2.855   4.029   4.432  0.1855 -1.7108 -1.3971
 1314TIP3    H2 3949   2.795   3.952   4.548  0.4266  0.4263  0.2166
 1315TIP3   OH2 3950   4.877   3.876   3.918 -0.0475  0.4582  0.6730
 1315TIP3    H1 3951   4.957   3.882   3.864  0.2233  0.6853  1.0984
 1315TIP3    H2 3952   4.829   3.957   3.898 -0.0825  0.4118  0.5647
 1316TIP3   OH2 3953   1.013   1.308   3.820 -0.5288  0.1988 -0.3865
 1316TIP3    H1 3954   1.094   1.277   3.779 -0.4831 -0.4300  0.1562
 1316TIP3    H2 3955   0.994   1.391   3.776 -1.0634 -0.9306 -2.4381
 1317TIP3   OH2 3956   3.394   1.027   4.638  0.1086 -0.2495  0.1893
 1317TIP3    H1 3957   3.406   1.007   4.545 -0.8592 -1.2343  0.2572
 1317TIP3    H2 3958   3.482   1.020   4.675  0.8729  2.1830 -0.9826
 1318TIP3   OH2 3959   2.703   2.971   2.500 -0.2819 -0.2263  0.1939
 1318TIP3    H1 3960   2.727   2.925   2.581 -1.2983  0.1686  0.7428
 1318TIP3    H2 3961   2.786   3.007   2.467  0.5369 -2.3156 -0.2030
 1319TIP3   OH2 3962   1.534   5.893   0.545 -0.0607 -0.3642 -0.2209
 1319TIP3    H1 3963   1.603   5.833   0.572  0.1877 -0.1327 -0.3405
 1319TIP3    H2 3964   1.580   5.973   0.519 -0.4555  0.2913  1.0190
 1320TIP3   OH2 3965   2.001   3.933   3.467  0.3389 -0.2912 -0.2003
 1320TIP3    H1 3966   1.997   4.023   3.499 -0.8479 -0.8375  1.3417
 1320TIP3    H2 3967   1.918   3.920   3.421 -0.1050 -0.9583  0.7349
 1321TIP3   OH2 3968   2.827   5.578   0.441 -0.1688 -0.3255 -0.5657
 1321TIP3    H1 3969   2.807   5.521   0.516  0.9408  0.4862  0.3929
 1321TIP3    H2 3970   2.911   5.545   0.408 -0.1014  0.0096 -0.7349
 1322TIP3   OH2 3971   4.498   3.553   2.747 -0.4620 -0.1897 -0.6611
 1322TIP3    H1 3972   4.439   3.479   2.732 -0.6998 -0.4505  1.2326
 1322TIP3    H2 3973   4.440   3.623   2.776  0.0997 -0.4249  1.1556
 1323TIP3   OH2 3974   2.482   3.380   4.567 -1.1408  1.1565 -0.0644
 1323TIP3    H1 3975   2.505   3.438   4.495  0.0889 -0.0177 -0.6702
 1323TIP3    H2 3976   2.558   3.323   4.577 -2.1015 -0.0251  0.8166
 1324TIP3   OH2 3977   6.241   3.593   0.932 -0.7626 -0.0450  0.0668
 1324TIP3    H1 3978   6.297   3.624   1.003 -0.0090  0.9533 -0.9221
 1324TIP3    H2 3979   6.283   3.512   0.902 -1.2716 -0.6523  0.9545
 1325TIP3   OH2 3980   1.623   5.465   2.467  0.1387 -0.8497  0.2542
 1325TIP3    H1 3981   1.625   5.374   2.436  0.1772 -0.3969 -1.1526
 1325TIP3    H2 3982   1.703   5.503   2.430  0.4644 -0.4051  1.3938
 1326TIP3   OH2 3983   2.442   0.709   0.801  0.8376 -0.1177  0.8427
 1326TIP3    H1 3984   2.457   0.641   0.736 -0.5605 -0.5932  0.9825
 1326TIP3    H2 3985   2.374   0.765   0.763 -0.6180 -0.8760  2.1691
 1327TIP3   OH2 3986   5.803   4.520   0.546 -0.3432  0.0836 -0.6362
 1327TIP3    H1 3987   5.814   4.451   0.611  1.0689 -0.8928 -1.8484
 1327TIP3    H2 3988   5.709   4.536   0.543 -0.5482 -0.6682  0.7671
 1328TIP3   OH2 3989   2.840   2.624   3.385  0.2546  0.1904 -0.0646
 1328TIP3    H1 3990   2.925   2.651   3.421 -1.2744  1.4792  2.9304
 1328TIP3    H2 3991   2.792   2.706   3.374 -1.1014 -0.6159 -0.3371
 1329TIP3   OH2 3992   0.686   1.027   4.854  0.0425  0.1100  0.0795
 1329TIP3    H1 3993   0.735   1.101   4.890  0.4044  0.7194 -1.5852
 1329TIP3    H2 3994   0.676   1.048   4.761 -2.7686 -0.3251  0.2086
 1330TIP3   OH2 3995   2.325   0.319   1.496  0.1459 -0.1334 -1.3050
 1330TIP3    H1 3996   2.232   0.328   1.515  0.5013  1.9552 -0.3503
 1330TIP3    H2 3997   2.359   0.267   1.568  0.3057  2.1720  0.3760
 1331TIP3   OH2 3998   2.983   2.484   5.099  0.0983 -0.1627  0.4757
 1331TIP3    H1 3999   2.971   2.395   5.134  0.7186 -0.8268 -0.9133
 1331TIP3    H2 4000   3.072   2.508   5.126  0.8153 -0.9280 -1.1089
 1332TIP3   OH2 4001   5.297   0.425   4.820  0.1948 -0.6473 -0.3710
 1332TIP3    H1 4002   5.327   0.386   4.902  0.5058  2.1737  0.9792
 1332TIP3    H2 4003   5.372   0.417   4.760  1.4924  0.7737  0.9638
 1333TIP3   OH2 4004   0.152   2.081   1.535  0.5175  0.3531 -0.8365
 1333TIP3    H1 4005   0.247   2.084   1.529  0.4973  1.7331 -0.8345
 1333TIP3    H2 4006   0.134   2.016   1.603  1.4075 -0.6610 -1.5323
 1334TIP3   OH2 4007   4.982   5.455   0.236 -0.0686 -0.0101  0.5290
 1334TIP3    H1 4008   4.953   5.512   0.166 -0.0914  0.1739  0.6876
 1334TIP3    H2 4009   4.909   5.394   0.249 -0.4400  0.5220  1.0038
 1335TIP3   OH2 4010   5.346   0.905   0.546 -0.0692  0.2962 -0.0527
 1335TIP3    H1 4011   5.360   0.866   0.460  2.1557  2.3495 -0.7274
 1335TIP3    H2 4012   5.433   0.907   0.585 -1.0842 -0.9567  2.4890
 1336TIP3   OH2 4013   5.223   4.488   3.916  0.1361 -0.5852  0.4114
 1336TIP3    H1 4014   5.247   4.520   4.003  1.4627 -1.7194  0.5027
 1336TIP3    H2 4015   5.166   4.413   3.934 -2.9903  1.5804  0.2010
 1337TIP3   OH2 4016   1.916   5.990   1.384 -0.3869  0.0987  0.3512
 1337TIP3    H1 4017   1.892   5.980   1.291 -0.2728  3.3299 -0.1679
 1337TIP3    H2 4018   1.909   5.902   1.421 -1.8832 -1.0523 -2.3827
 1338TIP3   OH2 4019   1.810   2.421   2.827  0.1298  0.0735  0.0939
 1338TIP3    H1 4020   1.821   2.426   2.732 -2.7996 -0.7251 -0.3971
 1338TIP3    H2 4021   1.721   2.453   2.842  0.6175  0.4048  2.6147
 1339TIP3   OH2 4022   3.198   1.850   1.172  0.5094  0.4314 -0.0670
 1339TIP3    H1 4023   3.265   1.813   1.115  0.0429 -0.3110 -0.1596
 1339TIP3    H2 4024   3.147   1.774   1.201 -0.1248  0.9500  0.2115
 1340TIP3   OH2 4025   5.095   4.321   0.729 -0.1211  0.0326 -0.0748
 1340TIP3    H1 4026   5.032   4.283   0.669 -0.2924 -0.1617  0.2295
 1340TIP3    H2 4027   5.061   4.302   0.817  1.2322 -1.6144  0.1536
 1341TIP3   OH2 4028   0.419   2.362   1.913 -0.0275 -0.0925 -0.4535
 1341TIP3    H1 4029   0.329   2.383   1.886 -1.2363 -1.4369  2.1638
 1341TIP3    H2 4030   0.455   2.446   1.942 -1.1545  0.1866  0.2257
 1342TIP3   OH2 4031   3.638   0.641   0.140 -0.2935 -0.0187  0.2208
 1342TIP3    H1 4032   3.715   0.676   0.185  0.6254 -1.8290  0.1355
 1342TIP3    H2 4033   3.585   0.718   0.121  0.7872  1.1203  1.5951
 1343TIP3   OH2 4034   2.390   4.303   3.133 -0.3016  0.2834 -0.1401
 1343TIP3    H1 4035   2.416   4.378   3.186  0.2380  0.2249 -0.3167
 1343TIP3    H2 4036   2.295   4.300   3.140 -0.2288  0.1850  0.9587
 1344TIP3   OH2 4037   1.289   0.544   5.111 -0.3533 -0.2195 -0.6451
 1344TIP3    H1 4038   1.330   0.630   5.104  1.5727 -1.1119 -1.1774
 1344TIP3    H2 4039   1.257   0.540   5.201 -1.4416  1.4279 -0.9273
 1345TIP3   OH2 4040   2.598   0.402   3.684 -0.1004 -0.1912 -0.1322
 1345TIP3    H1 4041   2.658   0.372   3.753 -0.0995  0.1752  0.0274
 1345TIP3    H2 4042   2.531   0.333   3.680 -0.8658  0.4327  1.1986
 1346TIP3   OH2 4043   4.759   2.522   1.702 -0.2293  0.4954  0.0485
 1346TIP3    H1 4044   4.834   2.541   1.645  0.1998  0.0134  0.4378
 1346TIP3    H2 4045   4.786   2.553   1.788 -0.5048  0.3811  0.1772
 1347TIP3   OH2 4046   3.138   1.849   2.875  0.0805  0.3134 -0.1902
 1347TIP3    H1 4047   3.097   1.802   2.948  3.6333 -2.4929  0.3076
 1347TIP3    H2 4048   3.194   1.914   2.917  0.1264  0.5092 -0.5487
 1348TIP3   OH2 4049   4.768   1.190   4.461 -0.2086  0.0032  0.1144
 1348TIP3    H1 4050   4.753   1.258   4.396  1.7649 -0.5567 -1.0008
 1348TIP3    H2 4051   4.864   1.183   4.468 -0.2870 -2.9231 -0.1562
 1349TIP3   OH2 4052   3.091   5.805   0.374 -0.3719  0.2495  0.3732
 1349TIP3    H1 4053   3.119   5.845   0.291  1.2626  1.2654  1.3770
 1349TIP3    H2 4054   3.145   5.727   0.383 -2.1888 -1.2106 -0.6085
 1350TIP3   OH2 4055   6.116   3.639   0.648  0.0840 -0.0845  0.2993
 1350TIP3    H1 4056   6.183   3.636   0.716  0.6756 -0.2090 -0.2768
 1350TIP3    H2 4057   6.059   3.712   0.673 -0.0325 -0.4755  1.2132
 1351TIP3   OH2 4058   3.172   0.405   1.995 -0.0332  0.1407 -0.0254
 1351TIP3    H1 4059   3.199   0.392   1.904  0.3428 -1.1119  0.2401
 1351TIP3    H2 4060   3.152   0.317   2.026 -2.1201  0.7712  0.5259
 1352TIP3   OH2 4061   4.212   5.634   1.810  0.1468  0.3635 -0.3873
 1352TIP3    H1 4062   4.233   5.576   1.737 -0.7206 -0.8923  0.3304
 1352TIP3    H2 4063   4.295   5.679   1.829  0.5755  0.1404 -1.6251
 1353TIP3   OH2 4064   2.740   5.899   0.011  0.5657  0.3005 -0.3689
 1353TIP3    H1 4065   2.754   5.870   0.101  0.4514  0.4295 -0.3101
 1353TIP3    H2 4066   2.697   5.984   0.019  0.0458  0.0583 -0.5467
 1354TIP3   OH2 4067   4.631   2.478   0.582  0.2167 -0.1335  0.0760
 1354TIP3    H1 4068   4.683   2.552   0.550  1.7484 -1.3791 -0.4519
 1354TIP3    H2 4069   4.606   2.502   0.671  1.4791  0.6237  0.2412
 1355TIP3   OH2 4070   4.798   5.681   0.755 -0.8191 -0.4469  0.3459
 1355TIP3    H1 4071   4.806   5.648   0.665  0.2041 -1.5386  0.7991
 1355TIP3    H2 4072   4.806   5.602   0.809 -1.5060  0.1876  1.3926
 1356TIP3   OH2 4073   0.441   5.658   4.964  0.4007 -0.2532 -0.6502
 1356TIP3    H1 4074   0.386   5.708   5.024  0.3352  3.0011 -3.1532
 1356TIP3    H2 4075   0.386   5.585   4.936 -0.8911  0.2829  0.4136
 1357TIP3   OH2 4076   4.140   5.245   1.666 -0.0068  0.0747  0.0542
 1357TIP3    H1 4077   4.187   5.170   1.701 -0.3736  0.7958  2.3190
 1357TIP3    H2 4078   4.055   5.242   1.709 -0.3493  1.2885 -0.4840
 1358TIP3   OH2 4079   6.298   5.826   2.688  0.5618  0.1264  0.1027
 1358TIP3    H1 4080   6.332   5.915   2.693 -0.4300  0.5085  0.1954
 1358TIP3    H2 4081   6.307   5.802   2.596  0.9100  0.2839  0.0939
 1359TIP3   OH2 4082   6.114   4.072   4.347  0.1117  0.5727 -0.4598
 1359TIP3    H1 4083   6.143   4.087   4.258  1.6030  1.4652  0.1377
 1359TIP3    H2 4084   6.083   3.981   4.348  1.9540 -0.1128 -1.4048
 1360TIP3   OH2 4085   4.583   1.627   1.384 -0.4855 -0.3963 -0.0675
 1360TIP3    H1 4086   4.602   1.578   1.463 -0.2461 -1.1904 -0.6037
 1360TIP3    H2 4087   4.635   1.707   1.392 -1.4239  0.1163  1.1350
 1361TIP3   OH2 4088   0.684   1.497   2.354  0.7489  0.3896  0.3233
 1361TIP3    H1 4089   0.599   1.521   2.392  0.5409  0.2676 -0.0625
 1361TIP3    H2 4090   0.685   1.402   2.356  1.3258  0.4037  1.3024
 1362TIP3   OH2 4091   1.920   2.125   2.498 -0.4586  0.4026  0.4097
 1362TIP3    H1 4092   1.850   2.065   2.472 -0.4565  0.4269  0.3476
 1362TIP3    H2 4093   1.888   2.166   2.579  0.5682 -1.4929  1.8494
 1363TIP3   OH2 4094   2.975   3.089   1.929 -0.5410 -0.1747  0.2644
 1363TIP3    H1 4095   2.947   3.178   1.907  0.5631  0.2064  0.3738
 1363TIP3    H2 4096   2.938   3.035   1.859  0.5885  0.6656 -1.0325
 1364TIP3   OH2 4097   1.509   0.745   2.273  0.2861 -0.1898 -0.2194
 1364TIP3    H1 4098   1.579   0.770   2.213  1.2411 -0.4122  0.7688
 1364TIP3    H2 4099   1.513   0.650   2.275  0.2691 -0.1825  0.1972
 1365TIP3   OH2 4100   0.584   3.390   3.378 -0.2346 -0.3117  0.1183
 1365TIP3    H1 4101   0.527   3.457   3.341  2.2822  2.0001  0.0943
 1365TIP3    H2 4102   0.553   3.308   3.340 -1.8954  1.1317 -1.8553
 1366TIP3   OH2 4103   4.779   1.415   0.525  0.0346  0.1901 -0.3963
 1366TIP3    H1 4104   4.838   1.486   0.499 -0.3237  1.0420  1.0088
 1366TIP3    H2 4105   4.823   1.374   0.600 -1.0032  0.6467  0.4802
 1367TIP3   OH2 4106   5.329   1.922   0.344  0.5085  0.3280  0.0203
 1367TIP3    H1 4107   5.307   1.828   0.345 -0.1585  0.4461 -1.2217
 1367TIP3    H2 4108   5.404   1.928   0.285  0.7088  0.5423  0.2974
 1368TIP3   OH2 4109   3.669   3.918   1.391 -0.2751  0.1101  0.2565
 1368TIP3    H1 4110   3.752   3.873   1.403  0.7990  1.3344 -2.0518
 1368TIP3    H2 4111   3.619   3.862   1.331 -0.3758  0.3010  0.1623
 1369TIP3   OH2 4112   6.103   3.907   1.839  0.1444  0.0591 -0.0767
 1369TIP3    H1 4113   6.042   3.854   1.787 -0.8196  0.4823  0.5978
 1369TIP3    H2 4114   6.169   3.845   1.868 -1.2834 -0.9538  1.1960
 1370TIP3   OH2 4115   0.691   1.934   0.971 -0.2167  0.1046 -0.4210
 1370TIP3    H1 4116   0.603   1.967   0.954 -1.1596 -1.1346  1.6109
 1370TIP3    H2 4117   0.680   1.874   1.045  2.3380 -0.1346 -0.1423
 1371TIP3   OH2 4118   6.126   2.637   1.063 -0.0962  0.8297 -0.3659
 1371TIP3    H1 4119   6.063   2.570   1.090 -0.1854  0.2840 -1.8612
 1371TIP3    H2 4120   6.180   2.651   1.141  1.2549 -2.4861 -0.4953
 1372TIP3   OH2 4121   2.355   2.805   0.159  0.4924  0.3120 -0.0838
 1372TIP3    H1 4122   2.397   2.720   0.174 -0.9758 -0.3565  0.4987
 1372TIP3    H2 4123   2.343   2.842   0.246  1.2890  1.2278 -0.3440
 1373TIP3   OH2 4124   5.634   1.666   4.305 -0.5849  0.4634  0.1459
 1373TIP3    H1 4125   5.702   1.631   4.363  1.3067  0.6408 -1.8233
 1373TIP3    H2 4126   5.605   1.590   4.254 -1.3423  0.5370  0.4566
 1374TIP3   OH2 4127   2.623   0.409   4.954 -0.5406 -0.2040  0.4013
 1374TIP3    H1 4128   2.539   0.383   4.916 -0.6887  0.5772  0.1814
 1374TIP3    H2 4129   2.650   0.486   4.904 -0.5711  0.6511  1.6402
 1375TIP3   OH2 4130   2.376   1.565   2.799  0.4826 -0.0295  0.3965
 1375TIP3    H1 4131   2.301   1.624   2.790  0.8264  0.2037 -1.2054
 1375TIP3    H2 4132   2.340   1.488   2.843 -0.3747  0.6459  0.9198
 1376TIP3   OH2 4133   3.281   5.315   0.401 -0.2875  0.2140  0.2855
 1376TIP3    H1 4134   3.356   5.257   0.409 -0.9117 -1.0029 -1.9340
 1376TIP3    H2 4135   3.206   5.256   0.395 -0.9913  1.2320 -1.5728
 1377TIP3   OH2 4136   4.052   1.537   0.715  0.2255  0.0497 -0.3971
 1377TIP3    H1 4137   4.058   1.594   0.791  0.4669 -0.9073  0.3230
 1377TIP3    H2 4138   4.100   1.583   0.647  2.1049 -0.1488  0.7222
 1378TIP3   OH2 4139   1.646   5.845   4.432 -0.1424  0.6392 -0.1380
 1378TIP3    H1 4140   1.726   5.792   4.432 -0.5685 -0.0601  1.3388
 1378TIP3    H2 4141   1.664   5.915   4.495 -0.7870  0.3143  0.4152
 1379TIP3   OH2 4142   4.647   3.875   4.307  0.3594 -0.0499  0.1832
 1379TIP3    H1 4143   4.622   3.794   4.351 -1.6238  0.9041  0.9208
 1379TIP3    H2 4144   4.732   3.898   4.345  0.1847 -0.9468  1.1366
 1380TIP3   OH2 4145   3.608   5.308   4.719 -0.4135  0.1217  0.2085
 1380TIP3    H1 4146   3.666   5.375   4.755  0.4343 -0.6127  0.2439
 1380TIP3    H2 4147   3.667   5.250   4.670 -1.3302  0.2147 -1.0275
 1381TIP3   OH2 4148   3.236   5.049   0.004  0.3044 -0.1844  0.0475
 1381TIP3    H1 4149   3.271   5.120   0.057  1.4140 -1.6347  1.3567
 1381TIP3    H2 4150   3.148   5.034   0.039 -0.3744  1.2308 -0.9771
 1382TIP3   OH2 4151   5.574   3.708   2.512  0.2412  0.6126  0.2827
 1382TIP3    H1 4152   5.632   3.657   2.568 -1.5372 -0.0640  1.5624
 1382TIP3    H2 4153   5.592   3.799   2.536  1.6815  0.5234 -0.2969
 1383TIP3   OH2 4154   1.552   5.214   3.905  0.1257 -0.1410 -0.1909
 1383TIP3    H1 4155   1.589   5.131   3.933 -0.5605 -0.7675 -1.0977
 1383TIP3    H2 4156   1.469   5.221   3.953  0.3734  0.2182  0.1905
 1384TIP3   OH2 4157   2.685   4.114   4.809 -0.2671  0.4735  0.2280
 1384TIP3    H1 4158   2.700   4.023   4.784 -2.6740 -0.6990  2.5141
 1384TIP3    H2 4159   2.626   4.148   4.742  2.0373  1.0558 -1.6512
 1385TIP3   OH2 4160   5.395   3.116   0.156  0.8990 -0.4394 -0.5655
 1385TIP3    H1 4161   5.305   3.146   0.169  0.3799 -1.7655 -0.8751
 1385TIP3    H2 4162   5.431   3.175   0.090 -0.8434 -1.8107 -2.9176
 1386TIP3   OH2 4163   4.539   2.298   5.159 -0.0683  0.0148 -0.0843
 1386TIP3    H1 4164   4.465   2.326   5.213 -0.3299 -0.0789 -0.3852
 1386TIP3    H2 4165   4.565   2.377   5.111 -1.6251 -0.4916 -1.8868
 1387TIP3   OH2 4166   3.919   3.402   1.223 -0.4797 -0.0012 -0.6570
 1387TIP3    H1 4167   3.837   3.437   1.259 -0.4789  0.6737 -1.2880
 1387TIP3    H2 4168   3.947   3.337   1.287 -1.4595 -0.1741 -0.3825
 1388TIP3   OH2 4169   1.286   1.570   4.889 -0.3230 -0.3186 -0.3046
 1388TIP3    H1 4170   1.302   1.664   4.889 -1.0307 -0.1813 -1.4741
 1388TIP3    H2 4171   1.373   1.531   4.890 -0.0332  0.3354  0.8913
 1389TIP3   OH2 4172   1.845   1.750   2.567  0.2813  0.1889  0.1263
 1389TIP3    H1 4173   1.806   1.811   2.504 -1.2657 -0.3426  0.5082
 1389TIP3    H2 4174   1.864   1.804   2.643 -0.8739  0.2700  0.3819
 1390TIP3   OH2 4175   1.753   3.423   0.559  0.0583  0.0033 -0.2560
 1390TIP3    H1 4176   1.764   3.338   0.602 -2.9130 -0.0548  0.5470
 1390TIP3    H2 4177   1.713   3.402   0.474  0.8355  0.5190 -0.7674
 1391TIP3   OH2 4178   5.742   0.261   4.610  0.1734 -0.3412  0.2745
 1391TIP3    H1 4179   5.661   0.229   4.572  0.0021 -0.2016  0.5184
 1391TIP3    H2 4180   5.716   0.338   4.661  0.2096 -1.1989  1.6414
 1392TIP3   OH2 4181   1.482   0.223   2.095 -0.4244  0.5536  0.4626
 1392TIP3    H1 4182   1.391   0.201   2.073 -0.1779 -1.2035  1.0736
 1392TIP3    H2 4183   1.485   0.319   2.091 -1.9959  0.5959 -0.7451
 1393TIP3   OH2 4184   2.033   4.258   1.716 -0.1166  0.1995 -0.2756
 1393TIP3    H1 4185   2.090   4.311   1.660 -0.1913 -0.6568 -1.1916
 1393TIP3    H2 4186   2.035   4.302   1.801  1.6511  0.3702 -0.3669
 1394TIP3   OH2 4187   5.560   3.600   1.678  0.0305 -0.6421  0.1871
 1394TIP3    H1 4188   5.603   3.540   1.617  1.6521 -0.0606  0.7067
 1394TIP3    H2 4189   5.572   3.559   1.764  0.0891 -0.1675  0.4079
 1395TIP3   OH2 4190   3.164   2.809   4.187  0.5548 -0.0533  0.1784
 1395TIP3    H1 4191   3.187   2.738   4.248 -2.4734 -2.5152 -1.2586
 1395TIP3    H2 4192   3.179   2.771   4.100  0.3613  1.6676 -0.6322
 1396TIP3   OH2 4193   4.565   4.316   2.505  0.6808 -0.1266  0.0663
 1396TIP3    H1 4194   4.475   4.293   2.529  0.6846 -0.1817  0.0279
 1396TIP3    H2 4195   4.563   4.323   2.410  0.8541 -0.7005  0.0181
 1397TIP3   OH2 4196   3.662   1.865   4.380 -0.4671 -0.8148 -0.1423
 1397TIP3    H1 4197   3.641   1.793   4.440  0.1622 -0.6208  0.3258
 1397TIP3    H2 4198   3.708   1.929   4.435  0.2528 -0.6930 -0.8695
 1398TIP3   OH2 4199   3.715   2.558   0.362 -0.3984 -0.0667  0.4405
 1398TIP3    H1 4200   3.771   2.492   0.322 -0.6112 -0.8951  1.4970
 1398TIP3    H2 4201   3.773   2.634   0.375  0.2821 -0.6429  0.8088
 1399TIP3   OH2 4202   2.770   5.416   4.762  0.1810 -0.2136  0.4056
 1399TIP3    H1 4203   2.790   5.502   4.726  0.0438  0.8463  2.6934
 1399TIP3    H2 4204   2.685   5.427   4.805  0.6518 -1.1879  1.6476
 1400TIP3   OH2 4205   5.667   3.336   0.426 -0.0360  0.1948  0.3398
 1400TIP3    H1 4206   5.719   3.259   0.404 -0.6903 -0.1136 -0.1455
 1400TIP3    H2 4207   5.669   3.340   0.522  0.8792  0.1953  0.3275
 1401TIP3   OH2 4208   6.034   3.812   4.339  0.2359  0.3320  0.3507
 1401TIP3    H1 4209   5.985   3.731   4.323 -1.8885  2.0458 -2.8718
 1401TIP3    H2 4210   6.113   3.803   4.286  0.8549 -0.2597  1.3418
 1402TIP3   OH2 4211   2.426   0.976   0.447  0.0956 -0.2995  0.0294
 1402TIP3    H1 4212   2.424   0.944   0.357  1.7685 -1.0363  0.2105
 1402TIP3    H2 4213   2.510   1.022   0.454 -0.1353 -0.0174  1.1354
 1403TIP3   OH2 4214   3.439   1.168   1.984  0.7181 -0.1624  0.2175
 1403TIP3    H1 4215   3.493   1.125   1.918 -0.3858 -0.1827 -0.7086
 1403TIP3    H2 4216   3.477   1.142   2.067  0.2008 -2.8534 -0.2990
 1404TIP3   OH2 4217   0.301   4.055   2.306 -0.0350 -0.0928  0.5049
 1404TIP3    H1 4218   0.215   4.096   2.312 -0.3335 -0.8338  1.5673
 1404TIP3    H2 4219   0.358   4.124   2.271 -1.4215 -0.1619 -2.1579
 1405TIP3   OH2 4220   4.028   4.155   2.687  0.0109 -0.3412 -0.1860
 1405TIP3    H1 4221   4.103   4.098   2.673  1.7227  2.1857 -2.4534
 1405TIP3    H2 4222   3.980   4.153   2.603 -0.5216  0.6365  0.0690
 1406TIP3   OH2 4223   3.786   4.756   5.137  0.8293 -0.1643 -0.1217
 1406TIP3    H1 4224   3.861   4.700   5.159  1.2196  0.3845 -0.0218
 1406TIP3    H2 4225   3.725   4.698   5.091  0.5626 -1.0322  1.2721
 1407TIP3   OH2 4226   0.587   4.602   1.930  0.5409 -0.0485 -0.4339
 1407TIP3    H1 4227   0.569   4.569   1.842  2.2730 -0.8996 -0.5172
 1407TIP3    H2 4228   0.590   4.697   1.920 -0.0187 -0.1029 -1.1440
 1408TIP3   OH2 4229   3.936   0.380   2.581  0.2021  0.2327  0.8513
 1408TIP3    H1 4230   3.933   0.422   2.495 -0.9173 -1.5861 -0.0421
 1408TIP3    H2 4231   3.865   0.422   2.631  0.1121  0.4829  0.5174
 1409TIP3   OH2 4232   1.881   3.673   1.869  0.0582 -0.2081  0.2500
 1409TIP3    H1 4233   1.855   3.714   1.786 -1.0411 -0.7768  0.3013
 1409TIP3    H2 4234   1.957   3.620   1.846 -0.4983 -0.7057 -0.4935
 1410TIP3   OH2 4235   2.417   2.109   1.185 -0.1488 -0.6629  0.6585
 1410TIP3    H1 4236   2.384   2.100   1.096 -1.8814 -1.4156  1.3223
 1410TIP3    H2 4237   2.470   2.030   1.199 -0.9076 -1.1842  0.6800
 1411TIP3   OH2 4238   4.725   2.800   4.014  0.0023  0.6936  0.1324
 1411TIP3    H1 4239   4.701   2.738   4.083 -0.1007  1.7997  1.1278
 1411TIP3    H2 4240   4.642   2.840   3.989  0.4249  3.2039  2.2842
 1412TIP3   OH2 4241   3.967   5.490   0.061  0.3748  0.3104 -0.0096
 1412TIP3    H1 4242   3.921   5.539   0.129 -0.1615 -0.9535  0.5719
 1412TIP3    H2 4243   4.003   5.557   0.003  1.0502  1.4264  1.6328
 1413TIP3   OH2 4244   4.099   3.155   3.173 -0.0169 -0.0103 -0.3901
 1413TIP3    H1 4245   4.176   3.106   3.147  0.7972 -0.5008  2.5493
 1413TIP3    H2 4246   4.028   3.092   3.172  0.5066 -0.6565  0.8630
 1414TIP3   OH2 4247   2.639   1.112   4.115  0.1432 -0.4895  0.1211
 1414TIP3    H1 4248   2.590   1.032   4.129  0.3801 -0.6680 -0.0631
 1414TIP3    H2 4249   2.600   1.150   4.036  0.3258 -0.6512 -0.0478
 1415TIP3   OH2 4250   5.920   5.735   2.563  0.5976 -0.7358 -0.4753
 1415TIP3    H1 4251   5.967   5.718   2.481 -0.0398 -0.1655 -0.9723
 1415TIP3    H2 4252   5.966   5.809   2.602 -0.8840  0.9989 -1.8345
 1416TIP3   OH2 4253   1.835   3.302   3.377 -0.1613 -0.7143  0.4490
 1416TIP3    H1 4254   1.916   3.350   3.365 -0.4658  0.1828  1.7349
 1416TIP3    H2 4255   1.861   3.210   3.376  0.7001 -0.4687 -0.2471
 1417TIP3   OH2 4256   6.176   2.480   3.894  0.8126 -0.0998 -0.3353
 1417TIP3    H1 4257   6.132   2.561   3.922  0.7645  0.2703 -1.4351
 1417TIP3    H2 4258   6.266   2.507   3.877  1.4234 -0.7860  1.5735
 1418TIP3   OH2 4259   1.866   0.705   3.722  0.0955 -0.9467  0.3150
 1418TIP3    H1 4260   1.798   0.648   3.688 -1.2731  0.8044 -0.0361
 1418TIP3    H2 4261   1.851   0.789   3.677  1.7507 -0.1798  1.1158
 1419TIP3   OH2 4262   3.843   4.792   4.573 -0.1406  0.3100 -0.5631
 1419TIP3    H1 4263   3.755   4.780   4.611 -0.3818 -0.8478 -1.4382
 1419TIP3    H2 4264   3.878   4.869   4.618 -0.3165 -1.0857  2.1970
 1420TIP3   OH2 4265   1.844   4.979   3.243 -0.0233 -0.1635 -0.1051
 1420TIP3    H1 4266   1.816   4.988   3.334  0.5668 -0.0188  0.0684
 1420TIP3    H2 4267   1.920   5.037   3.235 -1.3572  1.4822 -1.2642
 1421TIP3   OH2 4268   1.094   1.644   3.193  0.0126  0.1597 -0.1962
 1421TIP3    H1 4269   1.110   1.582   3.264 -1.6977 -0.5908 -0.4082
 1421TIP3    H2 4270   1.085   1.729   3.236 -1.1559 -0.3128  0.5289
 1422TIP3   OH2 4271   2.056   3.333   0.359  0.0859 -0.0897  0.4205
 1422TIP3    H1 4272   2.016   3.296   0.438 -0.1114 -1.4109 -0.2589
 1422TIP3    H2 4273   2.024   3.276   0.288 -0.3728  1.5257 -0.7169
 1423TIP3   OH2 4274   3.995   3.769   3.924 -0.0938 -0.2853 -0.1881
 1423TIP3    H1 4275   4.065   3.791   3.985  0.3799 -0.8758 -0.5082
 1423TIP3    H2 4276   4.038   3.720   3.854 -0.5639  0.6965 -1.1990
 1424TIP3   OH2 4277   2.846   1.669   3.475 -0.6801  0.0985 -0.2608
 1424TIP3    H1 4278   2.884   1.721   3.547 -2.2118  0.1119  0.5866
 1424TIP3    H2 4279   2.921   1.639   3.425  0.6982 -2.0253  2.7932
 1425TIP3   OH2 4280   2.846   1.254   2.657 -0.3484  0.3092 -0.3316
 1425TIP3    H1 4281   2.873   1.197   2.729  0.0144 -0.9392 -1.4272
 1425TIP3    H2 4282   2.758   1.283   2.681 -0.7893 -1.2145 -0.0250
 1426TIP3   OH2 4283   1.356   0.074   1.445 -1.3499 -0.1403  0.0933
 1426TIP3    H1 4284   1.438   0.027   1.431 -0.9236 -0.1280  2.2889
 1426TIP3    H2 4285   1.289   0.018   1.407 -0.5004 -0.8965 -0.3248
 1427TIP3   OH2 4286   4.153   4.315   4.681  0.3764  0.1722  0.8052
 1427TIP3    H1 4287   4.203   4.397   4.684  1.1403 -0.3142  2.3562
 1427TIP3    H2 4288   4.094   4.326   4.607  1.4108  1.5794  0.1337
 1428TIP3   OH2 4289   0.364   4.445   2.513  0.2517 -0.1478 -1.0781
 1428TIP3    H1 4290   0.320   4.366   2.544 -1.7682  0.4730 -2.1766
 1428TIP3    H2 4291   0.422   4.470   2.585 -0.4873 -1.5438  0.0581
 1429TIP3   OH2 4292   5.972   4.333   2.549 -0.2682  0.0473 -0.3553
 1429TIP3    H1 4293   6.047   4.302   2.498 -0.1429  0.0445 -0.1715
 1429TIP3    H2 4294   5.976   4.428   2.542 -0.3191  0.0423 -0.4477
 1430TIP3   OH2 4295   2.147   1.795   0.885 -0.1667  0.0875  0.0418
 1430TIP3    H1 4296   2.181   1.723   0.832 -1.4613 -0.2682 -0.3428
 1430TIP3    H2 4297   2.068   1.759   0.927  0.0651  0.7903  1.1276
 1431TIP3   OH2 4298   2.871   1.904   0.568 -0.3128 -0.2322 -0.6180
 1431TIP3    H1 4299   2.850   1.860   0.650  1.4620  0.4343  0.2429
 1431TIP3    H2 4300   2.886   1.995   0.593  0.4363 -0.0506 -1.6540
 1432TIP3   OH2 4301   1.181   5.833   0.312 -0.3243  0.2972 -0.4627
 1432TIP3    H1 4302   1.257   5.860   0.261 -0.6477  0.8034 -0.6856
 1432TIP3    H2 4303   1.188   5.737   0.316 -0.3562  0.2293 -1.5654
 1433TIP3   OH2 4304   2.533   5.132   2.478 -0.0148 -0.8067 -0.6424
 1433TIP3    H1 4305   2.580   5.056   2.442 -0.7094 -0.7415 -1.7149
 1433TIP3    H2 4306   2.591   5.206   2.461  0.2681 -0.9712 -0.4008
 1434TIP3   OH2 4307   4.540   3.716   4.869  0.4374  0.1189  0.6342
 1434TIP3    H1 4308   4.575   3.787   4.923  0.1057  0.5604  0.2783
 1434TIP3    H2 4309   4.544   3.639   4.925  1.3850  0.2864  0.8133
 1435TIP3   OH2 4310   3.848   3.462   0.913 -0.1809  0.0434  0.3603
 1435TIP3    H1 4311   3.893   3.536   0.954 -1.2391  0.8279  0.1667
 1435TIP3    H2 4312   3.755   3.487   0.915 -0.9055 -2.3480  2.5627
 1436TIP3   OH2 4313   1.756   1.237   2.966 -0.5069  0.1498 -0.3288
 1436TIP3    H1 4314   1.709   1.166   3.009  0.1278 -0.2537 -0.2922
 1436TIP3    H2 4315   1.736   1.226   2.873  0.4667 -0.7508 -0.4471
 1437TIP3   OH2 4316   2.880   0.813   2.204  0.1321 -0.6715 -0.4175
 1437TIP3    H1 4317   2.849   0.722   2.198 -1.6506 -0.4677  3.0146
 1437TIP3    H2 4318   2.975   0.805   2.209  0.0560 -2.2958 -0.8611
 1438TIP3   OH2 4319   2.382   1.988   5.156 -0.3164 -0.1447 -0.2281
 1438TIP3    H1 4320   2.391   1.958   5.065 -1.9580 -0.0505 -0.4397
 1438TIP3    H2 4321   2.364   2.081   5.148  1.2827  0.2448  0.2990
 1439TIP3   OH2 4322   4.315   1.186   4.614  0.1383  0.6585  0.6364
 1439TIP3    H1 4323   4.332   1.266   4.565  0.2292  0.3017  0.0790
 1439TIP3    H2 4324   4.343   1.207   4.703 -0.1726  1.3615  0.5789
 1440TIP3   OH2 4325   1.527   0.813   3.294 -0.1099  0.1885  0.0904
 1440TIP3    H1 4326   1.622   0.808   3.307 -0.3235  0.0134  1.7239
 1440TIP3    H2 4327   1.506   0.732   3.246  0.4996  0.0081  0.1165
 1441TIP3   OH2 4328   1.032   3.013   4.160 -0.0270  0.4093  0.4701
 1441TIP3    H1 4329   1.047   3.104   4.184  0.5013  0.5546 -0.3517
 1441TIP3    H2 4330   0.940   2.998   4.179 -0.0629  1.0443  0.8324
 1442TIP3   OH2 4331   0.382   3.813   4.341 -0.0672  0.2159  0.1176
 1442TIP3    H1 4332   0.325   3.859   4.403 -0.4346 -0.0685  0.0000
 1442TIP3    H2 4333   0.365   3.855   4.257  0.0115  0.2336  0.1106
 1443TIP3   OH2 4334   4.405   5.166   1.250 -0.1563  0.6280  0.2039
 1443TIP3    H1 4335   4.311   5.169   1.269  0.0149 -0.3082  1.2417
 1443TIP3    H2 4336   4.447   5.205   1.326  0.2474  3.0945 -1.1594
 1444TIP3   OH2 4337   3.000   1.952   2.641 -0.4343  0.1412 -0.3582
 1444TIP3    H1 4338   2.979   1.887   2.574  0.2634  0.5543 -0.9936
 1444TIP3    H2 4339   3.041   1.902   2.712  1.9150  0.1112 -1.6715
 1445TIP3   OH2 4340   3.154   5.898   0.112  0.2766  0.7533 -0.2109
 1445TIP3    H1 4341   3.117   5.822   0.067  0.8196 -0.2547  0.9684
 1445TIP3    H2 4342   3.245   5.901   0.085  0.5409  0.2936  0.5748
 1446TIP3   OH2 4343   2.642   4.277   1.947 -0.3656 -0.1148  0.1728
 1446TIP3    H1 4344   2.636   4.235   2.032  0.8186  0.1615  0.4119
 1446TIP3    H2 4345   2.670   4.367   1.966 -0.5519  0.0936 -0.4833
 1447TIP3   OH2 4346   2.165   4.818   2.886 -0.1056 -0.0213 -0.5537
 1447TIP3    H1 4347   2.149   4.724   2.878  0.5093 -0.0491 -1.8176
 1447TIP3    H2 4348   2.085   4.854   2.924 -0.3598 -1.0464 -0.0960
 1448TIP3   OH2 4349   5.979   3.666   3.074 -0.1163 -0.7468  0.0949
 1448TIP3    H1 4350   5.958   3.760   3.076  0.0246 -0.7055 -0.3036
 1448TIP3    H2 4351   5.954   3.634   3.161  1.1615 -0.0530  0.7446
 1449TIP3   OH2 4352   2.927   5.849   1.935 -0.4363 -0.1601 -0.6407
 1449TIP3    H1 4353   2.839   5.849   1.973 -0.3524 -0.9848 -0.4273
 1449TIP3    H2 4354   2.922   5.910   1.862 -1.5279 -1.1007 -1.3911
 1450TIP3   OH2 4355   1.022   4.669   3.129 -0.6941 -0.2049  0.2790
 1450TIP3    H1 4356   0.955   4.605   3.150  0.7064 -2.3754 -1.3726
 1450TIP3    H2 4357   1.016   4.678   3.034  1.1271 -0.2343  0.1363
 1451TIP3   OH2 4358   1.448   5.876   0.842 -0.4134 -0.0162 -0.2394
 1451TIP3    H1 4359   1.356   5.897   0.825 -0.8860 -0.2408  1.7747
 1451TIP3    H2 4360   1.486   5.863   0.755 -2.6417 -1.3820 -1.1123
 1452TIP3   OH2 4361   1.973   3.205   3.989  0.2013  1.0639  0.5003
 1452TIP3    H1 4362   1.928   3.271   3.937 -1.2881  1.0479  1.7185
 1452TIP3    H2 4363   1.982   3.130   3.930  0.4373  1.7696 -0.3758
 1453TIP3   OH2 4364   2.630   1.539   1.666  0.3392 -0.0976  0.1653
 1453TIP3    H1 4365   2.661   1.451   1.647  1.9054  0.4400  0.1403
 1453TIP3    H2 4366   2.607   1.575   1.580  0.7167 -0.1133  0.0569
 1454TIP3   OH2 4367   4.671   1.230   2.836  0.4579 -1.1176  0.5842
 1454TIP3    H1 4368   4.728   1.269   2.901 -0.0544 -1.1756  1.0759
 1454TIP3    H2 4369   4.590   1.210   2.883 -0.4520  0.1102 -0.3605
 1455TIP3   OH2 4370   2.487   5.173   3.758  0.4388  0.3840 -0.0110
 1455TIP3    H1 4371   2.501   5.218   3.675 -0.8381 -0.1227 -0.5238
 1455TIP3    H2 4372   2.576   5.156   3.791  0.9578  2.0142 -0.4602
 1456TIP3   OH2 4373   3.366   3.378   3.535  0.1929  0.6294  0.2774
 1456TIP3    H1 4374   3.334   3.305   3.590  0.3660  0.1293 -0.2752
 1456TIP3    H2 4375   3.296   3.391   3.471  0.6045  0.2583 -0.2607
 1457TIP3   OH2 4376   5.040   1.222   3.751  0.2476 -0.3170  0.2137
 1457TIP3    H1 4377   4.970   1.229   3.687  1.2367  0.5610 -0.8131
 1457TIP3    H2 4378   5.088   1.143   3.726  1.0093  0.3698 -0.5404
 1458TIP3   OH2 4379   2.201   5.516   4.010  0.3108 -0.0811 -0.0159
 1458TIP3    H1 4380   2.209   5.608   3.985  1.2201  0.1592  1.1128
 1458TIP3    H2 4381   2.217   5.468   3.928  2.6348  0.7128 -0.1085
 1459TIP3   OH2 4382   3.433   3.249   0.357 -0.3699  0.7467 -0.6504
 1459TIP3    H1 4383   3.417   3.310   0.286 -0.9526  0.3891 -0.8367
 1459TIP3    H2 4384   3.377   3.279   0.428  0.3543  1.2171 -0.2605
 1460TIP3   OH2 4385   4.110   1.058   3.342 -0.6043  0.3469 -0.1656
 1460TIP3    H1 4386   4.049   1.061   3.269  0.4157  1.2891 -1.0199
 1460TIP3    H2 4387   4.189   1.017   3.305 -0.2083  0.4793  0.5146
 1461TIP3   OH2 4388   2.404   0.006   3.429  0.1275 -0.5602  0.3372
 1461TIP3    H1 4389   2.474   0.025   3.366  0.6673 -1.3682  0.6707
 1461TIP3    H2 4390   2.324   0.027   3.382  0.6034  1.0947  0.2034
 1462TIP3   OH2 4391   1.556   4.867   3.777  0.5862 -0.2314  0.0149
 1462TIP3    H1 4392   1.627   4.841   3.718 -0.2318  0.4325 -1.3020
 1462TIP3    H2 4393   1.600   4.910   3.850  1.5221  0.6253 -1.0216
 1463TIP3   OH2 4394   0.400   0.054   3.682  0.6856  0.2663 -0.3242
 1463TIP3    H1 4395   0.346   0.062   3.760  0.1826 -1.0830 -0.4992
 1463TIP3    H2 4396   0.393   0.139   3.638  0.0557  0.6516  0.5007
 1464TIP3   OH2 4397   0.852   0.123   0.825 -0.2198 -0.7715  0.2290
 1464TIP3    H1 4398   0.814   0.140   0.911 -1.4707 -2.5185  0.0837
 1464TIP3    H2 4399   0.862   0.028   0.822  0.9533 -0.6362 -1.0940
 1465TIP3   OH2 4400   1.134   0.013   0.970 -0.0627 -0.3475 -0.2790
 1465TIP3    H1 4401   1.086  -0.035   0.903 -0.4913 -2.8409  1.6721
 1465TIP3    H2 4402   1.067   0.040   1.032  0.6764 -1.3262  0.9879
 1466TIP3   OH2 4403   3.682   4.867   2.678 -0.1004  0.0510 -0.3880
 1466TIP3    H1 4404   3.776   4.849   2.680 -0.2280 -0.6121  0.8929
 1466TIP3    H2 4405   3.644   4.790   2.636 -0.2327 -0.6438  0.9496
 1467TIP3   OH2 4406   2.710   0.088   2.930  0.1261  0.3892 -0.3365
 1467TIP3    H1 4407   2.617   0.066   2.938  0.2872 -0.8485 -1.6100
 1467TIP3    H2 4408   2.718   0.172   2.975 -2.0392  1.6153 -2.0328
 1468TIP3   OH2 4409   1.935   5.761   0.851 -0.5826 -0.0861 -0.6538
 1468TIP3    H1 4410   1.844   5.739   0.870 -0.6657 -0.4130 -1.4189
 1468TIP3    H2 4411   1.939   5.856   0.862 -0.5854 -0.2501  1.1320
 1469TIP3   OH2 4412   1.190   4.093   0.027 -0.2044 -0.6551  0.1001
 1469TIP3    H1 4413   1.193   4.170  -0.031  0.6228 -2.7618 -2.9057
 1469TIP3    H2 4414   1.101   4.093   0.060  0.1798  2.4101  1.5500
 1470TIP3   OH2 4415   2.963   4.843   3.962 -0.4642  0.3080  0.1028
 1470TIP3    H1 4416   3.009   4.761   3.945 -0.7817 -0.4608  2.5493
 1470TIP3    H2 4417   3.019   4.890   4.024 -1.4210  0.8372  0.5943
 1471TIP3   OH2 4418   5.405   4.033   4.706  0.2013  0.5521 -0.4736
 1471TIP3    H1 4419   5.430   4.044   4.614  0.5258 -1.7306 -0.7063
 1471TIP3    H2 4420   5.479   3.989   4.746 -0.3511  0.6286  0.6723
 1472TIP3   OH2 4421   4.173   1.322   0.604 -0.3468 -0.0562 -0.1878
 1472TIP3    H1 4422   4.146   1.400   0.654  0.2967 -0.0806  0.2131
 1472TIP3    H2 4423   4.264   1.341   0.578  0.1902 -1.1051  0.8259
 1473TIP3   OH2 4424   6.299   2.827   4.893  0.0866 -0.5447 -0.5674
 1473TIP3    H1 4425   6.295   2.833   4.988  1.5410 -0.2342 -0.5016
 1473TIP3    H2 4426   6.234   2.890   4.862 -0.4969 -0.7545  0.2118
 1474TIP3   OH2 4427   0.297   0.283   0.879  0.3319 -0.1830  0.1244
 1474TIP3    H1 4428   0.237   0.221   0.920  2.2801 -1.3434  1.3856
 1474TIP3    H2 4429   0.326   0.340   0.950 -0.2607  1.2484 -0.7303
 1475TIP3   OH2 4430   3.427   1.772   4.835  0.1514 -0.2343  0.1341
 1475TIP3    H1 4431   3.349   1.725   4.806  0.3436 -0.6458  0.2754
 1475TIP3    H2 4432   3.471   1.711   4.894 -0.9086  1.0578  2.3614
 1476TIP3   OH2 4433   6.353   1.326   0.136 -0.3237  0.4604  0.3582
 1476TIP3    H1 4434   6.293   1.378   0.083 -1.3269 -1.4752 -0.5117
 1476TIP3    H2 4435   6.350   1.366   0.223 -0.0917  2.5613 -0.5462
 1477TIP3   OH2 4436   2.663   4.677   0.134  0.3872  0.5237 -0.0813
 1477TIP3    H1 4437   2.605   4.747   0.165 -0.3193 -0.2949  0.5046
 1477TIP3    H2 4438   2.739   4.682   0.192 -1.1159 -1.2733  2.2145
 1478TIP3   OH2 4439   1.827   5.292   2.160 -0.5928  0.5613  0.4118
 1478TIP3    H1 4440   1.819   5.226   2.229  0.1810 -0.1517 -0.1597
 1478TIP3    H2 4441   1.820   5.376   2.206  2.9594  0.2326  1.8665
 1479TIP3   OH2 4442   0.678   3.179   2.175  0.5077  0.0660  0.2115
 1479TIP3    H1 4443   0.662   3.115   2.244 -1.2539  0.5744  0.3189
 1479TIP3    H2 4444   0.670   3.130   2.094  0.8973 -0.1899  0.3251
 1480TIP3   OH2 4445   0.356   5.918   0.801  0.0730  0.2921 -0.0982
 1480TIP3    H1 4446   0.376   5.837   0.753 -0.3838 -0.2923  0.6726
 1480TIP3    H2 4447   0.300   5.968   0.742  0.2911  0.0118 -0.5505
 1481TIP3   OH2 4448   0.403   3.506   4.967  0.2596 -0.4297 -0.3403
 1481TIP3    H1 4449   0.438   3.558   4.895 -2.2710  0.9499 -0.7180
 1481TIP3    H2 4450   0.475   3.498   5.029  1.4952  1.3811 -1.4601
 1482TIP3   OH2 4451   0.076   0.929   1.550  0.4832 -0.2269  0.7305
 1482TIP3    H1 4452  -0.016   0.919   1.574  0.0512  0.5356 -0.4975
 1482TIP3    H2 4453   0.083   0.890   1.463  1.5072 -0.9556  1.1153
 1483TIP3   OH2 4454   2.683   2.807   0.082 -0.5509  0.4748 -0.4892
 1483TIP3    H1 4455   2.636   2.725   0.071  0.6222  0.0014 -2.6208
 1483TIP3    H2 4456   2.626   2.873   0.042 -0.1227  0.1493 -1.6759
 1484TIP3   OH2 4457   0.502   2.022   2.914 -0.2681 -0.1362  0.1553
 1484TIP3    H1 4458   0.493   1.943   2.967 -1.2686  0.6717  1.2543
 1484TIP3    H2 4459   0.554   1.995   2.839  1.8852 -1.1646  1.8956
 1485TIP3   OH2 4460   2.070   1.054   0.542 -0.6721  0.2224  0.6814
 1485TIP3    H1 4461   2.118   1.136   0.537 -0.0796 -0.1760 -0.3151
 1485TIP3    H2 4462   1.989   1.077   0.587 -0.5843  1.3864  0.2781
 1486TIP3   OH2 4463   0.207   0.482   3.510 -0.3647  0.3905  0.5139
 1486TIP3    H1 4464   0.219   0.395   3.473  0.7432  0.3807  0.8450
 1486TIP3    H2 4465   0.199   0.467   3.604  2.0525  0.7535  0.8534
 1487TIP3   OH2 4466   2.534   4.778   3.197  0.1719  0.2868 -0.3751
 1487TIP3    H1 4467   2.533   4.855   3.254  0.2546 -0.3965  0.5644
 1487TIP3    H2 4468   2.500   4.707   3.252 -0.8738 -0.1414 -1.5365
 1488TIP3   OH2 4469   6.193   5.637   4.778 -0.0600  0.1998  0.2852
 1488TIP3    H1 4470   6.118   5.583   4.802  1.0940 -1.3084  0.6444
 1488TIP3    H2 4471   6.155   5.722   4.756 -1.8822 -0.5683  0.2773
 1489TIP3   OH2 4472   4.903   2.408   0.317  0.3995 -0.1787  0.4154
 1489TIP3    H1 4473   4.964   2.482   0.310  0.8529 -0.6803 -1.4134
 1489TIP3    H2 4474   4.846   2.417   0.241  0.6438 -1.8554  0.0081
 1490TIP3   OH2 4475   6.029   2.095   2.683 -0.3097 -0.1070  1.0309
 1490TIP3    H1 4476   5.989   2.142   2.756  0.7392  0.6720  1.1303
 1490TIP3    H2 4477   6.005   2.146   2.605  1.1247  0.8313  1.1759
 1491TIP3   OH2 4478   3.392   0.279   5.106 -0.2287  0.4572  0.1664
 1491TIP3    H1 4479   3.466   0.301   5.050 -0.9194  0.2963 -0.8272
 1491TIP3    H2 4480   3.422   0.301   5.194  0.7797  0.9542 -0.2816
 1492TIP3   OH2 4481   3.963   1.942   4.454 -0.1190  0.0572 -0.4544
 1492TIP3    H1 4482   4.045   1.941   4.504  0.1538  0.1901 -0.8883
 1492TIP3    H2 4483   3.897   1.972   4.517  0.1245 -0.2562 -0.0428
 1493TIP3   OH2 4484   0.355   5.823   1.798 -0.5002 -0.2317 -0.0965
 1493TIP3    H1 4485   0.265   5.794   1.812 -0.5665  0.1122  0.2071
 1493TIP3    H2 4486   0.372   5.883   1.870  0.4744 -1.4391  0.7308
 1494TIP3   OH2 4487   2.989   4.884   5.033 -0.2780  0.3579  0.2493
 1494TIP3    H1 4488   3.020   4.934   4.958 -3.0479 -0.4897 -1.6315
 1494TIP3    H2 4489   2.956   4.950   5.094  2.5461  1.0969  1.1465
 1495TIP3   OH2 4490   3.126   4.537   2.952  0.0937 -0.1814 -0.5569
 1495TIP3    H1 4491   3.087   4.463   2.905 -0.2211 -0.1082 -0.4115
 1495TIP3    H2 4492   3.215   4.542   2.918 -0.7930  1.3423 -2.9610
 1496TIP3   OH2 4493   1.380   4.693   5.150  0.2739 -0.4301 -0.0248
 1496TIP3    H1 4494   1.444   4.731   5.210 -0.2928 -0.0856  0.3732
 1496TIP3    H2 4495   1.398   4.599   5.153  0.6008 -0.3608  0.2721
 1497TIP3   OH2 4496   3.827   3.850   3.223  0.3432  0.3051 -0.6500
 1497TIP3    H1 4497   3.901   3.848   3.283  0.6409 -2.2587 -0.9880
 1497TIP3    H2 4498   3.865   3.841   3.136 -0.3003  0.0519 -0.9177
 1498TIP3   OH2 4499   2.400   3.411   3.750  0.1915  0.2240 -0.4025
 1498TIP3    H1 4500   2.350   3.412   3.831 -2.8909 -0.8871 -2.1118
 1498TIP3    H2 4501   2.424   3.320   3.737  0.1831  0.3042 -1.0115
 1499TIP3   OH2 4502   4.357   1.240   3.219  0.2568 -0.5840 -0.1189
 1499TIP3    H1 4503   4.369   1.149   3.245  0.1049 -0.2942  1.0038
 1499TIP3    H2 4504   4.434   1.285   3.255 -0.3638 -0.0332  0.5361
 1500TIP3   OH2 4505   2.093   0.480   2.516 -0.0116  0.2030 -0.2871
 1500TIP3    H1 4506   2.167   0.525   2.476 -0.7826 -0.7590 -3.0647
 1500TIP3    H2 4507   2.025   0.482   2.449 -1.8900 -0.5084  1.4895
 1501TIP3   OH2 4508   3.223   0.479   1.736  0.4957  0.2151  0.3622
 1501TIP3    H1 4509   3.311   0.506   1.711  0.4882  0.2112  0.3320
 1501TIP3    H2 4510   3.174   0.561   1.745  0.4543  0.2080  0.1984
 1502TIP3   OH2 4511   0.306   3.792   2.072  0.0415  0.1188  0.2346
 1502TIP3    H1 4512   0.349   3.843   2.141 -0.8107 -1.0589  1.7007
 1502TIP3    H2 4513   0.213   3.792   2.097 -0.1893 -0.8412 -0.5779
 1503TIP3   OH2 4514   3.245   0.646   0.099  0.1214  0.3639 -0.2227
 1503TIP3    H1 4515   3.188   0.709   0.055 -0.1048  1.0595  1.0331
 1503TIP3    H2 4516   3.306   0.618   0.031 -0.9846  0.4693 -1.2928
 1504TIP3   OH2 4517   3.485   4.839   4.563  0.0182 -0.0345  0.1234
 1504TIP3    H1 4518   3.468   4.746   4.573 -2.0119  0.3535  0.7677
 1504TIP3    H2 4519   3.451   4.860   4.476 -1.3525  0.4251  0.7339
 1505TIP3   OH2 4520   3.888   2.677   0.111 -0.3605 -0.6703 -0.2585
 1505TIP3    H1 4521   3.967   2.716   0.150  0.2042 -1.4312 -0.6156
 1505TIP3    H2 4522   3.918   2.593   0.075 -1.1594 -0.5977 -1.1296
 1506TIP3   OH2 4523   2.843   1.893   0.193 -0.5623 -0.1816  0.2216
 1506TIP3    H1 4524   2.893   1.933   0.122 -1.4521  1.4837  0.4853
 1506TIP3    H2 4525   2.758   1.874   0.155 -0.0805 -2.2087  0.0157
 1507TIP3   OH2 4526   0.425   4.945   4.536  0.2994 -0.0811 -0.0392
 1507TIP3    H1 4527   0.377   5.017   4.496  0.7580  0.2124 -0.0719
 1507TIP3    H2 4528   0.507   4.941   4.486  0.5803 -0.1623  0.4205
 1508TIP3   OH2 4529   1.751   5.465   4.585  0.2266  0.2164 -0.0394
 1508TIP3    H1 4530   1.658   5.455   4.605  0.2882 -0.4204 -0.0582
 1508TIP3    H2 4531   1.793   5.483   4.669 -0.0463  1.5900 -0.1723
 1509TIP3   OH2 4532   5.491   1.576   0.519  0.0370  0.0661  0.1274
 1509TIP3    H1 4533   5.452   1.492   0.493  1.0355 -0.1948 -0.5610
 1509TIP3    H2 4534   5.423   1.640   0.500 -1.5858 -0.7488  2.6109
 1510TIP3   OH2 4535   4.724   4.858   2.593 -0.1124 -0.0641 -0.2835
 1510TIP3    H1 4536   4.816   4.835   2.609 -0.2322  0.6679  1.7407
 1510TIP3    H2 4537   4.721   4.953   2.604 -1.1133 -0.0880 -0.3026
 1511TIP3   OH2 4538   4.378   4.589   2.920 -0.5162  0.0887  0.0965
 1511TIP3    H1 4539   4.297   4.637   2.904  0.0838  1.0987  0.0246
 1511TIP3    H2 4540   4.378   4.520   2.854 -1.2075  0.2214 -0.0542
 1512TIP3   OH2 4541   2.908   2.818   0.709 -0.4805 -0.3526  0.2749
 1512TIP3    H1 4542   2.977   2.834   0.773 -1.2612 -0.3649  1.1526
 1512TIP3    H2 4543   2.873   2.732   0.732 -1.2640 -0.0315  0.3137
 1513TIP3   OH2 4544   3.808   5.563   3.740 -0.1676  0.1610  0.0359
 1513TIP3    H1 4545   3.902   5.565   3.722 -0.3637  0.5386 -0.9851
 1513TIP3    H2 4546   3.802   5.537   3.832  0.9130 -0.5407 -0.0723
 1514TIP3   OH2 4547   3.735   0.099   2.520  0.1857 -0.1249 -0.0957
 1514TIP3    H1 4548   3.739   0.095   2.425  0.2362  1.1624 -0.1694
 1514TIP3    H2 4549   3.736   0.193   2.540  1.4193 -0.3722  1.2185
 1515TIP3   OH2 4550   5.226   2.991   3.040  0.2775 -0.0682  0.6209
 1515TIP3    H1 4551   5.191   3.079   3.051  0.0514 -0.2949  1.9221
 1515TIP3    H2 4552   5.315   2.996   3.074  1.1109  0.1983 -1.4869
 1516TIP3   OH2 4553   0.391   1.015   4.084  0.2597  0.6612 -0.4981
 1516TIP3    H1 4554   0.404   1.074   4.010  0.0948  0.0525 -1.0152
 1516TIP3    H2 4555   0.309   0.970   4.065  1.3277 -1.1305 -1.0748
 1517TIP3   OH2 4556   4.540   5.904   1.631  0.5143  0.3370 -0.2194
 1517TIP3    H1 4557   4.471   5.969   1.626 -0.3044 -0.3890  1.0349
 1517TIP3    H2 4558   4.545   5.867   1.543 -2.0939 -0.9321  0.0656
 1518TIP3   OH2 4559   4.265   4.288   3.886 -0.5501  0.1113  0.5839
 1518TIP3    H1 4560   4.183   4.241   3.868 -0.9055  0.4159  1.3420
 1518TIP3    H2 4561   4.321   4.268   3.811 -0.6781 -1.5239  0.8767
 1519TIP3   OH2 4562   3.797   3.380   4.417 -0.1935  0.2352 -0.2051
 1519TIP3    H1 4563   3.744   3.307   4.384 -2.5046  0.7927  1.9753
 1519TIP3    H2 4564   3.839   3.346   4.496  0.6420  0.5821 -0.4877
 1520TIP3   OH2 4565   1.934   4.949   1.191  0.1900 -0.7215  0.3178
 1520TIP3    H1 4566   1.906   4.919   1.277  0.9961 -0.7121  0.5862
 1520TIP3    H2 4567   1.882   5.028   1.176 -0.1784 -0.8918  0.6541
 1521TIP3   OH2 4568   4.889   2.143   0.041 -0.3154  0.1071 -0.2371
 1521TIP3    H1 4569   4.932   2.228   0.032 -0.0537  0.1360  1.0880
 1521TIP3    H2 4570   4.863   2.120  -0.048  1.4524  0.5998 -0.9203
 1522TIP3   OH2 4571   0.451   3.772   4.646 -0.1488 -0.4302  0.1887
 1522TIP3    H1 4572   0.438   3.770   4.551  1.1397  1.3695 -0.0833
 1522TIP3    H2 4573   0.474   3.863   4.664  1.7512 -1.1884  1.9230
 1523TIP3   OH2 4574   0.188   0.488   1.962  0.1302 -0.3180 -0.2455
 1523TIP3    H1 4575   0.124   0.538   2.012 -1.0796 -1.9748 -0.0429
 1523TIP3    H2 4576   0.210   0.414   2.020  0.7116 -0.8358 -1.1087
 1524TIP3   OH2 4577   2.477   4.366   4.547 -0.5268  0.0030  0.0368
 1524TIP3    H1 4578   2.423   4.325   4.480 -0.0094  1.1430 -1.1154
 1524TIP3    H2 4579   2.420   4.373   4.623 -0.6288 -2.8025  0.3015
 1525TIP3   OH2 4580   5.878   3.834   1.674  0.5106 -0.0952 -0.0934
 1525TIP3    H1 4581   5.786   3.843   1.699  0.3167 -0.6340 -0.5702
 1525TIP3    H2 4582   5.891   3.740   1.664  0.9486  0.0100 -0.6049
 1526TIP3   OH2 4583   5.701   4.214   1.307  1.0679 -0.4759 -0.4265
 1526TIP3    H1 4584   5.697   4.266   1.387  0.2289  1.4471 -1.6409
 1526TIP3    H2 4585   5.614   4.177   1.299  1.2285 -0.8790 -0.3344
 1527TIP3   OH2 4586   0.591   2.728   4.539  0.2360  0.0364 -0.3775
 1527TIP3    H1 4587   0.511   2.776   4.520 -0.3139 -0.7097 -0.0012
 1527TIP3    H2 4588   0.561   2.642   4.567  1.1566 -0.1196  0.1667
 1528TIP3   OH2 4589   2.072   0.720   0.055 -0.0815 -0.2751  0.1262
 1528TIP3    H1 4590   2.003   0.691  -0.004  0.5498  0.9069 -1.2591
 1528TIP3    H2 4591   2.027   0.740   0.137 -0.9563 -2.0595  0.1127
 1529TIP3   OH2 4592   1.560   0.993   3.816 -0.3614  0.1830  0.2081
 1529TIP3    H1 4593   1.563   0.933   3.742  0.4980 -0.7719  0.9844
 1529TIP3    H2 4594   1.515   0.944   3.885  0.7362  0.2315  0.9943
 1530TIP3   OH2 4595   4.221   1.646   1.696  0.0303 -0.1158 -0.1236
 1530TIP3    H1 4596   4.134   1.652   1.736 -0.0318 -2.0990  0.1454
 1530TIP3    H2 4597   4.231   1.553   1.676  1.6880  0.2435 -1.0967
 1531TIP3   OH2 4598   4.616   0.307   3.970  0.4527 -0.9067 -0.4635
 1531TIP3    H1 4599   4.635   0.328   3.878 -0.9690 -0.4881 -0.6868
 1531TIP3    H2 4600   4.531   0.263   3.967  0.0903 -0.3231  0.7092
 1532TIP3   OH2 4601   3.930   0.365   3.200  0.4377  0.1459  0.2674
 1532TIP3    H1 4602   3.998   0.427   3.224 -1.3442  1.1903  3.1956
 1532TIP3    H2 4603   3.863   0.419   3.156  0.6814 -0.5297 -0.9724
 1533TIP3   OH2 4604   1.228   3.918   0.594  0.2718 -0.5124  0.3743
 1533TIP3    H1 4605   1.321   3.938   0.584 -0.2395  1.6380 -0.6511
 1533TIP3    H2 4606   1.194   3.990   0.647 -0.9640 -0.7621 -0.0604
 1534TIP3   OH2 4607   3.900   5.231   3.364  0.8558  0.1946  1.2180
 1534TIP3    H1 4608   3.926   5.320   3.339  1.1931  0.1587  1.4362
 1534TIP3    H2 4609   3.853   5.241   3.446  1.5398  0.0933  1.6239
 1535TIP3   OH2 4610   4.893   2.849   4.564  0.0173 -0.4415 -0.0815
 1535TIP3    H1 4611   4.834   2.913   4.603 -0.0081 -0.4241 -0.1492
 1535TIP3    H2 4612   4.929   2.800   4.639  0.2740 -0.1413 -0.0087
 1536TIP3   OH2 4613   3.680   0.066   1.345 -0.1999  0.6151  0.3174
 1536TIP3    H1 4614   3.691   0.065   1.441 -0.2396  0.3656  0.3195
 1536TIP3    H2 4615   3.764   0.096   1.312  0.2519 -0.5566  0.3685
 1537TIP3   OH2 4616   3.752   0.125   0.897  0.0338 -0.0633 -0.7199
 1537TIP3    H1 4617   3.713   0.192   0.955  0.4541  0.8335 -1.4449
 1537TIP3    H2 4618   3.685   0.058   0.890 -1.6195  1.6351 -2.2803
 1538TIP3   OH2 4619   4.227   3.436   2.891  0.4741  0.1579  0.4474
 1538TIP3    H1 4620   4.241   3.342   2.892  0.9849  0.2195  2.0103
 1538TIP3    H2 4621   4.146   3.449   2.939  1.4371  0.6139  2.0303
 1539TIP3   OH2 4622   1.579   0.494   1.131 -0.0204  0.2173 -0.0773
 1539TIP3    H1 4623   1.533   0.414   1.156 -1.2433  0.1889 -2.1651
 1539TIP3    H2 4624   1.514   0.564   1.143 -0.0667  0.4227 -1.3677
 1540TIP3   OH2 4625   0.858   0.331   1.842  0.0353 -0.1371 -0.2821
 1540TIP3    H1 4626   0.911   0.410   1.852 -0.0393 -0.3559  2.9226
 1540TIP3    H2 4627   0.788   0.340   1.907 -0.9556 -2.1076 -0.9678
 1541TIP3   OH2 4628   4.221   5.235   3.662  0.5090 -0.3107  0.3773
 1541TIP3    H1 4629   4.282   5.294   3.618 -0.5221 -0.6231 -1.5560
 1541TIP3    H2 4630   4.185   5.181   3.592 -2.3940  0.2282  1.3411
 1542TIP3   OH2 4631   5.006   3.984   2.517  0.2788  0.6068 -0.0278
 1542TIP3    H1 4632   5.083   4.036   2.542  1.1090 -0.7499  0.3236
 1542TIP3    H2 4633   4.934   4.022   2.567  1.1923  0.3946  1.5064
 1543TIP3   OH2 4634   3.572   5.646   3.108  0.0398  0.6494 -0.3506
 1543TIP3    H1 4635   3.541   5.561   3.139 -1.1379  1.0031 -0.5063
 1543TIP3    H2 4636   3.528   5.710   3.164  0.9474  1.1674 -0.2097
 1544TIP3   OH2 4637   5.366   3.053   3.565 -0.3310 -0.5465 -0.6749
 1544TIP3    H1 4638   5.404   2.992   3.628  0.0674 -0.2392 -0.6151
 1544TIP3    H2 4639   5.440   3.104   3.533 -0.8712  0.9575  0.4146
 1545TIP3   OH2 4640   5.085   0.504   3.990  0.6735  0.4973  0.2032
 1545TIP3    H1 4641   5.080   0.541   3.902 -1.0899  0.7084  0.3573
 1545TIP3    H2 4642   5.109   0.412   3.975 -0.4172  0.3164 -0.5680
 1546TIP3   OH2 4643   1.485   1.309   4.691  0.0132 -0.5156 -0.7470
 1546TIP3    H1 4644   1.454   1.224   4.659 -0.1784 -1.0536  0.8085
 1546TIP3    H2 4645   1.523   1.291   4.777  0.2344  0.9285 -0.5089
 1547TIP3   OH2 4646   3.399   2.069   1.573  0.0405 -0.5625 -0.0504
 1547TIP3    H1 4647   3.446   2.108   1.646 -3.4448 -1.0029  2.6899
 1547TIP3    H2 4648   3.389   2.141   1.510  1.5447  0.3388  0.6634
 1548TIP3   OH2 4649   4.094   3.978   0.065 -0.2286 -0.2754  0.0658
 1548TIP3    H1 4650   4.041   4.028   0.003 -0.9014 -2.7910 -1.5765
 1548TIP3    H2 4651   4.030   3.932   0.119  0.0978 -3.2575 -1.8566
 1549TIP3   OH2 4652   5.208   3.982   1.204  0.0230 -0.6903 -0.2309
 1549TIP3    H1 4653   5.155   3.909   1.173 -2.0334  0.1856  0.9685
 1549TIP3    H2 4654   5.177   4.057   1.153  0.3792 -0.2279  0.2286
 1550TIP3   OH2 4655   5.046   1.655   3.843  0.2371 -0.2220  0.5647
 1550TIP3    H1 4656   5.098   1.735   3.834  1.4150 -0.9107  1.0416
 1550TIP3    H2 4657   5.006   1.663   3.930  0.0014  0.0392  0.4351
 1551TIP3   OH2 4658   1.165   0.145   2.230 -0.0327 -0.3461 -0.3554
 1551TIP3    H1 4659   1.214   0.083   2.176  0.4198 -0.6931  0.4223
 1551TIP3    H2 4660   1.088   0.167   2.178  0.7919 -0.0295 -1.4861
 1552TIP3   OH2 4661   2.267   1.392   2.111  0.2761 -0.1272 -0.0907
 1552TIP3    H1 4662   2.204   1.326   2.138  0.3766  0.5601  2.0577
 1552TIP3    H2 4663   2.214   1.472   2.100  0.4731 -0.0244 -0.2856
 1553TIP3   OH2 4664   0.069   5.937   0.141  0.1502 -0.2143  0.1912
 1553TIP3    H1 4665   0.161   5.946   0.117 -0.2995  0.7413 -1.2717
 1553TIP3    H2 4666   0.049   5.845   0.128  0.4347 -0.0863 -1.3372
 1554TIP3   OH2 4667   5.244   3.109   1.299  0.4592 -0.1197 -0.1343
 1554TIP3    H1 4668   5.207   3.090   1.385  1.1490  1.6197  0.5888
 1554TIP3    H2 4669   5.190   3.180   1.264 -0.3752 -1.3799 -1.5749
 1555TIP3   OH2 4670   4.708   1.084   0.990 -0.1535  0.4978 -0.6727
 1555TIP3    H1 4671   4.778   1.137   1.028 -0.3145 -0.0229  0.3947
 1555TIP3    H2 4672   4.747   0.997   0.979 -1.4031 -0.7261  2.9125
 1556TIP3   OH2 4673   4.206   5.714   1.172  0.0032 -0.2893  0.4342
 1556TIP3    H1 4674   4.164   5.633   1.202 -0.0920 -0.5601 -0.3954
 1556TIP3    H2 4675   4.300   5.695   1.178  0.0147 -1.3267 -1.8752
 1557TIP3   OH2 4676   0.960   4.050   2.175  0.2029  0.2922 -0.1673
 1557TIP3    H1 4677   1.036   4.095   2.138 -0.1877  0.6179 -0.5817
 1557TIP3    H2 4678   0.981   3.957   2.167  0.3410  0.3707 -0.7408
 1558TIP3   OH2 4679   1.513   3.883   0.100 -0.2461  0.3992 -0.3371
 1558TIP3    H1 4680   1.498   3.907   0.008  0.6712 -1.7523 -1.1041
 1558TIP3    H2 4681   1.598   3.839   0.100  0.2947  1.3011  1.7606
 1559TIP3   OH2 4682   4.033   0.906   4.241  0.3932  0.5689 -0.4342
 1559TIP3    H1 4683   4.009   0.929   4.151 -1.5956  0.6468  0.0696
 1559TIP3    H2 4684   3.990   0.972   4.295 -1.4895 -1.4721  0.7377
 1560TIP3   OH2 4685   3.579   3.219   1.382 -0.5697 -0.3064  0.0620
 1560TIP3    H1 4686   3.630   3.282   1.332 -1.0141  1.0621  1.2420
 1560TIP3    H2 4687   3.518   3.273   1.433 -0.9517 -1.6970  1.1468
 1561TIP3   OH2 4688   1.033   1.957   3.191  0.4027 -0.0284  0.2702
 1561TIP3    H1 4689   1.040   2.043   3.231  1.4595 -0.1124  0.3110
 1561TIP3    H2 4690   0.955   1.961   3.136 -0.5397  0.3907  1.5975
 1562TIP3   OH2 4691   0.693   4.721   2.878  0.4716  0.3474 -0.8364
 1562TIP3    H1 4692   0.781   4.690   2.857  0.9972 -0.1119  1.7492
 1562TIP3    H2 4693   0.636   4.648   2.857  1.2361 -0.9602  1.3507
 1563TIP3   OH2 4694   0.539   5.466   2.697 -0.1977  0.1920  0.2446
 1563TIP3    H1 4695   0.609   5.498   2.754  0.4713 -0.6835 -0.0686
 1563TIP3    H2 4696   0.539   5.526   2.623 -0.0832  0.4614  0.4606
 1564TIP3   OH2 4697   1.232   3.534   2.491  0.0093 -0.3792  0.1211
 1564TIP3    H1 4698   1.152   3.526   2.439  0.7229 -1.3434 -0.8761
 1564TIP3    H2 4699   1.237   3.452   2.540 -0.6062  0.4846  1.6844
 1565TIP3   OH2 4700   4.724   2.922   1.965 -0.3303 -0.3828  0.1792
 1565TIP3    H1 4701   4.814   2.947   1.947 -0.4552 -1.0568 -1.5639
 1565TIP3    H2 4702   4.685   3.000   2.006  1.3087 -0.4854  2.0787
 1566TIP3   OH2 4703   1.731   1.656   1.913 -0.4415  0.0936  0.1154
 1566TIP3    H1 4704   1.707   1.716   1.842  0.5621  1.8886  1.2264
 1566TIP3    H2 4705   1.813   1.617   1.886  0.6588  1.8145  0.8261
 1567TIP3   OH2 4706   0.043   3.985   2.089  0.1326  0.1610 -0.0620
 1567TIP3    H1 4707   0.041   4.056   2.154  0.1339 -0.0598  0.1794
 1567TIP3    H2 4708   0.103   4.017   2.021 -1.3941  1.2710 -0.9793
 1568TIP3   OH2 4709   1.720   2.547   0.563  0.1525 -0.1564 -0.0263
 1568TIP3    H1 4710   1.697   2.623   0.616  2.6852  0.9227 -0.3208
 1568TIP3    H2 4711   1.767   2.489   0.622  2.0913  0.5894 -0.7427
 1569TIP3   OH2 4712   2.869   2.039   1.489 -0.5997  0.3923 -0.5786
 1569TIP3    H1 4713   2.843   2.081   1.571 -0.5244  0.5818 -0.6511
 1569TIP3    H2 4714   2.933   1.973   1.515  0.5813  1.4763 -0.6278
 1570TIP3   OH2 4715   1.775   1.988   0.193 -0.4288  0.0200 -0.2034
 1570TIP3    H1 4716   1.846   2.015   0.135  0.0141 -0.4656  0.1016
 1570TIP3    H2 4717   1.696   2.008   0.145 -0.0652 -0.3736 -0.9779
 1571TIP3   OH2 4718   5.681   1.508   1.389  0.5324 -0.0781  0.2236
 1571TIP3    H1 4719   5.658   1.422   1.426  0.3950 -0.7937 -1.4178
 1571TIP3    H2 4720   5.641   1.507   1.302 -1.0851  2.4207  0.8481
 1572TIP3   OH2 4721   5.407   0.797   0.879 -0.3082 -0.2697  0.3884
 1572TIP3    H1 4722   5.427   0.752   0.797 -0.1188 -1.3673  1.0260
 1572TIP3    H2 4723   5.479   0.860   0.889 -0.5585  0.1869 -0.4843
 1573TIP3   OH2 4724   4.424   5.344   3.502 -0.0866 -0.6342 -0.0861
 1573TIP3    H1 4725   4.453   5.432   3.526  0.5052 -0.9749  0.4591
 1573TIP3    H2 4726   4.424   5.345   3.406  0.6218 -0.2672 -0.0879
 1574TIP3   OH2 4727   2.590   4.096   0.225  0.3915 -0.3966 -0.4694
 1574TIP3    H1 4728   2.673   4.051   0.213  0.8675  0.1489  0.6251
 1574TIP3    H2 4729   2.611   4.189   0.217 -0.0759 -0.2455 -0.0632
 1575TIP3   OH2 4730   5.494   3.041   3.142  0.1144 -0.4564 -0.2874
 1575TIP3    H1 4731   5.552   3.098   3.093  1.2254 -1.4955 -0.2349
 1575TIP3    H2 4732   5.472   3.091   3.221 -0.8532  0.8104 -1.3209
 1576TIP3   OH2 4733   3.229   4.676   2.451  1.0503 -0.4596 -0.2332
 1576TIP3    H1 4734   3.322   4.655   2.443  2.0941  3.3909 -0.1637
 1576TIP3    H2 4735   3.217   4.702   2.542 -0.0018 -0.4735 -0.3466
 1577TIP3   OH2 4736   4.818   4.283   4.026  0.3907  0.3181  0.0050
 1577TIP3    H1 4737   4.745   4.221   4.020  0.8404 -0.4096  1.5998
 1577TIP3    H2 4738   4.883   4.238   4.080  1.4939  1.4658 -0.3274
 1578TIP3   OH2 4739   2.271   3.659   3.047 -0.3987  0.1874  0.0890
 1578TIP3    H1 4740   2.184   3.642   3.084  0.0509 -0.2295  0.9970
 1578TIP3    H2 4741   2.296   3.744   3.082 -0.0848 -0.0838  0.5283
 1579TIP3   OH2 4742   4.059   0.048   4.905 -0.1715 -0.0168  0.3454
 1579TIP3    H1 4743   4.145   0.036   4.943  0.2173  0.6776 -0.2793
 1579TIP3    H2 4744   4.000  -0.003   4.961  0.5062  0.2283  1.2984
 1580TIP3   OH2 4745   4.465   0.802   1.670 -0.0376 -0.2188  0.3465
 1580TIP3    H1 4746   4.376   0.787   1.637 -1.0028 -0.3787  2.7573
 1580TIP3    H2 4747   4.472   0.897   1.679  0.0160 -0.2067  0.1650
 1581TIP3   OH2 4748   4.552   1.578   1.815 -0.3230  0.1692  0.3091
 1581TIP3    H1 4749   4.583   1.582   1.905 -3.7430 -1.5134  1.7601
 1581TIP3    H2 4750   4.515   1.665   1.798 -2.4923 -0.3895  1.7992
 1582TIP3   OH2 4751   2.304   4.183   4.717  0.0086  0.0880  0.1867
 1582TIP3    H1 4752   2.227   4.129   4.701 -1.3221  2.4849 -2.4430
 1582TIP3    H2 4753   2.368   4.154   4.652  0.3456 -0.1170  0.6004
 1583TIP3   OH2 4754   4.010   4.843   2.102  0.2023  0.0972 -0.8194
 1583TIP3    H1 4755   3.932   4.787   2.103 -0.3218  0.7880 -1.7194
 1583TIP3    H2 4756   4.074   4.795   2.154 -1.0248 -0.1878  0.4893
 1584TIP3   OH2 4757   1.317   3.015   3.110 -0.7765  0.6559 -0.1852
 1584TIP3    H1 4758   1.286   2.932   3.145  0.7439  0.0553 -0.2142
 1584TIP3    H2 4759   1.251   3.079   3.138 -0.5199 -0.0713  2.3086
 1585TIP3   OH2 4760   3.294   5.830   0.678 -0.3546  0.0107  0.0652
 1585TIP3    H1 4761   3.306   5.772   0.603 -1.1199 -1.1404  0.7984
 1585TIP3    H2 4762   3.378   5.873   0.688  0.2278 -0.9370 -0.5464
 1586TIP3   OH2 4763   3.266   0.095   0.398 -0.1108  0.2639  0.4959
 1586TIP3    H1 4764   3.276   0.004   0.369 -0.3548 -0.0149  1.2793
 1586TIP3    H2 4765   3.342   0.112   0.453 -0.4858  0.2707  1.0166
 1587TIP3   OH2 4766   4.014   3.800   5.019 -0.7309  0.0904 -0.0172
 1587TIP3    H1 4767   4.005   3.711   4.984  0.5505 -0.0753  0.0269
 1587TIP3    H2 4768   4.104   3.826   4.996 -1.5068  1.9198 -1.2756
 1588TIP3   OH2 4769   4.810   1.446   4.317  1.0149  0.3258  0.1712
 1588TIP3    H1 4770   4.727   1.479   4.352  0.1133 -0.5642 -1.0663
 1588TIP3    H2 4771   4.876   1.505   4.355 -0.1649  1.1212  1.0958
 1589TIP3   OH2 4772   0.632   0.767   1.177 -0.1297 -0.3087  0.0215
 1589TIP3    H1 4773   0.665   0.682   1.148  0.9055  0.4332 -1.0919
 1589TIP3    H2 4774   0.693   0.794   1.245 -2.2163 -1.7787  2.6310
 1590TIP3   OH2 4775   0.456   2.113   1.794  0.2678 -0.4785 -0.1485
 1590TIP3    H1 4776   0.426   2.195   1.834  0.0459 -0.5317 -0.2060
 1590TIP3    H2 4777   0.495   2.064   1.866  0.3647 -0.3387 -0.1061
 1591TIP3   OH2 4778   4.973   5.312   4.474  0.2279 -0.8843  0.1655
 1591TIP3    H1 4779   4.935   5.392   4.510 -0.1464 -1.4222  0.9901
 1591TIP3    H2 4780   5.063   5.311   4.508  1.1805  0.5459 -2.0306
 1592TIP3   OH2 4781   4.399   2.750   4.777 -0.3533  0.3005 -0.2985
 1592TIP3    H1 4782   4.491   2.746   4.803  0.1910 -1.2374 -2.2639
 1592TIP3    H2 4783   4.401   2.772   4.684 -2.1432  3.2831  0.2125
 1593TIP3   OH2 4784   3.370   5.126   3.139  0.5405  0.5541  0.6317
 1593TIP3    H1 4785   3.321   5.117   3.221 -1.0912  1.4916 -0.1770
 1593TIP3    H2 4786   3.419   5.045   3.131 -1.4594 -0.7703  1.1730
 1594TIP3   OH2 4787   1.502   5.688   1.144 -0.1325 -0.5190 -0.3084
 1594TIP3    H1 4788   1.425   5.656   1.096 -0.8022  0.0265  0.3780
 1594TIP3    H2 4789   1.466   5.742   1.214  0.9565  1.8186 -1.4468
 1595TIP3   OH2 4790   5.706   0.501   4.728 -0.1007  0.0237  1.2153
 1595TIP3    H1 4791   5.679   0.451   4.804  0.4430  0.3193  1.6107
 1595TIP3    H2 4792   5.667   0.588   4.740  0.0250  0.0857  1.1787
 1596TIP3   OH2 4793   2.252   4.171   3.811  0.1570 -0.1251  0.8060
 1596TIP3    H1 4794   2.332   4.214   3.783  1.1120 -1.6210  1.1542
 1596TIP3    H2 4795   2.264   4.155   3.905 -0.6540 -0.1780  0.9134
 1597TIP3   OH2 4796   1.597   2.106   4.006 -0.2860 -0.1100  0.2759
 1597TIP3    H1 4797   1.585   2.186   3.955 -2.3702 -0.2952  0.3874
 1597TIP3    H2 4798   1.641   2.135   4.086 -0.5066  0.8323  0.0696
 1598TIP3   OH2 4799   3.318   2.924   1.790 -0.4095  0.4214 -0.7197
 1598TIP3    H1 4800   3.318   2.954   1.699 -1.0372  2.9045  0.0199
 1598TIP3    H2 4801   3.313   3.004   1.842  0.3716 -0.8899  1.5474
 1599TIP3   OH2 4802   5.286   4.044   4.018 -0.3403 -0.4635 -0.0993
 1599TIP3    H1 4803   5.252   4.044   4.108 -0.0212 -1.5745  0.0346
 1599TIP3    H2 4804   5.267   3.956   3.985 -2.0470  0.4349 -1.7576
 1600TIP3   OH2 4805   6.316   2.281   2.114 -0.4440 -0.0912 -0.7999
 1600TIP3    H1 4806   6.243   2.328   2.151  0.0796  0.6843 -0.7308
 1600TIP3    H2 4807   6.365   2.346   2.064  1.2204 -0.1371  0.6434
 1601TIP3   OH2 4808   0.997   2.087   1.089  0.5982  0.0390  0.0103
 1601TIP3    H1 4809   1.011   2.093   1.184  0.8742 -1.7511  0.1160
 1601TIP3    H2 4810   1.083   2.104   1.050  0.3782  1.2826  0.0384
 1602TIP3   OH2 4811   3.960   4.533   4.345 -0.0755  0.2929  0.0014
 1602TIP3    H1 4812   4.021   4.565   4.278  0.0521 -1.3594 -0.7212
 1602TIP3    H2 4813   3.991   4.571   4.427 -0.0588  2.1377 -0.8112
 1603TIP3   OH2 4814   1.129   4.431   2.325 -0.3621 -0.1557 -0.1729
 1603TIP3    H1 4815   1.053   4.373   2.316 -1.4514  1.2017 -0.0145
 1603TIP3    H2 4816   1.105   4.509   2.275  0.4339  0.7611  0.8528
 1604TIP3   OH2 4817   4.789   3.235   4.423  0.0384 -0.3247  0.4900
 1604TIP3    H1 4818   4.712   3.207   4.472 -0.0687 -0.3179  0.3222
 1604TIP3    H2 4819   4.812   3.320   4.461  1.5876 -1.5069  2.4591
 1605TIP3   OH2 4820   4.121   1.599   4.563 -0.6532 -0.2622 -0.2304
 1605TIP3    H1 4821   4.053   1.643   4.511 -0.0223  2.0832  0.7997
 1605TIP3    H2 4822   4.073   1.557   4.634 -1.0620  2.2728  1.1089
 1606TIP3   OH2 4823   4.406   0.121   0.282  0.7053 -0.0506 -0.2038
 1606TIP3    H1 4824   4.474   0.063   0.249  1.5335  0.3572  0.7408
 1606TIP3    H2 4825   4.349   0.063   0.333  2.2230  0.0980  1.7913
 1607TIP3   OH2 4826   2.531   2.916   3.043  0.3573 -0.3993 -0.2917
 1607TIP3    H1 4827   2.436   2.906   3.040  0.3960 -1.2438  0.5962
 1607TIP3    H2 4828   2.547   3.003   3.008 -0.9295  0.6567  1.5763
 1608TIP3   OH2 4829   4.016   2.788   2.653 -0.0550  0.5795 -0.1646
 1608TIP3    H1 4830   4.091   2.846   2.660 -1.3469  2.5361 -1.4057
 1608TIP3    H2 4831   3.975   2.791   2.740  0.4818  0.6596  0.0895
 1609TIP3   OH2 4832   5.728   2.405   0.691  0.1699  0.3252 -0.0082
 1609TIP3    H1 4833   5.744   2.469   0.760  2.5426  0.3508 -0.5272
 1609TIP3    H2 4834   5.663   2.345   0.729 -0.3491  1.6794  1.3287
 1610TIP3   OH2 4835   2.774   0.482   3.445  0.2106  0.0432  0.2150
 1610TIP3    H1 4836   2.825   0.475   3.526 -0.3636  2.2391  0.8181
 1610TIP3    H2 4837   2.816   0.553   3.396  0.9145 -1.6283 -1.7616
 1611TIP3   OH2 4838   4.332   3.265   0.424 -0.3628 -0.6091 -0.7612
 1611TIP3    H1 4839   4.390   3.210   0.371 -0.9926  0.6958 -2.9392
 1611TIP3    H2 4840   4.353   3.355   0.397  0.1760  0.2558  2.2045
 1612TIP3   OH2 4841   0.694   1.036   3.998 -0.2567  0.4102 -1.0697
 1612TIP3    H1 4842   0.619   1.095   4.009  1.1396  1.9224  1.2507
 1612TIP3    H2 4843   0.769   1.094   3.986  1.0218 -0.8897  0.1816
 1613TIP3   OH2 4844   0.396   1.854   3.868 -0.1845 -0.2484  0.2445
 1613TIP3    H1 4845   0.337   1.781   3.886 -0.5508 -0.1457 -0.4931
 1613TIP3    H2 4846   0.352   1.904   3.799  0.2075  0.4962  0.5226
 1614TIP3   OH2 4847   4.818   1.114   2.427 -0.3993  0.9585 -0.0550
 1614TIP3    H1 4848   4.881   1.111   2.355 -0.5653 -0.9247 -0.1711
 1614TIP3    H2 4849   4.872   1.129   2.505  0.5698 -2.3851  0.1033
 1615TIP3   OH2 4850   2.636   4.236   1.574  0.0093 -0.5048 -0.2289
 1615TIP3    H1 4851   2.676   4.270   1.654  3.0334  0.4573 -1.9896
 1615TIP3    H2 4852   2.552   4.282   1.567 -0.2752 -0.5265  2.2416
 1616TIP3   OH2 4853   3.005   0.097   2.545  0.6146 -0.0920 -0.3130
 1616TIP3    H1 4854   3.016   0.096   2.640  0.0721 -0.9072 -0.2507
 1616TIP3    H2 4855   3.072   0.037   2.513  1.2941  0.7469 -0.5202
 1617TIP3   OH2 4856   3.028   0.618   4.638  0.6416  0.3584 -0.0657
 1617TIP3    H1 4857   2.952   0.655   4.682  0.0992 -2.0979  1.2993
 1617TIP3    H2 4858   3.101   0.639   4.696  0.8332  1.6478 -0.7440
 1618TIP3   OH2 4859   2.457   4.315   4.898  0.2250 -0.1063  0.3863
 1618TIP3    H1 4860   2.389   4.266   4.853  0.2897  0.4435 -0.3415
 1618TIP3    H2 4861   2.453   4.402   4.859  0.7510  0.1880  0.9690
 1619TIP3   OH2 4862   3.623   0.819   1.505 -0.1584  0.1409 -0.6334
 1619TIP3    H1 4863   3.602   0.901   1.461  1.4132  1.5457  1.0921
 1619TIP3    H2 4864   3.714   0.828   1.532 -0.6292 -1.1367  1.7268
 1620TIP3   OH2 4865   3.416   1.331   0.935 -0.0499 -0.2598 -0.0768
 1620TIP3    H1 4866   3.460   1.397   0.989  1.4253 -1.1456 -0.1577
 1620TIP3    H2 4867   3.353   1.381   0.883 -1.9746  0.5722  2.8425
 1621TIP3   OH2 4868   1.517   5.738   3.993 -0.1342 -0.2285 -0.4992
 1621TIP3    H1 4869   1.545   5.647   3.990  0.0433 -0.1644 -0.9679
 1621TIP3    H2 4870   1.439   5.740   3.937 -0.7811 -0.3067  0.3847
 1622TIP3   OH2 4871   1.637   3.544   3.954  0.0388  0.5994 -0.4884
 1622TIP3    H1 4872   1.647   3.470   4.015  0.3673 -0.9659 -2.3350
 1622TIP3    H2 4873   1.543   3.562   3.954 -0.0313  0.2637  0.0653
 1623TIP3   OH2 4874   4.715   2.808   0.517  0.1064 -0.2035  0.0445
 1623TIP3    H1 4875   4.788   2.763   0.561  0.3803  0.3794  0.1871
 1623TIP3    H2 4876   4.660   2.839   0.589  0.5795  0.7957 -0.0068
 1624TIP3   OH2 4877   0.519   4.061   3.482 -0.1469 -0.1792 -0.7984
 1624TIP3    H1 4878   0.523   4.056   3.386 -0.1727  0.4100 -0.8313
 1624TIP3    H2 4879   0.549   4.150   3.503  0.7904 -0.6153 -0.2027
 1625TIP3   OH2 4880   5.675   4.376   4.715  0.1608 -0.3468 -0.2013
 1625TIP3    H1 4881   5.751   4.366   4.659 -0.3217 -0.7686 -0.7979
 1625TIP3    H2 4882   5.671   4.469   4.734  1.6955 -0.5097  1.0928
 1626TIP3   OH2 4883   4.668   0.073   4.113 -0.2598  0.0017 -0.4077
 1626TIP3    H1 4884   4.715   0.128   4.050  0.3783 -0.2293 -0.1452
 1626TIP3    H2 4885   4.609   0.134   4.158  0.0150  0.3623 -0.5271
 1627TIP3   OH2 4886   4.334   0.173   2.329 -0.4246 -0.3743 -0.1739
 1627TIP3    H1 4887   4.312   0.218   2.410 -1.1091 -1.8032  0.4656
 1627TIP3    H2 4888   4.430   0.173   2.327 -0.4014  1.1689 -0.2636
 1628TIP3   OH2 4889   4.783   4.742   4.857 -0.3767  0.5553 -0.1919
 1628TIP3    H1 4890   4.689   4.725   4.868 -0.3733  0.6055 -0.0815
 1628TIP3    H2 4891   4.798   4.824   4.904 -0.5417  1.2801 -1.3649
 1629TIP3   OH2 4892   0.112   2.985   1.036 -0.2742  0.6978 -0.4593
 1629TIP3    H1 4893   0.061   2.912   1.001  1.8504 -1.3927  0.5329
 1629TIP3    H2 4894   0.071   3.005   1.120 -0.8616  0.6411 -0.7317
 1630TIP3   OH2 4895   4.571   5.178   1.458  0.3370  0.3409  0.3651
 1630TIP3    H1 4896   4.663   5.153   1.442  1.1159  1.9866  1.9061
 1630TIP3    H2 4897   4.576   5.244   1.527 -2.0031  0.8335  0.1395
 1631TIP3   OH2 4898   0.386   4.911   1.060 -0.1048  0.1997  0.3520
 1631TIP3    H1 4899   0.368   4.819   1.082  0.1104  0.4287  1.5283
 1631TIP3    H2 4900   0.387   4.956   1.144 -2.5285  1.7233 -0.3510
 1632TIP3   OH2 4901   4.710   4.487   0.970 -0.7038 -0.5458  0.3187
 1632TIP3    H1 4902   4.713   4.479   0.874 -0.8872  2.1035  0.0091
 1632TIP3    H2 4903   4.801   4.485   0.997 -0.6402 -1.1593  0.0632
 1633TIP3   OH2 4904   5.459   2.714   0.427  0.4126 -0.3559  0.2917
 1633TIP3    H1 4905   5.519   2.779   0.463  0.7076 -0.3153 -0.2466
 1633TIP3    H2 4906   5.409   2.682   0.502  3.0174 -2.4385  1.3192
 1634TIP3   OH2 4907   5.905   3.235   1.470 -1.2504 -0.0126 -0.0310
 1634TIP3    H1 4908   5.979   3.259   1.526 -0.0679  1.1832 -1.9825
 1634TIP3    H2 4909   5.828   3.263   1.520 -0.4751 -1.6409  2.2165
 1635TIP3   OH2 4910   5.091   4.568   1.299  0.4966 -0.4227 -0.7478
 1635TIP3    H1 4911   5.156   4.611   1.244 -0.0117  1.5182  0.0970
 1635TIP3    H2 4912   5.070   4.632   1.366 -0.4437 -1.9555  0.4886
 1636TIP3   OH2 4913   5.237   0.664   0.684  0.1547 -0.6877  0.1097
 1636TIP3    H1 4914   5.295   0.740   0.671 -1.2471  0.0323 -2.8288
 1636TIP3    H2 4915   5.180   0.690   0.756  1.9961 -0.5297  1.5962
 1637TIP3   OH2 4916   2.088   2.214   0.486 -0.0990  0.2547 -0.3167
 1637TIP3    H1 4917   2.004   2.168   0.477 -1.4287  2.1353  1.4720
 1637TIP3    H2 4918   2.111   2.239   0.397 -0.4403 -1.9194 -1.0607
 1638TIP3   OH2 4919   2.913   3.875   0.996 -0.2236 -0.2811 -0.1283
 1638TIP3    H1 4920   2.975   3.811   1.033 -0.2051 -0.1631  0.0425
 1638TIP3    H2 4921   2.829   3.853   1.036 -0.6635 -1.5488 -1.6479
 1639TIP3   OH2 4922   0.852   5.753   3.073  0.1593 -0.2243 -0.2575
 1639TIP3    H1 4923   0.782   5.773   3.134 -1.9856  0.8078 -2.8744
 1639TIP3    H2 4924   0.886   5.668   3.103  0.0237  0.7254  2.9297
 1640TIP3   OH2 4925   1.626   0.971   5.102  0.2727  0.2995 -0.1055
 1640TIP3    H1 4926   1.572   1.035   5.149  1.5774  1.3232  0.0577
 1640TIP3    H2 4927   1.706   1.018   5.081  0.6569 -0.8357 -1.3603
 1641TIP3   OH2 4928   4.408   1.342   1.984  0.1960 -0.7550 -0.1093
 1641TIP3    H1 4929   4.447   1.412   1.932  2.7960 -0.3581  2.1002
 1641TIP3    H2 4930   4.347   1.386   2.043  1.2076 -0.4070  0.7084
 1642TIP3   OH2 4931   0.893   1.622   0.306  0.6142 -0.3330 -0.0368
 1642TIP3    H1 4932   0.882   1.535   0.344 -0.2360 -1.1610 -2.0533
 1642TIP3    H2 4933   0.838   1.679   0.361 -0.4180 -1.4366  0.1132
 1643TIP3   OH2 4934   2.944   2.115   0.956 -0.0152  0.0262  0.2371
 1643TIP3    H1 4935   3.022   2.112   1.011  0.1869 -1.4336 -0.0954
 1643TIP3    H2 4936   2.976   2.105   0.867 -0.5912 -0.6449  0.0981
 1644TIP3   OH2 4937   0.659   0.648   4.667  0.1742 -0.2886  0.0875
 1644TIP3    H1 4938   0.748   0.614   4.670  0.2753 -0.0422 -0.0733
 1644TIP3    H2 4939   0.659   0.708   4.593 -0.0014  0.0504  0.3572
 1645TIP3   OH2 4940   4.851   1.310   3.036 -0.0887  0.3752 -0.2307
 1645TIP3    H1 4941   4.875   1.218   3.033  0.2044  0.4600 -0.4821
 1645TIP3    H2 4942   4.896   1.344   3.113 -0.0819  0.3435 -0.2208
 1646TIP3   OH2 4943   2.215   0.945  -0.017 -0.2641  0.0496 -0.0422
 1646TIP3    H1 4944   2.170   0.864   0.009  0.9960 -0.6546  0.0344
 1646TIP3    H2 4945   2.266   0.970   0.060  0.8160 -0.1510 -0.6581
 1647TIP3   OH2 4946   2.911   2.072   3.649  0.4253 -0.3400  0.3706
 1647TIP3    H1 4947   2.851   2.062   3.575  1.5732  0.7518 -0.7564
 1647TIP3    H2 4948   2.887   2.156   3.689  0.0408 -0.7581  1.0486
 1648TIP3   OH2 4949   2.242   2.214   1.368  0.4193 -0.2015  0.2238
 1648TIP3    H1 4950   2.304   2.168   1.312  1.7184 -0.3413  1.7177
 1648TIP3    H2 4951   2.174   2.149   1.388 -0.0850 -0.1291 -1.1885
 1649TIP3   OH2 4952   1.658   4.746   3.242  0.0136  0.5971  0.2835
 1649TIP3    H1 4953   1.719   4.820   3.233  0.7262  0.3216  2.2952
 1649TIP3    H2 4954   1.573   4.787   3.256 -0.2704  0.9882 -2.0971
 1650TIP3   OH2 4955   5.062   2.104   3.461 -0.3917 -0.1604 -0.2641
 1650TIP3    H1 4956   4.981   2.071   3.424 -0.9133  0.1956  0.5393
 1650TIP3    H2 4957   5.123   2.030   3.455 -1.3760 -1.1171  1.0164
 1651TIP3   OH2 4958   3.864   3.489   0.210  0.0542 -0.3929 -0.5410
 1651TIP3    H1 4959   3.887   3.575   0.245  2.5028 -0.8860 -0.7850
 1651TIP3    H2 4960   3.845   3.505   0.118 -0.7410  0.0578 -0.3054
 1652TIP3   OH2 4961   2.268   0.526   1.725 -0.0143  0.1014  0.2624
 1652TIP3    H1 4962   2.213   0.539   1.648  0.2330 -0.7203 -0.0579
 1652TIP3    H2 4963   2.356   0.513   1.690  0.2456  0.5609  0.7296
 1653TIP3   OH2 4964   5.529   4.351   4.490  0.8678  0.0110 -0.1579
 1653TIP3    H1 4965   5.596   4.389   4.433  0.9008  0.0293 -0.1065
 1653TIP3    H2 4966   5.571   4.343   4.576  1.6208 -2.1597 -0.6454
 1654TIP3   OH2 4967   0.790   4.348   0.887 -0.4500 -0.6543 -0.6957
 1654TIP3    H1 4968   0.730   4.316   0.820 -0.2489 -3.3221  0.2543
 1654TIP3    H2 4969   0.874   4.355   0.842 -0.8567  0.1690 -1.3316
 1655TIP3   OH2 4970   1.065   3.770   1.496  0.0830  0.4526 -0.0355
 1655TIP3    H1 4971   1.053   3.818   1.414 -1.3197  0.8992  0.4140
 1655TIP3    H2 4972   0.977   3.742   1.521  0.2613  1.5928  2.0730
 1656TIP3   OH2 4973   6.257   4.028   3.383  0.2792 -0.6801  0.5027
 1656TIP3    H1 4974   6.227   3.942   3.410 -0.4106 -0.2505  1.1524
 1656TIP3    H2 4975   6.221   4.088   3.449 -1.4683  0.4332 -1.3217
 1657TIP3   OH2 4976   0.429   2.370   4.628  0.5691 -0.3239  0.0314
 1657TIP3    H1 4977   0.490   2.353   4.556  0.0389 -1.5115 -0.1593
 1657TIP3    H2 4978   0.480   2.421   4.691  1.4558 -0.4438 -0.5720
 1658TIP3   OH2 4979   5.469   0.845   2.175 -0.0724  0.2037  0.4680
 1658TIP3    H1 4980   5.386   0.823   2.218 -1.3320  1.9205 -0.9408
 1658TIP3    H2 4981   5.504   0.917   2.227 -0.6589  1.0230 -0.2386
 1659TIP3   OH2 4982   4.476   2.949   4.024  0.1382 -0.0242 -0.3087
 1659TIP3    H1 4983   4.499   3.010   4.095 -0.0406 -0.0458 -0.2326
 1659TIP3    H2 4984   4.438   3.004   3.956 -0.4263 -0.1087 -0.0604
 1660TIP3   OH2 4985   1.256   1.444   3.680  0.1476  0.2934 -0.1380
 1660TIP3    H1 4986   1.304   1.508   3.733 -0.3266  0.2741  0.3294
 1660TIP3    H2 4987   1.313   1.367   3.676 -1.0452 -0.9292  3.0412
 1661TIP3   OH2 4988   1.828   0.702   1.513  0.2828  0.4767  0.1419
 1661TIP3    H1 4989   1.912   0.741   1.486 -0.1076  0.3725 -1.3150
 1661TIP3    H2 4990   1.763   0.741   1.455 -0.4546 -0.5901  0.2065
 1662TIP3   OH2 4991   4.751   3.637   2.668 -0.1429 -0.1969  0.2303
 1662TIP3    H1 4992   4.802   3.570   2.622 -0.7467 -0.2840 -0.3276
 1662TIP3    H2 4993   4.667   3.596   2.684  0.0979 -0.2040  1.5338
 1663TIP3   OH2 4994   3.160   3.301   2.973 -0.0658  0.9030 -0.2708
 1663TIP3    H1 4995   3.237   3.260   3.013 -0.2924 -0.5324 -1.2029
 1663TIP3    H2 4996   3.179   3.394   2.973  0.0962  0.9692  2.8243
 1664TIP3   OH2 4997   2.345   5.310   0.455  0.0747 -0.2354 -0.4408
 1664TIP3    H1 4998   2.425   5.260   0.440 -0.2820 -0.6677 -0.9235
 1664TIP3    H2 4999   2.371   5.402   0.441  1.2649 -0.0100  2.5804
 1665TIP3   OH2 5000   4.776   5.518   2.722 -0.3352  0.5329  0.0480
 1665TIP3    H1 5001   4.745   5.608   2.729 -2.6834 -0.1160 -0.8749
 1665TIP3    H2 5002   4.771   5.484   2.812  3.5382  2.0717  1.0404
 1666TIP3   OH2 5003   1.201   0.955   4.817  0.1771 -0.0906 -0.1025
 1666TIP3    H1 5004   1.129   0.938   4.757  0.4767 -0.8784 -0.2508
 1666TIP3    H2 5005   1.177   1.036   4.861  0.0700  0.6451 -1.4703
 1667TIP3   OH2 5006   2.836   3.409   5.117  0.0487 -0.0238  0.2732
 1667TIP3    H1 5007   2.761   3.354   5.142 -2.0958  1.5430 -2.2802
 1667TIP3    H2 5008   2.876   3.363   5.043 -1.1726  1.2401 -1.2471
 1668TIP3   OH2 5009   2.168   2.397   3.063 -1.0707  0.0076  0.7053
 1668TIP3    H1 5010   2.232   2.466   3.044 -0.4605 -0.7845 -0.1566
 1668TIP3    H2 5011   2.086   2.445   3.078 -0.3430  1.0222  1.6343
 1669TIP3   OH2 5012   5.106   2.594   3.136  0.7788 -0.1201  0.1478
 1669TIP3    H1 5013   5.013   2.604   3.113  1.2810  1.2621 -1.5199
 1669TIP3    H2 5014   5.116   2.640   3.219  0.0861  0.2095  0.0530
 1670TIP3   OH2 5015   3.251   5.212   3.379  0.3309 -0.2580 -0.0367
 1670TIP3    H1 5016   3.341   5.242   3.389  0.2225 -0.3152  1.2516
 1670TIP3    H2 5017   3.200   5.272   3.433 -0.6810  0.9470 -2.2100
 1671TIP3   OH2 5018   6.336   1.600   2.132 -0.2905 -0.2820  0.2224
 1671TIP3    H1 5019   6.364   1.510   2.152  0.5545 -0.2130 -0.5994
 1671TIP3    H2 5020   6.240   1.595   2.133 -0.3308 -1.7987 -2.1733
 1672TIP3   OH2 5021   5.987   1.059   0.649  0.2363  0.2799  0.1221
 1672TIP3    H1 5022   5.923   1.100   0.708  1.3844  0.6597  1.1351
 1672TIP3    H2 5023   5.934   1.003   0.592 -0.9797  0.3544  1.1269
 1673TIP3   OH2 5024   5.261   3.373   0.939  0.2468 -0.6422 -0.2525
 1673TIP3    H1 5025   5.257   3.283   0.969  0.9044 -1.9506 -3.6043
 1673TIP3    H2 5026   5.280   3.366   0.845 -1.2447  2.9533 -0.9814
 1674TIP3   OH2 5027   0.826   2.326   4.524 -0.0201 -0.2068  0.5236
 1674TIP3    H1 5028   0.840   2.258   4.590  1.0125  2.1409  2.9158
 1674TIP3    H2 5029   0.912   2.341   4.486  0.2497  1.2134  1.6136
 1675TIP3   OH2 5030   0.616   2.931   3.080 -0.1123 -0.0587 -0.2457
 1675TIP3    H1 5031   0.534   2.891   3.108 -0.2761  0.3179 -0.1883
 1675TIP3    H2 5032   0.599   2.966   2.993 -0.0315  0.0737 -0.2095
 1676TIP3   OH2 5033   2.917   4.600   1.052  0.0374 -0.1622 -0.1926
 1676TIP3    H1 5034   2.839   4.549   1.028  0.1524 -1.1468  1.3651
 1676TIP3    H2 5035   2.938   4.571   1.140  2.5025 -0.3002 -0.7516
 1677TIP3   OH2 5036   2.518   0.450   0.303 -0.1591  0.1610  0.1412
 1677TIP3    H1 5037   2.496   0.370   0.351 -0.7424  0.9573  1.2424
 1677TIP3    H2 5038   2.607   0.435   0.271 -0.6597 -1.3792 -0.6567
 1678TIP3   OH2 5039   4.839   1.941   2.271  0.5757  0.1596  0.3808
 1678TIP3    H1 5040   4.871   1.858   2.307  0.1926 -0.1557  0.0022
 1678TIP3    H2 5041   4.755   1.955   2.316 -0.0900 -0.4287 -0.6440
 1679TIP3   OH2 5042   4.557   5.322   2.256 -0.2437 -0.0024 -0.2722
 1679TIP3    H1 5043   4.559   5.409   2.215  1.4125 -0.2933 -0.8973
 1679TIP3    H2 5044   4.571   5.339   2.349 -2.6929  0.5656  0.0573
 1680TIP3   OH2 5045   0.602   3.505   5.168  0.6197 -0.4371 -0.3088
 1680TIP3    H1 5046   0.587   3.600   5.174  1.7329 -0.3212  0.8568
 1680TIP3    H2 5047   0.692   3.493   5.197 -0.2800 -2.1092  2.0844
 1681TIP3   OH2 5048   4.525   5.012   0.623 -0.7054  0.3060 -0.4443
 1681TIP3    H1 5049   4.596   4.957   0.589 -0.7710 -0.2848  0.3689
 1681TIP3    H2 5050   4.569   5.092   0.652 -0.4205  0.0934 -0.2846
 1682TIP3   OH2 5051   3.743   4.948   0.464 -0.0499  0.0243 -0.3977
 1682TIP3    H1 5052   3.830   4.956   0.425 -0.4129 -0.4924 -1.3318
 1682TIP3    H2 5053   3.689   4.908   0.396 -1.3854  1.6170 -0.3543
 1683TIP3   OH2 5054   3.707   5.403   4.391  0.0911 -0.2899 -0.4086
 1683TIP3    H1 5055   3.722   5.491   4.427 -0.2502 -0.2915 -0.2558
 1683TIP3    H2 5056   3.649   5.417   4.316  1.2834 -0.2239 -1.3388
 1684TIP3   OH2 5057   2.096   0.283   2.262 -0.3540  0.3463 -0.1045
 1684TIP3    H1 5058   2.016   0.300   2.312 -0.3065  1.6352 -0.4361
 1684TIP3    H2 5059   2.116   0.366   2.220  1.0322 -0.0312 -0.2312
 1685TIP3   OH2 5060   4.395   1.120   1.797 -0.2405 -0.0810  0.8329
 1685TIP3    H1 5061   4.319   1.063   1.785 -0.9566  1.1227 -0.6878
 1685TIP3    H2 5062   4.368   1.182   1.865 -0.9634  0.8558 -0.2803
 1686TIP3   OH2 5063   5.459   0.250   3.513  0.0522  1.0878 -0.6815
 1686TIP3    H1 5064   5.377   0.220   3.473  0.0376  0.0326  0.1167
 1686TIP3    H2 5065   5.526   0.225   3.451 -0.0749  0.4225 -0.5583
 1687TIP3   OH2 5066   4.828   5.472   0.497 -0.1797  0.0441 -0.6386
 1687TIP3    H1 5067   4.747   5.425   0.481 -0.8720  0.5355  1.1411
 1687TIP3    H2 5068   4.895   5.405   0.499 -0.8349 -0.6091 -0.2524
 1688TIP3   OH2 5069   4.567   1.436   1.192 -0.5460 -0.5736 -0.2803
 1688TIP3    H1 5070   4.660   1.416   1.188 -0.2713  0.7151 -1.3844
 1688TIP3    H2 5071   4.561   1.510   1.253 -1.0857 -1.7020  1.0802
 1689TIP3   OH2 5072   4.580   3.024   2.873 -0.1981  0.2853 -0.4612
 1689TIP3    H1 5073   4.625   2.973   2.941 -1.0210 -1.4373 -1.1486
 1689TIP3    H2 5074   4.615   3.113   2.883  0.9963 -0.3033  1.0582
 1690TIP3   OH2 5075   5.701   0.099   1.143  0.4286  0.0555  0.1477
 1690TIP3    H1 5076   5.649   0.154   1.201  1.1335  0.1983  0.6606
 1690TIP3    H2 5077   5.642   0.028   1.117 -1.5581  2.5469 -3.0075
 1691TIP3   OH2 5078   0.683   2.269   2.100 -0.1883 -1.0321  0.5509
 1691TIP3    H1 5079   0.732   2.207   2.046 -0.1242 -0.8142  0.3580
 1691TIP3    H2 5080   0.624   2.312   2.039  0.8043  0.1684  0.3860
 1692TIP3   OH2 5081   4.163   5.266   2.908  0.0647 -0.2982 -0.1918
 1692TIP3    H1 5082   4.258   5.254   2.897 -0.0788 -1.6316 -0.1676
 1692TIP3    H2 5083   4.125   5.184   2.877 -0.9195 -0.7301  1.9977
 1693TIP3   OH2 5084   2.771   3.429   3.776  0.0792  0.2704  0.6139
 1693TIP3    H1 5085   2.712   3.378   3.831  0.4475  0.3457  1.0827
 1693TIP3    H2 5086   2.813   3.491   3.836  1.4651 -0.5291  0.5072
 1694TIP3   OH2 5087   0.619   3.709   1.305  0.4704 -0.2391 -0.0369
 1694TIP3    H1 5088   0.606   3.777   1.238  1.4726 -1.0785 -1.1273
 1694TIP3    H2 5089   0.598   3.753   1.387  1.4704  1.5312 -0.6586
 1695TIP3   OH2 5090   2.873   0.476   1.741 -0.0639 -0.3978 -0.3851
 1695TIP3    H1 5091   2.835   0.485   1.654  1.7115  1.9439 -1.0552
 1695TIP3    H2 5092   2.956   0.430   1.726 -0.7232 -1.8871  0.4195
 1696TIP3   OH2 5093   1.056   4.984   3.855 -0.2392 -0.2233 -0.0170
 1696TIP3    H1 5094   1.018   4.897   3.872 -0.1338 -0.4011 -0.6839
 1696TIP3    H2 5095   1.146   4.966   3.830  0.2808  0.1900  1.4205
 1697TIP3   OH2 5096   5.437   3.664   1.202  0.2105 -0.1932  0.0167
 1697TIP3    H1 5097   5.489   3.689   1.278 -0.4843  0.3811  0.3162
 1697TIP3    H2 5098   5.410   3.574   1.219 -0.7575  0.2523  0.9289
 1698TIP3   OH2 5099   5.831   0.691   3.910 -0.5369  0.3193 -0.5149
 1698TIP3    H1 5100   5.798   0.605   3.882  0.5341  0.3588 -1.9396
 1698TIP3    H2 5101   5.884   0.671   3.988 -1.9201 -0.0280  0.3888
 1699TIP3   OH2 5102   3.608   5.351   3.117  0.4129 -0.0832 -0.5854
 1699TIP3    H1 5103   3.632   5.315   3.202  0.6403  1.9699  0.2757
 1699TIP3    H2 5104   3.692   5.361   3.071  0.3201 -0.8873 -0.9503
 1700TIP3   OH2 5105   1.460   3.379   4.390 -0.2716  0.1134 -0.5767
 1700TIP3    H1 5106   1.397   3.319   4.431 -0.0764  0.1087 -0.2790
 1700TIP3    H2 5107   1.517   3.407   4.462 -1.0281  1.5153 -0.5089
 1701TIP3   OH2 5108   3.474   5.549   0.066  0.1735 -0.0727  0.2429
 1701TIP3    H1 5109   3.529   5.573   0.140  1.0556 -0.6421 -0.2150
 1701TIP3    H2 5110   3.530   5.559  -0.011 -0.2591 -0.9699 -0.2038
 1702TIP3   OH2 5111   3.337   3.042   2.694 -0.0583  0.2375  0.4310
 1702TIP3    H1 5112   3.292   2.971   2.740 -1.6577  0.1504 -1.1768
 1702TIP3    H2 5113   3.297   3.122   2.728  0.5669  0.3052  1.0256
 1703TIP3   OH2 5114   1.593   1.452   4.477 -0.1614 -0.5725 -0.2758
 1703TIP3    H1 5115   1.607   1.373   4.423 -0.0022 -0.9139  0.2556
 1703TIP3    H2 5116   1.548   1.419   4.555  2.1617 -0.5983  1.1704
 1704TIP3   OH2 5117   4.138   2.783   0.693 -0.0640  0.4244 -0.2328
 1704TIP3    H1 5118   4.074   2.793   0.622 -0.0684  2.2052 -0.0382
 1704TIP3    H2 5119   4.161   2.873   0.717  0.9887 -0.1570  1.0911
 1705TIP3   OH2 5120   1.386   0.792   5.138 -0.6585  0.5446 -0.0766
 1705TIP3    H1 5121   1.439   0.787   5.218 -1.1776 -0.2740  0.2258
 1705TIP3    H2 5122   1.448   0.817   5.070 -0.1639  1.0244  0.5357
 1706TIP3   OH2 5123   4.138   0.355   3.566  0.1037  0.2463 -0.1780
 1706TIP3    H1 5124   4.078   0.411   3.616  0.3929 -0.1675  0.6610
 1706TIP3    H2 5125   4.081   0.296   3.517 -0.2119 -0.4787  1.0000
 1707TIP3   OH2 5126   6.274   3.516   4.244  0.0003  0.3312 -0.0213
 1707TIP3    H1 5127   6.250   3.584   4.181  1.0745 -0.7657 -1.6893
 1707TIP3    H2 5128   6.194   3.466   4.257 -1.0845  2.3872  1.9764
 1708TIP3   OH2 5129   2.441   2.941   4.864 -0.3908 -0.2257  0.4884
 1708TIP3    H1 5130   2.520   2.975   4.821  0.6398 -0.9694  1.6962
 1708TIP3    H2 5131   2.468   2.855   4.897 -1.0549  0.3630  2.7233
 1709TIP3   OH2 5132   3.997   3.736   0.403 -0.0635  0.6838 -0.5381
 1709TIP3    H1 5133   4.070   3.794   0.427  0.3686  0.7218 -1.8630
 1709TIP3    H2 5134   3.921   3.794   0.399 -0.0885  0.7286  0.3947
 1710TIP3   OH2 5135   3.334   5.897   4.180 -0.1791  0.3263  0.2972
 1710TIP3    H1 5136   3.341   5.891   4.275 -0.9211 -1.0535  0.2876
 1710TIP3    H2 5137   3.293   5.815   4.153  0.9641  0.2247 -1.3240
 1711TIP3   OH2 5138   4.923   2.422   0.861 -0.3086  0.1840  0.0059
 1711TIP3    H1 5139   4.902   2.411   0.954 -1.3227 -0.2244 -0.2626
 1711TIP3    H2 5140   4.845   2.391   0.815  0.7810 -1.1439 -1.0247
 1712TIP3   OH2 5141   1.272   5.892   2.392  0.0936 -0.3514 -0.3097
 1712TIP3    H1 5142   1.241   5.902   2.482 -2.1369 -1.0630 -0.9309
 1712TIP3    H2 5143   1.321   5.810   2.392  1.6038  0.5077  0.5822
 1713TIP3   OH2 5144   1.853   5.648   4.397  0.1295 -0.1652 -0.2062
 1713TIP3    H1 5145   1.816   5.575   4.445  1.8335 -0.2731  1.0540
 1713TIP3    H2 5146   1.893   5.609   4.319  0.5512 -0.5182  0.1825
 1714TIP3   OH2 5147   4.039   5.799   2.115 -0.5229 -0.2244  0.0597
 1714TIP3    H1 5148   4.104   5.854   2.158  0.5138 -0.2092 -1.4477
 1714TIP3    H2 5149   4.043   5.716   2.161  0.8126 -0.3268 -0.2106
 1715TIP3   OH2 5150   2.133   1.777   3.647 -0.0593  0.9409 -0.0854
 1715TIP3    H1 5151   2.065   1.729   3.694  0.2140  0.1661 -0.4654
 1715TIP3    H2 5152   2.209   1.719   3.649 -0.2503  0.5479 -2.0710
 1716TIP3   OH2 5153   4.577   4.055   4.836  0.1591 -0.1222 -0.4703
 1716TIP3    H1 5154   4.605   4.007   4.914 -0.2544  1.5092  0.7368
 1716TIP3    H2 5155   4.656   4.059   4.781  1.0426  0.4510  0.7949
 1717TIP3   OH2 5156   3.109   0.779   0.516 -0.0999 -0.5924 -0.3161
 1717TIP3    H1 5157   3.106   0.804   0.424 -0.2957 -0.7782 -0.3611
 1717TIP3    H2 5158   3.186   0.824   0.551 -1.2090  1.1924 -0.0659
 1718TIP3   OH2 5159   1.968   4.233   1.207 -0.0426 -0.4109 -0.1234
 1718TIP3    H1 5160   2.012   4.313   1.236 -0.9418 -0.3996  1.3146
 1718TIP3    H2 5161   2.021   4.163   1.246  0.9734 -0.5722 -1.7032
 1719TIP3   OH2 5162   3.431   1.616   2.646 -0.2874  0.0599 -0.4862
 1719TIP3    H1 5163   3.351   1.644   2.600  0.7345  0.8656 -1.8384
 1719TIP3    H2 5164   3.497   1.680   2.621  0.7077 -0.3566  0.9503
 1720TIP3   OH2 5165   3.114   0.205   4.061  0.2350 -0.0573  0.2741
 1720TIP3    H1 5166   3.169   0.205   4.139  1.3070 -1.5701 -0.4393
 1720TIP3    H2 5167   3.059   0.127   4.070  2.2566 -1.8612 -1.6761
 1721TIP3   OH2 5168   2.967   3.148   1.427 -0.1687  0.6118  0.0913
 1721TIP3    H1 5169   3.009   3.228   1.395 -0.0715  0.8651  0.8171
 1721TIP3    H2 5170   2.874   3.165   1.418 -0.1432  0.2255 -1.1050
 1722TIP3   OH2 5171   4.961   1.669   4.091 -0.7555  0.0535 -0.3662
 1722TIP3    H1 5172   4.867   1.671   4.073 -0.4746  0.1822 -1.9737
 1722TIP3    H2 5173   4.979   1.753   4.132 -1.1126  0.6508 -1.4007
 1723TIP3   OH2 5174   0.874   3.603   1.648  0.2239 -0.2559 -0.2566
 1723TIP3    H1 5175   0.899   3.520   1.607  3.6388  0.2250  0.5242
 1723TIP3    H2 5176   0.888   3.588   1.742 -0.0928  0.9163 -0.0078
 1724TIP3   OH2 5177   1.464   2.183   2.580  0.1323 -0.0520 -0.2194
 1724TIP3    H1 5178   1.469   2.090   2.556 -2.8313  0.0235 -1.5644
 1724TIP3    H2 5179   1.477   2.230   2.497  0.7468  0.7114  0.2973
 1725TIP3   OH2 5180   3.732   5.359   1.476 -0.0249  0.2308 -0.9510
 1725TIP3    H1 5181   3.708   5.367   1.568  2.2611 -1.5210 -0.0977
 1725TIP3    H2 5182   3.660   5.311   1.436 -0.1550 -0.7823  0.4308
 1726TIP3   OH2 5183   0.801   1.472   2.640 -0.0390 -0.2083 -0.6779
 1726TIP3    H1 5184   0.709   1.486   2.614 -0.1155  3.1520  0.9430
 1726TIP3    H2 5185   0.849   1.540   2.593  1.2053 -0.2399  0.5077
 1727TIP3   OH2 5186   0.565   2.363   3.853 -0.6656  0.1520 -0.0799
 1727TIP3    H1 5187   0.629   2.302   3.817  0.4321  1.2693 -0.0919
 1727TIP3    H2 5188   0.610   2.406   3.926 -0.9905  1.7066 -0.7386
 1728TIP3   OH2 5189   0.629   2.933   2.086  0.0799  0.1671  0.5981
 1728TIP3    H1 5190   0.647   2.906   1.996 -0.7122 -4.1548  1.5174
 1728TIP3    H2 5191   0.537   2.913   2.099 -0.1616  1.9963  2.0358
 1729TIP3   OH2 5192   6.292   2.460   1.768  0.3342  0.2621 -0.3808
 1729TIP3    H1 5193   6.337   2.456   1.683 -0.8057 -0.4862 -0.9687
 1729TIP3    H2 5194   6.243   2.378   1.773 -1.0236  1.0733  0.2001
 1730TIP3   OH2 5195   6.157   2.879   4.101 -0.0112 -0.0008 -0.1386
 1730TIP3    H1 5196   6.180   2.826   4.177 -1.3150  0.3750  0.5479
 1730TIP3    H2 5197   6.242   2.902   4.061  0.6932 -0.2504  1.1554
 1731TIP3   OH2 5198   4.909   4.765   3.597 -0.0478  0.3749  0.9224
 1731TIP3    H1 5199   4.923   4.774   3.503 -0.0213 -0.8252  0.7991
 1731TIP3    H2 5200   4.961   4.836   3.636  0.9109  0.1540  0.0968
 1732TIP3   OH2 5201   3.100   2.480   1.326  0.6632  0.5494 -0.3198
 1732TIP3    H1 5202   3.187   2.462   1.291  0.4647  0.3278 -0.6965
 1732TIP3    H2 5203   3.053   2.397   1.319  0.9161  0.2233  1.3682
 1733TIP3   OH2 5204   3.742   5.237   4.101  0.0257 -0.0533  0.3165
 1733TIP3    H1 5205   3.745   5.333   4.096 -0.2049 -0.1171 -1.6594
 1733TIP3    H2 5206   3.813   5.207   4.045 -0.8739 -1.0457 -0.3387
 1734TIP3   OH2 5207   1.171   1.544   3.995 -0.9422 -0.3405 -0.4360
 1734TIP3    H1 5208   1.103   1.580   3.939  0.0023  1.4815 -0.4624
 1734TIP3    H2 5209   1.134   1.462   4.027 -3.3885  0.8384 -0.0248
 1735TIP3   OH2 5210   2.939   4.020   4.975  0.2145 -0.8778  0.0142
 1735TIP3    H1 5211   2.860   4.018   4.920  0.0090  0.5207  0.2174
 1735TIP3    H2 5212   2.911   4.065   5.055  1.0122 -1.1206  0.4373
 1736TIP3   OH2 5213   4.113   1.861   1.898 -0.2180 -0.3384  0.0578
 1736TIP3    H1 5214   4.140   1.799   1.967  1.4261  0.9240  0.6051
 1736TIP3    H2 5215   4.153   1.826   1.819 -1.0225 -1.0767 -0.0434
 1737TIP3   OH2 5216   0.509   2.253   3.099 -0.6641 -0.2240 -0.0292
 1737TIP3    H1 5217   0.533   2.273   3.008  0.2987 -0.6584  0.1167
 1737TIP3    H2 5218   0.513   2.157   3.104  0.3257 -0.1583  0.7378
 1738TIP3   OH2 5219   4.984   1.091   2.999 -0.4686  0.0681 -0.3882
 1738TIP3    H1 5220   5.048   1.119   2.933  0.0044 -0.2106 -0.0516
 1738TIP3    H2 5221   4.913   1.050   2.949 -1.0836  1.6467 -0.8889
 1739TIP3   OH2 5222   6.146   5.007   2.882  0.0911  0.4096  0.6847
 1739TIP3    H1 5223   6.131   5.058   2.802  0.2189 -0.0106  0.3863
 1739TIP3    H2 5224   6.181   5.070   2.945  0.3296  0.6760  0.2912
 1740TIP3   OH2 5225   3.947   3.386   3.707 -0.1555 -0.2148  0.0236
 1740TIP3    H1 5226   3.958   3.348   3.794 -1.0853  0.6156  0.5296
 1740TIP3    H2 5227   3.853   3.377   3.688 -0.0007 -0.1837 -0.7905
 1741TIP3   OH2 5228   2.943   5.336   1.575 -0.0451  0.2515  0.3884
 1741TIP3    H1 5229   2.882   5.262   1.580 -0.2207  0.3653 -0.0355
 1741TIP3    H2 5230   3.006   5.311   1.508  1.2777 -0.5173  1.8434
 1742TIP3   OH2 5231   6.105   1.294   3.802 -0.2665  0.1307 -0.0074
 1742TIP3    H1 5232   6.188   1.275   3.758 -2.3056 -1.2317 -3.7317
 1742TIP3    H2 5233   6.076   1.209   3.835  0.3563  0.8426  2.6121
 1743TIP3   OH2 5234   4.093   0.079   3.764 -0.9560 -0.0333  0.7914
 1743TIP3    H1 5235   4.045   0.147   3.716 -1.3430  0.9896  2.5199
 1743TIP3    H2 5236   4.165   0.054   3.706  0.0467  2.8999  0.6093
 1744TIP3   OH2 5237   0.667   2.477   2.584  0.1026  0.1086  0.5125
 1744TIP3    H1 5238   0.686   2.459   2.491  2.3376  1.2917  0.6601
 1744TIP3    H2 5239   0.577   2.448   2.596  0.1862 -1.3403 -1.6928
 1745TIP3   OH2 5240   4.733   3.850   2.004 -0.3997 -1.3604  0.1475
 1745TIP3    H1 5241   4.727   3.915   2.074 -0.7436  0.6891 -1.7173
 1745TIP3    H2 5242   4.697   3.770   2.044  3.2382 -1.6023  3.6870
 1746TIP3   OH2 5243   3.613   4.366   2.478 -0.2392  0.1375  0.1321
 1746TIP3    H1 5244   3.572   4.307   2.541 -2.1352  0.8124 -0.3728
 1746TIP3    H2 5245   3.645   4.309   2.409 -1.1785 -0.3885  0.1124
 1747TIP3   OH2 5246   0.660   4.682   0.256 -0.1366  0.4249  0.7979
 1747TIP3    H1 5247   0.630   4.598   0.290  1.2326 -0.2117  0.4997
 1747TIP3    H2 5248   0.632   4.683   0.165 -0.2552  0.3462  0.8333
 1748TIP3   OH2 5249   2.909   5.170   2.226  0.2067  0.3581 -0.0033
 1748TIP3    H1 5250   2.868   5.091   2.189  1.1923 -0.1170 -0.1102
 1748TIP3    H2 5251   2.906   5.234   2.155 -1.1668  0.6441  0.2836
 1749TIP3   OH2 5252   2.844   4.326   0.193  0.7126 -0.5052  0.1603
 1749TIP3    H1 5253   2.781   4.358   0.128 -0.8249 -0.4586  1.5944
 1749TIP3    H2 5254   2.910   4.395   0.199 -0.5205  0.6975  0.4644
 1750TIP3   OH2 5255   6.025   3.081   1.919 -0.2857  0.6816  0.0913
 1750TIP3    H1 5256   5.947   3.089   1.865 -0.4982 -1.8117 -0.1151
 1750TIP3    H2 5257   5.994   3.082   2.009 -0.4216  0.8840  0.0399
 1751TIP3   OH2 5258   0.948   2.582   1.491  0.3422 -0.2159  0.8369
 1751TIP3    H1 5259   0.890   2.581   1.415  0.7996  0.0958  0.4790
 1751TIP3    H2 5260   1.020   2.640   1.466 -0.0064  0.7131  1.8760
 1752TIP3   OH2 5261   0.481   0.286   4.685 -0.3711 -0.3657  0.0458
 1752TIP3    H1 5262   0.571   0.270   4.657  0.5107  1.1628  1.7866
 1752TIP3    H2 5263   0.465   0.218   4.751 -0.4696 -0.5693 -0.1845
 1753TIP3   OH2 5264   4.812   2.580   2.667 -0.3874  0.4388 -0.4583
 1753TIP3    H1 5265   4.870   2.522   2.718  0.4805  1.9760  0.3888
 1753TIP3    H2 5266   4.847   2.577   2.578  1.3231  1.6655  0.1210
 1754TIP3   OH2 5267   1.759   3.739   5.036  0.6977  0.0593 -0.0400
 1754TIP3    H1 5268   1.689   3.789   5.079  1.2754  0.4031  0.5117
 1754TIP3    H2 5269   1.811   3.704   5.108  2.1314  1.2822 -0.4282
 1755TIP3   OH2 5270   0.203   3.022   3.541  0.2962  0.4970  0.0113
 1755TIP3    H1 5271   0.152   2.957   3.493  1.8075 -1.1812  0.6052
 1755TIP3    H2 5272   0.216   3.093   3.478 -1.2857  0.2285 -0.6776
 1756TIP3   OH2 5273   1.965   1.883   4.465 -0.2357  0.1517 -0.0486
 1756TIP3    H1 5274   1.926   1.801   4.492  0.0644 -0.1745 -0.5843
 1756TIP3    H2 5275   2.059   1.866   4.463 -0.2553  0.0698 -1.5176
 1757TIP3   OH2 5276   2.172   1.283   1.236 -0.1532  0.1724  0.4856
 1757TIP3    H1 5277   2.197   1.252   1.148  0.0477  0.0303  0.5902
 1757TIP3    H2 5278   2.248   1.334   1.265  0.3021 -0.8076  1.0728
 1758TIP3   OH2 5279   1.249   0.098   0.658  0.3540 -0.6129  0.7889
 1758TIP3    H1 5280   1.215   0.010   0.677  1.2911 -1.2685 -0.4310
 1758TIP3    H2 5281   1.334   0.100   0.701  0.4139 -0.3683  0.6581
 1759TIP3   OH2 5282   0.573   4.212   4.098  0.4455 -0.1026  0.0126
 1759TIP3    H1 5283   0.663   4.222   4.130 -0.0351 -0.0415  1.4377
 1759TIP3    H2 5284   0.577   4.137   4.039  1.0411 -1.5355  1.7843
 1760TIP3   OH2 5285   0.640   2.196   2.371  0.6248  0.1713  0.3211
 1760TIP3    H1 5286   0.714   2.135   2.366 -0.4047 -1.0898 -0.1187
 1760TIP3    H2 5287   0.638   2.237   2.285  1.1543  0.6317  0.5249
 1761TIP3   OH2 5288   6.101   4.486   1.781 -0.3570  0.6124  0.0485
 1761TIP3    H1 5289   6.106   4.410   1.840  0.2363 -1.2693 -2.2394
 1761TIP3    H2 5290   6.026   4.536   1.812 -1.2957 -1.3814  1.1901
 1762TIP3   OH2 5291   5.813   0.865   0.560  0.0164 -0.0141 -0.0114
 1762TIP3    H1 5292   5.809   0.773   0.587  1.3636 -0.2365 -0.4839
 1762TIP3    H2 5293   5.783   0.865   0.469  0.4120 -0.0521 -0.1429
 1763TIP3   OH2 5294   2.598   5.945   1.920 -0.2557  0.2710  0.4382
 1763TIP3    H1 5295   2.619   6.001   1.995 -1.4201  2.9917 -1.1404
 1763TIP3    H2 5296   2.640   5.987   1.846  0.4979 -2.1285 -0.5822
 1764TIP3   OH2 5297   5.940   2.437   1.844  0.0952  0.1012 -0.0755
 1764TIP3    H1 5298   5.944   2.501   1.773  3.1262 -0.7313 -0.8150
 1764TIP3    H2 5299   6.031   2.416   1.862 -0.7158 -2.5590  1.4838
 1765TIP3   OH2 5300   0.964   1.089   4.393 -0.1700 -0.1479 -0.1557
 1765TIP3    H1 5301   0.888   1.137   4.360  0.7759  0.8552 -0.9877
 1765TIP3    H2 5302   1.013   1.153   4.444  0.9624 -0.2903 -1.0242
 1766TIP3   OH2 5303   3.514   2.221   1.041  0.0229  0.6445 -0.0560
 1766TIP3    H1 5304   3.475   2.231   1.127 -0.7276 -1.3072 -0.1140
 1766TIP3    H2 5305   3.584   2.156   1.053 -0.2939  0.1114 -0.9521
 1767TIP3   OH2 5306   4.692   5.779   0.984  0.0205 -0.2580  0.0930
 1767TIP3    H1 5307   4.704   5.873   0.971 -1.5243 -0.3103 -2.2429
 1767TIP3    H2 5308   4.727   5.739   0.905 -1.0822 -1.4887  0.2068
 1768TIP3   OH2 5309   3.250   4.443   1.562 -0.6749 -0.4163 -0.2866
 1768TIP3    H1 5310   3.244   4.349   1.542  0.4385 -0.5103 -0.2464
 1768TIP3    H2 5311   3.234   4.448   1.656  0.0012 -0.6683 -0.1481
 1769TIP3   OH2 5312   2.051   1.274   4.987  0.0699 -0.1132 -0.0916
 1769TIP3    H1 5313   2.075   1.297   4.897 -1.7622  0.4144 -0.4916
 1769TIP3    H2 5314   2.078   1.183   4.997  0.1570 -0.2226 -1.2342
 1770TIP3   OH2 5315   2.398   1.418   0.154 -0.1128  0.3632  0.2572
 1770TIP3    H1 5316   2.369   1.373   0.075  0.5737  0.8549 -0.2852
 1770TIP3    H2 5317   2.404   1.348   0.220  2.1110 -0.6342 -0.8785
 1771TIP3   OH2 5318   0.658   0.610   1.587  0.3464 -0.4776  0.3851
 1771TIP3    H1 5319   0.614   0.658   1.658 -1.5242 -0.0212 -0.9916
 1771TIP3    H2 5320   0.645   0.518   1.609 -2.6080 -0.4011 -0.6006
 1772TIP3   OH2 5321   2.610   1.450   0.439  0.0227  0.0880 -0.0958
 1772TIP3    H1 5322   2.552   1.375   0.425 -0.1067  0.0489  0.6299
 1772TIP3    H2 5323   2.693   1.411   0.468  0.3103  0.1674 -0.7730
 1773TIP3   OH2 5324   6.023   5.624   2.325 -0.6305 -0.7321  0.8123
 1773TIP3    H1 5325   5.972   5.551   2.361  0.5460 -0.6157  2.8198
 1773TIP3    H2 5326   6.044   5.596   2.236  0.8039 -3.4491  1.8871
 1774TIP3   OH2 5327   2.994   3.355   4.078 -0.2880  0.2812  0.2308
 1774TIP3    H1 5328   2.920   3.386   4.131 -0.4348 -0.0233  0.2027
 1774TIP3    H2 5329   2.961   3.278   4.032  0.2526 -0.2627  0.7371
 1775TIP3   OH2 5330   1.476   0.121   0.809  0.2275 -0.2806  0.3021
 1775TIP3    H1 5331   1.548   0.152   0.755  1.0774  0.0942  1.6011
 1775TIP3    H2 5332   1.506   0.037   0.843 -0.7967 -1.1060 -0.7274
 1776TIP3   OH2 5333   4.139   4.563   2.518  0.1920 -0.0778 -0.2478
 1776TIP3    H1 5334   4.098   4.529   2.439  0.7375  0.2682 -0.6813
 1776TIP3    H2 5335   4.229   4.582   2.493  0.5490 -0.5466  0.6121
 1777TIP3   OH2 5336   4.894   0.535   5.024  0.0594 -0.1079  0.0525
 1777TIP3    H1 5337   4.980   0.519   5.063  0.1299  0.5933  0.1916
 1777TIP3    H2 5338   4.880   0.460   4.966  0.1101 -0.9986  1.1443
 1778TIP3   OH2 5339   6.263   4.753   2.241 -0.7692 -0.2556 -0.0908
 1778TIP3    H1 5340   6.245   4.718   2.329 -1.9223 -2.6087 -1.1632
 1778TIP3    H2 5341   6.358   4.769   2.241 -0.3519 -2.3586  0.9064
 1779TIP3   OH2 5342   0.119   1.263   1.092 -0.1125 -0.0073  0.0703
 1779TIP3    H1 5343   0.187   1.277   1.158 -0.5514 -0.8752  0.7216
 1779TIP3    H2 5344   0.043   1.310   1.126 -0.4550 -0.7746  0.3941
 1780TIP3   OH2 5345   0.570   0.903   0.561  0.1040 -0.4753 -0.3244
 1780TIP3    H1 5346   0.514   0.825   0.560  0.3124 -0.6206 -0.8109
 1780TIP3    H2 5347   0.657   0.871   0.583  0.1353 -0.3401 -0.2458
 1781TIP3   OH2 5348   3.112   4.894   2.074  0.7607 -0.2961 -0.1741
 1781TIP3    H1 5349   3.162   4.846   2.008  0.9610 -0.5547  0.1638
 1781TIP3    H2 5350   3.130   4.848   2.156  0.1026 -0.2906 -0.0215
 1782TIP3   OH2 5351   2.523   5.116   2.734  0.2002 -0.4825  0.0136
 1782TIP3    H1 5352   2.448   5.059   2.748  0.8325 -0.9351  1.7994
 1782TIP3    H2 5353   2.540   5.111   2.640 -2.4269  0.2163 -0.5846
 1783TIP3   OH2 5354   0.991   0.659   0.443 -0.0234  0.3415  0.2289
 1783TIP3    H1 5355   1.010   0.632   0.533  0.7635 -1.7117 -0.4967
 1783TIP3    H2 5356   1.029   0.746   0.436 -3.3244  2.2675  2.9155
 1784TIP3   OH2 5357   4.637   3.652   0.317  0.2339  0.2781 -0.3461
 1784TIP3    H1 5358   4.608   3.723   0.374  0.9239  0.5453 -0.3231
 1784TIP3    H2 5359   4.641   3.691   0.229 -0.3885 -0.0138 -0.5143
 1785TIP3   OH2 5360   2.163   1.306   0.553 -0.1116  0.3945  0.4773
 1785TIP3    H1 5361   2.145   1.338   0.642 -0.9212  3.2972 -0.5991
 1785TIP3    H2 5362   2.099   1.352   0.498  1.6492  0.2461 -1.8500
 1786TIP3   OH2 5363   5.476   2.501   2.398  0.4591 -0.8973  0.3601
 1786TIP3    H1 5364   5.498   2.460   2.482  0.4671 -1.4693  0.0816
 1786TIP3    H2 5365   5.385   2.529   2.409 -0.0763 -2.4128  0.0130
 1787TIP3   OH2 5366   2.761   4.975   1.819 -0.1172 -0.3935  0.4524
 1787TIP3    H1 5367   2.700   4.902   1.807  0.2941 -0.7263  0.3665
 1787TIP3    H2 5368   2.817   4.947   1.891  0.7634 -0.6490 -0.3145
 1788TIP3   OH2 5369   6.068   2.645   2.396 -0.0709 -0.7705  0.0541
 1788TIP3    H1 5370   6.059   2.726   2.446 -0.4959 -0.1363 -1.0222
 1788TIP3    H2 5371   6.002   2.652   2.327 -0.5536 -2.3289  0.3279
 1789TIP3   OH2 5372   2.833   0.300   1.944 -0.4688  0.0052 -0.5263
 1789TIP3    H1 5373   2.912   0.249   1.963 -2.1934 -3.5217 -1.8875
 1789TIP3    H2 5374   2.845   0.328   1.853 -1.2365 -1.7402 -1.2238
 1790TIP3   OH2 5375   5.903   2.850   0.790  0.3009  0.6865  0.2346
 1790TIP3    H1 5376   5.996   2.872   0.787  0.1065  1.3872 -0.8834
 1790TIP3    H2 5377   5.902   2.759   0.823  1.5446 -0.2300 -2.0516
 1791TIP3   OH2 5378   1.592   2.144   3.025 -0.8919 -0.1841 -0.1496
 1791TIP3    H1 5379   1.613   2.068   2.971 -1.9513 -0.0682 -0.7729
 1791TIP3    H2 5380   1.548   2.108   3.102 -1.1954 -0.2320 -0.3407
 1792TIP3   OH2 5381   5.903   0.759   3.634 -0.6457  0.1816  0.3315
 1792TIP3    H1 5382   5.949   0.680   3.606 -1.8197 -0.3040 -0.2794
 1792TIP3    H2 5383   5.867   0.736   3.720 -0.2529  0.3676  0.5511
 1793TIP3   OH2 5384   6.307   5.856   0.802  0.0526 -0.3555 -0.8715
 1793TIP3    H1 5385   6.276   5.926   0.861  1.3678 -0.3675 -0.1176
 1793TIP3    H2 5386   6.366   5.900   0.742 -1.3365 -0.3344 -2.2916
 1794TIP3   OH2 5387   0.861   3.005   3.845  0.1360  0.2837  0.0380
 1794TIP3    H1 5388   0.866   3.089   3.799 -0.3630 -0.2923 -1.1096
 1794TIP3    H2 5389   0.774   3.005   3.886 -0.0497  0.1342 -0.3537
 1795TIP3   OH2 5390   0.797   4.121   4.967 -0.1135 -0.0449  0.2279
 1795TIP3    H1 5391   0.875   4.066   4.960 -0.8257 -1.1195  0.5460
 1795TIP3    H2 5392   0.795   4.150   5.058  1.8620  3.0152 -0.5193
 1796TIP3   OH2 5393   4.148   2.638   1.076  0.1145  0.1660 -0.2892
 1796TIP3    H1 5394   4.151   2.571   1.008  0.9575 -1.2811  1.0881
 1796TIP3    H2 5395   4.072   2.692   1.054 -0.5217 -1.1766 -1.5260
 1797TIP3   OH2 5396   1.666   4.073   2.418  0.1886  0.2865 -0.2645
 1797TIP3    H1 5397   1.727   4.145   2.401  2.2751 -1.2642  0.2336
 1797TIP3    H2 5398   1.641   4.083   2.510  0.8794  0.1004 -0.0530
 1798TIP3   OH2 5399   4.159   3.661   2.439  0.1690 -0.4821 -0.2548
 1798TIP3    H1 5400   4.136   3.568   2.444  1.0370 -0.8010 -1.5864
 1798TIP3    H2 5401   4.089   3.700   2.388  0.4774 -0.6721 -0.8321
 1799TIP3   OH2 5402   0.251   3.108   0.428 -0.2638  0.4164 -0.0647
 1799TIP3    H1 5403   0.165   3.106   0.470 -0.0291  2.1175  0.5945
 1799TIP3    H2 5404   0.302   3.040   0.472 -1.0272 -0.0825  0.0634
 1800TIP3   OH2 5405   0.970   5.494   4.684  0.1613 -0.0109 -0.3736
 1800TIP3    H1 5406   0.984   5.584   4.715  0.4469  0.0882 -0.7840
 1800TIP3    H2 5407   0.876   5.486   4.675 -0.2121 -0.8004  2.8110
 1801TIP3   OH2 5408   5.082   0.925   1.593 -0.2881  0.1377  0.1072
 1801TIP3    H1 5409   5.070   0.998   1.532 -0.5243  0.2145  0.2413
 1801TIP3    H2 5410   5.145   0.958   1.657  0.4071 -0.1477 -0.4133
 1802TIP3   OH2 5411   4.625   5.928   4.597  0.4735  0.1265  0.5731
 1802TIP3    H1 5412   4.704   5.950   4.648  2.2567 -1.0039 -1.5243
 1802TIP3    H2 5413   4.656   5.865   4.532 -1.9459  0.5424 -1.0972
 1803TIP3   OH2 5414   0.958   2.616   4.624  0.1277 -0.2583  0.0091
 1803TIP3    H1 5415   0.899   2.678   4.667  0.4180 -0.8248  1.2612
 1803TIP3    H2 5416   0.922   2.530   4.646 -0.0839 -0.5754 -1.4438
 1804TIP3   OH2 5417   5.963   1.644   4.132  0.3067 -0.1540  0.3806
 1804TIP3    H1 5418   5.948   1.738   4.121 -0.5085 -0.4707 -1.4820
 1804TIP3    H2 5419   5.928   1.625   4.219 -0.1997  1.1295  0.4833
 1805TIP3   OH2 5420   5.253   1.116   3.356 -0.5035  0.4114 -0.3967
 1805TIP3    H1 5421   5.262   1.188   3.293 -0.9573  0.8270  0.0035
 1805TIP3    H2 5422   5.330   1.124   3.412 -0.5875  0.6299 -0.3116
 1806TIP3   OH2 5423   3.447   4.436   0.793  0.2509 -0.1634  0.3723
 1806TIP3    H1 5424   3.380   4.497   0.762 -0.5686 -1.5391 -0.6730
 1806TIP3    H2 5425   3.397   4.361   0.826  1.2587 -0.8256  0.4304
 1807TIP3   OH2 5426   4.312   3.123   0.044 -0.0963 -0.5520  0.0820
 1807TIP3    H1 5427   4.276   3.210   0.059 -1.3337 -1.2583  1.5023
 1807TIP3    H2 5428   4.393   3.138  -0.004 -1.0461  1.2677 -1.0408
 1808TIP3   OH2 5429   0.871   1.652   4.106  0.2228 -0.5712  0.5273
 1808TIP3    H1 5430   0.866   1.650   4.011 -0.3753  0.1947  0.5332
 1808TIP3    H2 5431   0.819   1.728   4.132 -0.7554 -1.5425  1.5478
 1809TIP3   OH2 5432   1.694   5.228   1.898 -0.5704 -0.3336  0.2070
 1809TIP3    H1 5433   1.736   5.296   1.951  0.2801 -1.4885  1.0763
 1809TIP3    H2 5434   1.622   5.273   1.854 -0.5995  0.9368  1.4602
 1810TIP3   OH2 5435   4.421   2.179   2.289  0.3462  0.4837  0.1465
 1810TIP3    H1 5436   4.418   2.180   2.385  0.8898 -0.7777  0.1944
 1810TIP3    H2 5437   4.365   2.106   2.264  2.5028 -1.0989 -0.3386
 1811TIP3   OH2 5438   1.302   4.942   3.743 -0.0205  0.1459  0.1722
 1811TIP3    H1 5439   1.373   4.882   3.765 -0.4571 -0.2866  0.4312
 1811TIP3    H2 5440   1.340   5.003   3.679 -0.0956 -1.5708 -1.5934
 1812TIP3   OH2 5441   4.069   5.736   3.740  0.1929  0.3874 -0.2975
 1812TIP3    H1 5442   4.016   5.751   3.818  0.5075  1.2339 -0.2472
 1812TIP3    H2 5443   4.157   5.765   3.764  0.6452 -0.7857 -0.4602
 1813TIP3   OH2 5444   2.904   4.643   2.769 -0.0009  0.0944 -0.2264
 1813TIP3    H1 5445   2.855   4.661   2.850  0.9315 -1.0967  0.6401
 1813TIP3    H2 5446   2.990   4.614   2.800  0.9386  1.1838 -1.6915
 1814TIP3   OH2 5447   6.143   2.501   0.682 -0.4183 -0.3262 -0.5585
 1814TIP3    H1 5448   6.105   2.550   0.609 -1.4037  0.5446  0.4942
 1814TIP3    H2 5449   6.238   2.516   0.674 -0.6665  1.7915 -0.3036
 1815TIP3   OH2 5450   5.039   4.023   2.837 -0.1850  0.0089 -0.3865
 1815TIP3    H1 5451   4.965   4.044   2.780 -0.0396  1.0983 -0.2067
 1815TIP3    H2 5452   5.072   4.109   2.866  1.3381 -0.4411 -0.7053
 1816TIP3   OH2 5453   2.986   4.555   2.379  0.5518  0.4221 -0.2427
 1816TIP3    H1 5454   3.018   4.567   2.290  1.3906 -0.4691 -0.0772
 1816TIP3    H2 5455   3.049   4.603   2.433  1.3851 -0.9334  0.0439
 1817TIP3   OH2 5456   4.259   3.432   2.190 -0.1398 -0.0203  0.5540
 1817TIP3    H1 5457   4.234   3.422   2.282  2.7085  1.2562  1.5846
 1817TIP3    H2 5458   4.265   3.342   2.157 -0.8430 -0.5183  1.7338
 1818TIP3   OH2 5459   4.535   2.112   1.559  0.4155  0.2417 -0.0934
 1818TIP3    H1 5460   4.514   2.202   1.532  1.2191  0.8943  1.3613
 1818TIP3    H2 5461   4.457   2.083   1.607 -0.0454 -0.0478 -0.9842
 1819TIP3   OH2 5462   2.889   3.619   0.420  0.4965  0.2593 -0.3112
 1819TIP3    H1 5463   2.936   3.567   0.355  0.1982 -0.1922 -0.1717
 1819TIP3    H2 5464   2.813   3.654   0.372  0.4674  0.2168 -0.2963
 1820TIP3   OH2 5465   5.037   5.918   1.835  0.0450  0.1525 -0.3259
 1820TIP3    H1 5466   4.946   5.940   1.815 -0.2142 -0.6114 -0.0299
 1820TIP3    H2 5467   5.088   5.981   1.785 -0.6200 -0.2119 -1.5201
 1821TIP3   OH2 5468   4.027   0.699   3.920  0.2244 -0.6551 -0.2668
 1821TIP3    H1 5469   3.965   0.650   3.974  0.5040 -0.1925  0.4926
 1821TIP3    H2 5470   3.972   0.744   3.856 -0.3398  0.4159  0.9159
 1822TIP3   OH2 5471   0.581   5.341   4.578  0.5209  0.1582 -0.0711
 1822TIP3    H1 5472   0.574   5.284   4.501 -0.5072  0.6628 -0.3679
 1822TIP3    H2 5473   0.640   5.294   4.637 -1.2618 -1.8827  0.2295
 1823TIP3   OH2 5474   4.389   1.184   2.327  0.1547  0.4611 -0.1147
 1823TIP3    H1 5475   4.468   1.237   2.311  0.7158 -0.1117  0.7140
 1823TIP3    H2 5476   4.332   1.204   2.252  0.6263  1.7235 -0.1675
 1824TIP3   OH2 5477   6.317   1.489   1.148 -0.2029 -0.2563  0.3046
 1824TIP3    H1 5478   6.346   1.562   1.093 -0.0072  0.4071  1.2728
 1824TIP3    H2 5479   6.226   1.509   1.168 -0.9680 -1.6077 -1.5366
 1825TIP3   OH2 5480   5.261   2.928   1.075  0.0703 -0.3095 -0.9756
 1825TIP3    H1 5481   5.319   2.989   1.030  0.1789 -0.5677 -1.1932
 1825TIP3    H2 5482   5.245   2.968   1.160 -2.0112  1.3607 -2.0404
 1826TIP3   OH2 5483   2.576   0.169   1.402 -0.0698 -0.3613  0.1226
 1826TIP3    H1 5484   2.597   0.260   1.381 -0.3464 -0.4058 -0.3554
 1826TIP3    H2 5485   2.498   0.149   1.350  0.4842 -1.1332 -0.4413
 1827TIP3   OH2 5486   2.371   1.536   5.018 -0.3826 -0.3390 -0.0410
 1827TIP3    H1 5487   2.287   1.490   5.023 -0.9328  0.4459 -1.4246
 1827TIP3    H2 5488   2.391   1.560   5.108 -1.9448 -0.0646  0.2569
 1828TIP3   OH2 5489   4.067   1.093   4.768  0.0055 -0.3873 -0.1129
 1828TIP3    H1 5490   4.074   1.032   4.840 -0.7959  0.2990  0.5733
 1828TIP3    H2 5491   4.156   1.104   4.736  0.1476 -1.9974 -0.3408
 1829TIP3   OH2 5492   0.521   0.795   1.853  0.4926 -0.1070  0.2645
 1829TIP3    H1 5493   0.459   0.868   1.844 -0.1312 -0.7177 -0.5912
 1829TIP3    H2 5494   0.500   0.756   1.937  0.4044  0.3196  0.4435
 1830TIP3   OH2 5495   2.046   1.231   3.451 -0.6916 -0.1016  0.5186
 1830TIP3    H1 5496   2.072   1.164   3.514 -0.2184  0.5753  1.0570
 1830TIP3    H2 5497   2.027   1.183   3.371  1.8586 -0.7152  0.1832
 1831TIP3   OH2 5498   2.174   4.529   4.447 -0.3986 -0.4706 -0.5543
 1831TIP3    H1 5499   2.159   4.519   4.541 -0.2465 -0.3858 -0.5219
 1831TIP3    H2 5500   2.198   4.621   4.435 -2.8695  0.1934 -0.9918
 1832TIP3   OH2 5501   0.456   4.200   4.888 -0.3177 -0.0528 -0.6704
 1832TIP3    H1 5502   0.380   4.256   4.904 -0.8828 -0.2641 -2.3805
 1832TIP3    H2 5503   0.526   4.241   4.938 -0.7436  2.1584 -1.7488
 1833TIP3   OH2 5504   6.358   3.832   2.757  0.3581  0.5292  0.2603
 1833TIP3    H1 5505   6.282   3.820   2.814  0.7074 -0.6678  0.5085
 1833TIP3    H2 5506   6.335   3.787   2.676  0.2393  1.4102 -0.1994
 1834TIP3   OH2 5507   4.604   3.572   4.289  0.2460  0.6476  0.2799
 1834TIP3    H1 5508   4.605   3.512   4.364 -1.0778 -0.0080 -0.2018
 1834TIP3    H2 5509   4.683   3.548   4.239 -1.4367 -2.4595 -1.1840
 1835TIP3   OH2 5510   3.882   2.185   1.669  0.1072  0.5290  0.2520
 1835TIP3    H1 5511   3.937   2.162   1.743  1.9143  1.6706 -0.6832
 1835TIP3    H2 5512   3.917   2.132   1.596 -1.0356  0.1180 -0.0207
 1836TIP3   OH2 5513   4.494   0.282   3.125 -0.4017  0.0652 -0.5251
 1836TIP3    H1 5514   4.400   0.295   3.137 -0.1598  1.0126  0.4551
 1836TIP3    H2 5515   4.501   0.232   3.043 -1.7826 -0.6183 -0.2561
 1837TIP3   OH2 5516   5.223   1.698   3.154 -0.0767  0.8098 -0.4593
 1837TIP3    H1 5517   5.242   1.637   3.083 -0.1463  0.7755 -0.4488
 1837TIP3    H2 5518   5.281   1.772   3.138  0.8953  0.2143  0.2332
 1838TIP3   OH2 5519   2.115   0.408   3.194  0.1166 -0.3580 -0.6431
 1838TIP3    H1 5520   2.105   0.363   3.278  1.3558  0.1015 -0.2249
 1838TIP3    H2 5521   2.026   0.425   3.164 -0.3551  0.4613  1.1271
 1839TIP3   OH2 5522   4.194   1.285   2.156 -0.3085 -0.2089  0.0819
 1839TIP3    H1 5523   4.146   1.284   2.073 -1.5853  0.2853  0.7843
 1839TIP3    H2 5524   4.129   1.311   2.221  1.0420  1.0359  1.0030
 1840TIP3   OH2 5525   2.867   2.516   4.571 -0.2003  0.0157  0.0510
 1840TIP3    H1 5526   2.890   2.568   4.493 -0.6026 -1.3672 -1.0281
 1840TIP3    H2 5527   2.829   2.581   4.631  2.1051  1.4996  0.0217
 1841TIP3   OH2 5528   3.742   1.276   1.944 -0.1573 -0.3916 -0.7433
 1841TIP3    H1 5529   3.815   1.251   1.887 -0.7623  0.3571 -1.8773
 1841TIP3    H2 5530   3.676   1.312   1.884 -0.5914  0.9377  0.4840
 1842TIP3   OH2 5531   0.693   5.757   1.175 -0.0341 -0.2774  0.2095
 1842TIP3    H1 5532   0.673   5.757   1.268 -1.8860  1.4144 -0.1187
 1842TIP3    H2 5533   0.784   5.788   1.170  1.4550 -3.8349  1.5309
 1843TIP3   OH2 5534   3.779   4.232   4.733 -0.3864  0.1819 -0.3331
 1843TIP3    H1 5535   3.831   4.156   4.760 -0.4537  0.1999 -0.1549
 1843TIP3    H2 5536   3.752   4.212   4.643 -1.0707 -0.3543 -0.0081
 1844TIP3   OH2 5537   5.950   5.539   0.275  0.0230  0.1317  0.0651
 1844TIP3    H1 5538   5.877   5.525   0.214  0.3051 -1.6314  0.0909
 1844TIP3    H2 5539   6.018   5.581   0.222 -0.7403  1.2083 -0.1106
 1845TIP3   OH2 5540   4.875   2.087   2.952  0.3218 -0.4383 -0.1395
 1845TIP3    H1 5541   4.906   2.151   3.016  1.6227  0.0963 -1.2361
 1845TIP3    H2 5542   4.791   2.122   2.922  0.2574 -0.0881  0.4431
 1846TIP3   OH2 5543   1.923   3.427   2.966  0.3385  0.5535  0.1204
 1846TIP3    H1 5544   1.836   3.460   2.940 -0.3541 -0.9411  0.4444
 1846TIP3    H2 5545   1.904   3.347   3.014  1.9076  0.3796  0.4760
 1847TIP3   OH2 5546   1.946   2.249   1.559  0.1730 -0.0547  0.3724
 1847TIP3    H1 5547   1.872   2.243   1.620  0.9376 -2.8081  1.1715
 1847TIP3    H2 5548   1.977   2.159   1.549  2.9628  0.8833 -0.5269
 1848TIP3   OH2 5549   4.400   2.830   3.416  0.0719 -0.1932 -0.2785
 1848TIP3    H1 5550   4.322   2.886   3.422  1.1272  1.2135  3.6489
 1848TIP3    H2 5551   4.383   2.759   3.477  0.9172 -1.2503 -1.2408
 1849TIP3   OH2 5552   0.608   5.798   3.220 -0.3875  0.2107 -0.2408
 1849TIP3    H1 5553   0.573   5.775   3.306 -0.2973 -0.3927 -0.3618
 1849TIP3    H2 5554   0.533   5.796   3.161 -0.1737 -1.0891 -0.5014
 1850TIP3   OH2 5555   4.458   5.295   2.905 -0.4492 -0.1922  0.3322
 1850TIP3    H1 5556   4.554   5.300   2.907 -0.4117 -0.5449 -0.2907
 1850TIP3    H2 5557   4.434   5.343   2.826 -0.7500 -0.5700  0.1919
 1851TIP3   OH2 5558   3.774   5.054   3.162 -0.6382  0.3594 -0.3163
 1851TIP3    H1 5559   3.794   5.142   3.195 -1.4231  0.2340  0.5270
 1851TIP3    H2 5560   3.851   5.030   3.109  0.0620  1.1062  0.3427
 1852TIP3   OH2 5561   5.389   1.153   4.400  0.6498 -0.4451 -0.1966
 1852TIP3    H1 5562   5.355   1.093   4.334  0.2037  3.1398 -3.5890
 1852TIP3    H2 5563   5.479   1.171   4.373  0.2343  1.6276 -0.3910
 1853TIP3   OH2 5564   1.334   3.725   5.024  0.8242 -0.3605  0.2146
 1853TIP3    H1 5565   1.323   3.696   4.934  0.5426 -1.4688  0.5963
 1853TIP3    H2 5566   1.387   3.805   5.017 -1.6501  1.3128 -1.1751
 1854TIP3   OH2 5567   0.937   4.498   3.527 -0.4095  0.0518  0.0620
 1854TIP3    H1 5568   1.024   4.466   3.505 -1.0731 -0.3892 -2.0808
 1854TIP3    H2 5569   0.925   4.472   3.618  1.5392 -0.1810  0.3037
 1855TIP3   OH2 5570   3.939   4.640   1.656 -0.0065  0.0646 -0.1720
 1855TIP3    H1 5571   3.863   4.683   1.695 -1.4368 -1.1458 -1.5096
 1855TIP3    H2 5572   4.008   4.650   1.722 -0.6392  3.0889  0.1963
 1856TIP3   OH2 5573   3.689   0.425   2.427 -0.0264  0.2914  0.3239
 1856TIP3    H1 5574   3.746   0.468   2.363  0.4477 -1.3630 -0.4223
 1856TIP3    H2 5575   3.625   0.377   2.374 -2.2170  2.1413  1.1426
 1857TIP3   OH2 5576   1.009   5.632   1.930  0.5434 -0.1986  0.1045
 1857TIP3    H1 5577   0.932   5.680   1.960  1.4839  1.0435  0.5991
 1857TIP3    H2 5578   1.020   5.562   1.994 -0.4964 -0.7631 -0.3007
 1858TIP3   OH2 5579   1.868   5.497   0.189  0.3588  0.3953  0.1411
 1858TIP3    H1 5580   1.922   5.418   0.188 -1.4744 -0.9183  0.2224
 1858TIP3    H2 5581   1.825   5.498   0.103 -0.8481  0.3767  0.7197
 1859TIP3   OH2 5582   6.310   3.036   1.279  0.3425 -0.8427  0.2709
 1859TIP3    H1 5583   6.258   3.113   1.258  0.4489 -0.8120  0.1225
 1859TIP3    H2 5584   6.284   3.014   1.369  0.9796 -0.0830  0.6571
 1860TIP3   OH2 5585   3.586   3.124   4.558  0.4781 -0.1925 -0.3395
 1860TIP3    H1 5586   3.542   3.208   4.575  0.1033 -0.3455 -0.5349
 1860TIP3    H2 5587   3.588   3.117   4.463  1.2780 -0.0099 -0.3416
 1861TIP3   OH2 5588   4.092   3.938   4.563  0.1668  0.0560  0.4735
 1861TIP3    H1 5589   4.146   3.866   4.597  1.2595  0.6089 -0.0278
 1861TIP3    H2 5590   4.018   3.943   4.623 -1.3100 -3.0993 -0.8409
 1862TIP3   OH2 5591   2.967   1.170   2.919  0.1955 -0.3472  0.0317
 1862TIP3    H1 5592   2.985   1.151   3.011  1.2345  1.4001  0.2218
 1862TIP3    H2 5593   3.031   1.118   2.871  0.5395 -0.2324  0.3619
 1863TIP3   OH2 5594   3.540   3.820   3.929  0.3918  0.0328  0.0899
 1863TIP3    H1 5595   3.546   3.829   3.834 -1.8062  0.3087 -0.0768
 1863TIP3    H2 5596   3.512   3.730   3.943 -0.8664  0.4493  0.3578
 1864TIP3   OH2 5597   2.006   3.921   4.123  0.8804  0.3570  0.7030
 1864TIP3    H1 5598   1.951   3.982   4.074 -0.6507 -2.3622 -1.2254
 1864TIP3    H2 5599   1.964   3.914   4.209  0.4182  1.0943  0.5440
 1865TIP3   OH2 5600   3.651   4.769   4.199 -0.4930  0.0214  0.3121
 1865TIP3    H1 5601   3.661   4.702   4.267  0.7683  0.0120  0.1392
 1865TIP3    H2 5602   3.714   4.744   4.131 -1.5625  0.1619 -0.7696
 1866TIP3   OH2 5603   3.286   3.548   5.159  0.0355 -0.0701  0.2397
 1866TIP3    H1 5604   3.236   3.569   5.080  1.7643  1.0566 -0.6118
 1866TIP3    H2 5605   3.259   3.459   5.181 -0.2431 -0.5533 -1.8239
 1867TIP3   OH2 5606   6.114   0.605   4.468 -0.7388 -0.9928  0.1211
 1867TIP3    H1 5607   6.089   0.694   4.493 -3.8927 -1.8226  0.3057
 1867TIP3    H2 5608   6.208   0.601   4.488 -0.6262  2.0281  0.7742
 1868TIP3   OH2 5609   4.903   3.360   4.756  0.1467 -0.6341 -0.2597
 1868TIP3    H1 5610   4.824   3.362   4.810  1.2787  1.6983  1.4884
 1868TIP3    H2 5611   4.947   3.279   4.781 -0.9680 -1.2404 -0.1982
 1869TIP3   OH2 5612   3.078   4.038   1.644 -0.1614 -0.5071 -0.0778
 1869TIP3    H1 5613   3.160   4.032   1.595  1.2039 -3.5190  2.3011
 1869TIP3    H2 5614   3.024   3.967   1.609 -0.0449 -1.2567  1.2214
 1870TIP3   OH2 5615   1.574   3.287   2.880 -0.0749  0.0985  0.1613
 1870TIP3    H1 5616   1.620   3.327   2.954  1.4307 -3.3777  1.3721
 1870TIP3    H2 5617   1.487   3.268   2.914  0.2652 -0.5031  0.7431
 1871TIP3   OH2 5618   2.561   1.592   0.926  0.1258  0.2181  0.2469
 1871TIP3    H1 5619   2.611   1.555   0.853  0.5866  0.1637  0.5854
 1871TIP3    H2 5620   2.601   1.553   1.004 -1.4893 -1.1193  0.4742
 1872TIP3   OH2 5621   3.591   5.031   3.543  0.5092 -0.8207 -0.2512
 1872TIP3    H1 5622   3.615   5.046   3.635  0.8920 -2.4663 -0.0550
 1872TIP3    H2 5623   3.506   4.987   3.547  0.1155 -0.1329 -0.7422
 1873TIP3   OH2 5624   5.154   2.934   4.420  0.2957  0.2659  0.1477
 1873TIP3    H1 5625   5.059   2.928   4.431  0.0881 -0.0827 -1.5694
 1873TIP3    H2 5626   5.181   2.844   4.400  0.5877  0.7656 -1.9277
 1874TIP3   OH2 5627   0.105   2.498   2.922  0.3601 -0.1102 -0.4718
 1874TIP3    H1 5628   0.110   2.538   2.835  0.1987 -0.4142 -0.6209
 1874TIP3    H2 5629   0.036   2.433   2.915 -1.0494  1.1959  0.4332
 1875TIP3   OH2 5630   4.145   4.004   2.182  0.7700  0.0705 -0.0331
 1875TIP3    H1 5631   4.236   3.980   2.166  0.2554 -0.8080 -1.8124
 1875TIP3    H2 5632   4.115   4.043   2.100 -1.2621 -2.2972 -0.5488
 1876TIP3   OH2 5633   2.228   4.638   1.814 -0.0252  0.1627 -0.1334
 1876TIP3    H1 5634   2.247   4.732   1.807 -1.7073  0.5024 -0.7351
 1876TIP3    H2 5635   2.293   4.604   1.875 -1.9683  2.5710  3.6615
 1877TIP3   OH2 5636   4.578   2.947   1.223  0.0262 -0.6969  0.0160
 1877TIP3    H1 5637   4.530   2.988   1.294  0.2317  0.9755 -0.7715
 1877TIP3    H2 5638   4.512   2.898   1.174 -0.2189 -1.3648  0.9915
 1878TIP3   OH2 5639   0.093   5.830   3.117  0.1622  0.3690 -0.4047
 1878TIP3    H1 5640   0.132   5.754   3.074  2.3879  1.9635 -1.4018
 1878TIP3    H2 5641   0.073   5.799   3.206  1.1059 -1.3557 -0.7375
 1879TIP3   OH2 5642   3.150   1.992   3.181 -0.2707  0.5070  0.0549
 1879TIP3    H1 5643   3.066   1.952   3.161 -0.4603  0.6124  0.6294
 1879TIP3    H2 5644   3.136   2.086   3.170  0.3479  0.4267 -1.9489
 1880TIP3   OH2 5645   5.143   5.027   2.191  0.0715 -0.4194  0.4783
 1880TIP3    H1 5646   5.135   4.965   2.263  1.3092  0.5157  1.4656
 1880TIP3    H2 5647   5.213   5.086   2.217 -0.1345  0.5733 -1.0475
 1881TIP3   OH2 5648   3.594   1.014   3.983  0.3651 -0.7044  0.0638
 1881TIP3    H1 5649   3.532   1.016   4.056  1.5890  0.5610  1.1399
 1881TIP3    H2 5650   3.622   1.105   3.972  0.4827 -0.9160 -1.7811
 1882TIP3   OH2 5651   0.342   3.514   0.732  0.7210 -0.3180 -0.0704
 1882TIP3    H1 5652   0.371   3.584   0.790 -0.6570  1.8149 -1.7619
 1882TIP3    H2 5653   0.276   3.556   0.676 -0.9544 -3.2530 -0.5138
 1883TIP3   OH2 5654   2.414   4.231   1.805  0.7928  0.1730  0.1555
 1883TIP3    H1 5655   2.495   4.234   1.855  0.5793  3.4383  0.5047
 1883TIP3    H2 5656   2.346   4.218   1.870  0.6749  2.6517  0.6379
 1884TIP3   OH2 5657   0.533   1.312   3.183  0.2436  0.7638 -0.0981
 1884TIP3    H1 5658   0.450   1.360   3.178 -0.2189  0.5962  3.4566
 1884TIP3    H2 5659   0.600   1.378   3.170 -0.4293  1.3942 -0.4257
 1885TIP3   OH2 5660   5.593   4.873   4.246  0.5067  0.6759  0.0420
 1885TIP3    H1 5661   5.517   4.926   4.270 -1.5776 -2.0188 -0.0570
 1885TIP3    H2 5662   5.589   4.867   4.150 -0.7287 -1.4518  0.1632
 1886TIP3   OH2 5663   2.053   4.373   1.988  0.2662 -0.0967 -0.3414
 1886TIP3    H1 5664   2.031   4.457   2.029  0.2548 -0.5220  0.5470
 1886TIP3    H2 5665   2.105   4.327   2.054 -0.1242 -0.9769 -0.6353
 1887TIP3   OH2 5666   0.504   3.941   4.975  0.2692 -0.2187  0.3763
 1887TIP3    H1 5667   0.554   3.992   4.911 -0.0512 -2.1162 -1.5206
 1887TIP3    H2 5668   0.412   3.956   4.951  0.0465  0.4478  1.5646
 1888TIP3   OH2 5669   3.640   2.736   0.022 -0.6617  0.7305  0.4582
 1888TIP3    H1 5670   3.593   2.655   0.037 -0.6477  0.6286 -0.0263
 1888TIP3    H2 5671   3.720   2.728   0.074  0.1570 -0.3059 -0.9083
 1889TIP3   OH2 5672   5.623   3.867   1.800  0.0889  0.2631  0.3698
 1889TIP3    H1 5673   5.529   3.857   1.789 -0.3003  1.8434  1.7851
 1889TIP3    H2 5674   5.636   3.873   1.895  1.4607  1.2432  0.1622
 1890TIP3   OH2 5675   0.657   5.219   3.338 -0.2745 -0.2203  0.3910
 1890TIP3    H1 5676   0.664   5.290   3.402 -0.2143 -1.1560  1.4791
 1890TIP3    H2 5677   0.716   5.243   3.267 -0.6606  1.0568  0.4862
 1891TIP3   OH2 5678   4.960   4.629  -0.015  0.1321  0.4525 -0.2564
 1891TIP3    H1 5679   5.031   4.689   0.007  0.3154 -0.1901  0.9606
 1891TIP3    H2 5680   4.979   4.550   0.034 -0.7374 -0.2001 -0.9342
 1892TIP3   OH2 5681   3.902   0.862   1.419 -0.2931  0.0036 -0.2921
 1892TIP3    H1 5682   3.928   0.953   1.434  2.0312 -0.8072  1.0951
 1892TIP3    H2 5683   3.891   0.856   1.324  0.7405  1.4620 -0.5481
 1893TIP3   OH2 5684   1.137   0.873   5.211 -0.3821  0.5018  0.0166
 1893TIP3    H1 5685   1.084   0.834   5.142 -0.0911  1.1402 -0.5816
 1893TIP3    H2 5686   1.227   0.867   5.178 -0.3623  2.0063 -0.2721
 1894TIP3   OH2 5687   2.307   3.242   0.082 -0.3495  0.4857 -0.0814
 1894TIP3    H1 5688   2.336   3.271  -0.004  2.0249 -0.2808  0.3633
 1894TIP3    H2 5689   2.212   3.244   0.078 -0.3145  0.2847 -2.7881
 1895TIP3   OH2 5690   6.255   0.983   0.705  0.2039 -0.1781  0.2713
 1895TIP3    H1 5691   6.301   1.066   0.721  0.7767 -0.7188  1.5864
 1895TIP3    H2 5692   6.163   1.002   0.724  0.3250  0.1751  0.5152
 1896TIP3   OH2 5693   3.760   3.776   4.719  0.0088  0.2745  0.1480
 1896TIP3    H1 5694   3.693   3.842   4.702  1.5795  2.5733  2.2430
 1896TIP3    H2 5695   3.727   3.728   4.796 -0.7092 -0.8894 -0.8373
 1897TIP3   OH2 5696   1.202   2.400   3.724  0.0383 -0.1733  0.1065
 1897TIP3    H1 5697   1.241   2.315   3.746  0.3759 -0.5093 -1.6112
 1897TIP3    H2 5698   1.116   2.377   3.687 -0.8813  0.4171  1.7706
 1898TIP3   OH2 5699   5.949   3.541   1.715 -0.0922 -0.2443  0.3412
 1898TIP3    H1 5700   6.005   3.463   1.712 -0.2328 -0.3782  1.0576
 1898TIP3    H2 5701   5.946   3.565   1.807  1.7214  1.9055 -0.0643
 1899TIP3   OH2 5702   1.661   4.391   3.432  0.1729 -0.3238  0.0110
 1899TIP3    H1 5703   1.703   4.447   3.366  2.9999 -1.6395  0.5432
 1899TIP3    H2 5704   1.628   4.453   3.497  3.5256  0.8820  0.7743
 1900TIP3   OH2 5705   5.955   1.058   3.262  0.1153  0.0261  0.0031
 1900TIP3    H1 5706   5.915   1.144   3.272  1.1227  0.6447 -1.0496
 1900TIP3    H2 5707   5.933   1.032   3.172  0.1843 -0.6300  0.1698
 1901TIP3   OH2 5708   0.849   3.455   3.466 -0.5640  0.0746 -0.0448
 1901TIP3    H1 5709   0.895   3.406   3.534 -0.1213  1.7943  0.9705
 1901TIP3    H2 5710   0.774   3.401   3.443 -0.3792 -0.8342  1.3699
 1902TIP3   OH2 5711   4.423   3.736   2.416  0.1954  0.8677  0.4109
 1902TIP3    H1 5712   4.469   3.652   2.412  0.5517  1.0362  0.9118
 1902TIP3    H2 5713   4.330   3.712   2.412  0.2926  0.6078 -2.4006
 1903TIP3   OH2 5714   5.157   1.131   2.791 -0.0186 -0.5137 -0.0739
 1903TIP3    H1 5715   5.193   1.043   2.796 -1.2959 -1.1349 -1.0502
 1903TIP3    H2 5716   5.227   1.188   2.823  1.3635 -1.7407 -0.7874
 1904TIP3   OH2 5717   5.517   1.394   3.156  0.6469 -0.7789  0.7875
 1904TIP3    H1 5718   5.457   1.320   3.155 -1.7931  1.0345 -1.3830
 1904TIP3    H2 5719   5.472   1.460   3.210  1.2343  0.1948  0.1121
 1905TIP3   OH2 5720   2.171   1.058   2.713  0.4164  0.4432  0.3901
 1905TIP3    H1 5721   2.115   1.133   2.691  0.5818  0.7300  0.9408
 1905TIP3    H2 5722   2.112   0.983   2.708  0.4277  0.4988 -0.9550
 1906TIP3   OH2 5723   0.765   0.941   0.893  0.2614  0.4338 -0.0051
 1906TIP3    H1 5724   0.710   1.009   0.931 -0.0916  1.0444 -1.5615
 1906TIP3    H2 5725   0.749   0.946   0.799  0.0531 -1.9530 -0.1593
 1907TIP3   OH2 5726   5.995   4.541   0.081  0.0594  0.5441  0.8736
 1907TIP3    H1 5727   5.905   4.508   0.082 -0.1106  0.9497 -0.0535
 1907TIP3    H2 5728   6.002   4.594   0.160 -0.1654 -0.3595  1.5288
 1908TIP3   OH2 5729   1.092   5.238   3.420 -0.3475 -0.1302 -0.2408
 1908TIP3    H1 5730   1.156   5.167   3.421 -0.8407 -0.6158 -1.1954
 1908TIP3    H2 5731   1.123   5.299   3.486  0.8418 -0.5850 -0.3476
 1909TIP3   OH2 5732   3.268   3.008   1.509  0.0014  0.1716  0.4102
 1909TIP3    H1 5733   3.262   3.090   1.460  0.6234  0.2281  0.4297
 1909TIP3    H2 5734   3.275   2.940   1.442  1.2985  0.2850  0.4212
 1910TIP3   OH2 5735   2.762   3.011   1.541 -0.3783  0.1301 -0.5997
 1910TIP3    H1 5736   2.839   3.000   1.598 -1.1031 -0.9967  0.2054
 1910TIP3    H2 5737   2.742   3.104   1.547  0.6479  0.3587 -0.4636
 1911TIP3   OH2 5738   3.607   4.233   1.931  0.0084  0.0923 -1.1481
 1911TIP3    H1 5739   3.546   4.262   1.863 -1.2851 -1.4644 -0.7338
 1911TIP3    H2 5740   3.557   4.169   1.982  1.5802 -0.2490  0.0559
 1912TIP3   OH2 5741   5.468   5.083  -0.026 -0.1763 -0.4990 -0.2609
 1912TIP3    H1 5742   5.454   5.168   0.015 -1.8172 -0.8460 -0.0166
 1912TIP3    H2 5743   5.519   5.034   0.038  1.4648  0.5094 -0.7259
 1913TIP3   OH2 5744   2.597   5.733   0.542  0.6601  0.0171 -0.5446
 1913TIP3    H1 5745   2.664   5.679   0.502 -0.1352 -1.2605 -0.2148
 1913TIP3    H2 5746   2.628   5.748   0.632  0.2247 -1.1155 -0.1903
 1914TIP3   OH2 5747   5.690   2.141   1.595  0.4534 -0.1704 -0.0484
 1914TIP3    H1 5748   5.779   2.106   1.601  0.3303 -0.4797 -0.0079
 1914TIP3    H2 5749   5.680   2.193   1.675  0.8838  0.5522 -0.4471
 1915TIP3   OH2 5750   4.144   3.314   1.782  0.1236 -0.5538 -0.0852
 1915TIP3    H1 5751   4.189   3.295   1.865  0.0742 -0.8440 -0.1242
 1915TIP3    H2 5752   4.070   3.368   1.807  0.5872  0.0745 -0.0376
 1916TIP3   OH2 5753   0.172   3.991   3.152  0.9137 -0.3949  0.3217
 1916TIP3    H1 5754   0.085   3.952   3.151  0.8752 -0.4153  2.0195
 1916TIP3    H2 5755   0.192   4.007   3.060  0.0819 -2.5219 -0.2827
 1917TIP3   OH2 5756   0.403   1.208   4.704  0.4340 -0.3040 -0.2772
 1917TIP3    H1 5757   0.485   1.159   4.694  0.4421 -0.6948  1.3825
 1917TIP3    H2 5758   0.340   1.142   4.734 -0.3429  0.1173 -0.9447
 1918TIP3   OH2 5759   5.704   3.739   4.648  0.2628  0.3696  0.8056
 1918TIP3    H1 5760   5.616   3.722   4.682 -0.2758  0.3312 -0.5222
 1918TIP3    H2 5761   5.728   3.658   4.603  1.9577 -0.4806  3.0367
 1919TIP3   OH2 5762   2.192   2.612   2.216 -1.2324 -0.5782  0.1749
 1919TIP3    H1 5763   2.211   2.614   2.122 -1.2427 -1.1245  0.1591
 1919TIP3    H2 5764   2.279   2.614   2.257 -1.2264  2.0383  0.2317
 1920TIP3   OH2 5765   3.790   5.660   0.600 -0.5289  0.0457 -0.8524
 1920TIP3    H1 5766   3.812   5.740   0.553 -1.2703  0.9188  0.2587
 1920TIP3    H2 5767   3.754   5.689   0.683 -2.6310 -1.3940 -1.1819
 1921TIP3   OH2 5768   6.057   2.498   2.668 -0.0657  0.1317 -0.6731
 1921TIP3    H1 5769   6.048   2.556   2.592 -0.6913  0.5846 -0.2705
 1921TIP3    H2 5770   5.978   2.515   2.720 -0.0537 -0.7881 -0.3373
 1922TIP3   OH2 5771   2.166   5.100   4.586  0.8308 -0.0849  0.4572
 1922TIP3    H1 5772   2.138   5.012   4.562  1.4939 -0.4072  0.8049
 1922TIP3    H2 5773   2.180   5.095   4.681  1.3749  0.2460  0.3987
 1923TIP3   OH2 5774   2.198   1.475   4.039 -0.2930  0.1924  0.5531
 1923TIP3    H1 5775   2.250   1.433   4.108 -0.1052 -1.0265 -0.2849
 1923TIP3    H2 5776   2.235   1.562   4.030 -0.5197  0.4803  2.1953
 1924TIP3   OH2 5777   5.672   0.962   0.332  0.7879  0.3424 -0.2009
 1924TIP3    H1 5778   5.658   1.049   0.293  2.8443  0.9510  0.2707
 1924TIP3    H2 5779   5.584   0.927   0.346 -0.1411  2.7740  0.5326
 1925TIP3   OH2 5780   0.905   4.394   5.032 -0.2937 -0.6927 -0.5821
 1925TIP3    H1 5781   0.932   4.486   5.027  1.3876 -1.0412  1.1681
 1925TIP3    H2 5782   0.949   4.352   4.958  1.0051 -0.5302  0.0696
 1926TIP3   OH2 5783   1.695   1.950   4.427  0.5692 -0.1159  0.8382
 1926TIP3    H1 5784   1.682   2.011   4.499 -0.1116 -0.5507  1.0981
 1926TIP3    H2 5785   1.786   1.922   4.435  0.4705 -0.2372  1.6023
 1927TIP3   OH2 5786   2.635   5.219   1.897 -0.6052 -0.5221 -0.5719
 1927TIP3    H1 5787   2.643   5.264   1.813 -0.1235 -0.3590 -0.4451
 1927TIP3    H2 5788   2.677   5.134   1.884 -1.6839 -1.0330 -0.8666
 1928TIP3   OH2 5789   6.112   3.083   2.971  0.2390  0.0525 -0.1816
 1928TIP3    H1 5790   6.042   3.031   3.009  0.4435  1.3039  2.0471
 1928TIP3    H2 5791   6.069   3.163   2.940  0.2868 -0.3944 -1.4980
 1929TIP3   OH2 5792   3.863   0.674   0.297 -0.2188 -0.0717 -0.6962
 1929TIP3    H1 5793   3.898   0.596   0.340  0.0530  1.1847  1.5237
 1929TIP3    H2 5794   3.939   0.732   0.287 -0.8979  1.0908  0.5021
 1930TIP3   OH2 5795   5.627   4.791   1.783 -0.1667  0.3149  0.5377
 1930TIP3    H1 5796   5.647   4.725   1.716  1.2025  0.9166  0.3174
 1930TIP3    H2 5797   5.700   4.852   1.779  0.2530  0.0657  2.9817
 1931TIP3   OH2 5798   3.315   4.964   3.525 -0.2646  0.0070  0.6150
 1931TIP3    H1 5799   3.253   4.897   3.496 -0.2285 -0.0214  0.6040
 1931TIP3    H2 5800   3.299   5.038   3.467  0.1304 -0.2136  0.2147
 1932TIP3   OH2 5801   3.722   4.148   4.480 -0.0666  0.0414 -0.0159
 1932TIP3    H1 5802   3.703   4.228   4.431  0.7975  0.4738  0.3291
 1932TIP3    H2 5803   3.725   4.079   4.415  0.6235  0.5324 -0.5059
 1933TIP3   OH2 5804   6.200   2.254   4.863 -0.0788 -0.7078 -0.1489
 1933TIP3    H1 5805   6.202   2.350   4.859  0.3033 -0.7500 -1.8486
 1933TIP3    H2 5806   6.269   2.231   4.926 -1.0399  0.1397  1.2746
 1934TIP3   OH2 5807   4.831   0.685   3.922  0.0479 -0.1074  0.2038
 1934TIP3    H1 5808   4.869   0.613   3.873 -1.3296 -0.3620 -0.5359
 1934TIP3    H2 5809   4.906   0.731   3.959  0.9730 -1.7022  0.4108
 1935TIP3   OH2 5810   6.065   3.830   2.685 -0.2331 -0.2252 -0.4483
 1935TIP3    H1 5811   6.038   3.848   2.775  2.5794  0.7743  0.3205
 1935TIP3    H2 5812   6.044   3.911   2.638  0.0576 -0.0130 -0.2178
 1936TIP3   OH2 5813   3.222   0.276   2.918  0.1148 -0.8318  0.1430
 1936TIP3    H1 5814   3.245   0.186   2.894 -0.3993 -0.9583  0.1125
 1936TIP3    H2 5815   3.128   0.283   2.899 -0.3327 -0.9418  2.1099
 1937TIP3   OH2 5816   3.752   2.633   3.371  0.1112 -0.0532 -0.8864
 1937TIP3    H1 5817   3.683   2.595   3.317  0.0268 -0.1283 -0.7280
 1937TIP3    H2 5818   3.826   2.573   3.364 -0.9041 -1.7662  1.5266
 1938TIP3   OH2 5819   4.089   2.969   4.554  0.3560  0.2853 -0.2720
 1938TIP3    H1 5820   4.047   2.884   4.544  0.5950  0.2027 -0.6030
 1938TIP3    H2 5821   4.106   2.998   4.464  1.9112 -0.1445 -0.1469
 1939TIP3   OH2 5822   6.328   5.866   1.230  0.0229  0.5053  0.6759
 1939TIP3    H1 5823   6.248   5.863   1.178  0.1390  0.6805  0.4863
 1939TIP3    H2 5824   6.398   5.847   1.168  0.2752  1.8549  0.5073
 1940TIP3   OH2 5825   2.762   0.076   1.195  0.6717 -0.2591  0.1841
 1940TIP3    H1 5826   2.708   0.086   1.273 -1.2933  0.5588 -1.1899
 1940TIP3    H2 5827   2.751  -0.016   1.169  0.2776 -0.2090  0.1670
 1941TIP3   OH2 5828   4.110   0.448   0.160 -0.6062 -0.2913  0.0600
 1941TIP3    H1 5829   4.067   0.429   0.244 -1.7191  1.3435 -0.0967
 1941TIP3    H2 5830   4.042   0.488   0.106  0.5598  0.3665 -0.9841
 1942TIP3   OH2 5831   4.079   4.151   1.470 -0.1067  0.2570 -0.1232
 1942TIP3    H1 5832   3.996   4.197   1.483 -0.2007  0.4027 -1.1122
 1942TIP3    H2 5833   4.146   4.217   1.487 -0.1893  0.1949  0.4721
 1943TIP3   OH2 5834   1.698   1.735   1.515  0.3803 -0.7008  0.1041
 1943TIP3    H1 5835   1.787   1.749   1.545  0.3753  0.0358 -0.2131
 1943TIP3    H2 5836   1.702   1.651   1.468  1.0669 -0.3458 -0.5011
 1944TIP3   OH2 5837   2.458   0.929   3.829 -0.5540 -0.1917  0.0400
 1944TIP3    H1 5838   2.469   0.907   3.737 -1.3003  0.3450 -0.1935
 1944TIP3    H2 5839   2.363   0.929   3.842 -0.4486 -0.4073  0.8461
 1945TIP3   OH2 5840   1.675   5.903   3.558  0.2128  0.3501 -0.2502
 1945TIP3    H1 5841   1.644   5.984   3.598 -0.8535 -0.9312  1.6498
 1945TIP3    H2 5842   1.667   5.918   3.464 -0.9935  2.0439  0.0846
 1946TIP3   OH2 5843   5.592   2.569   4.287 -0.3624 -0.1003 -0.6961
 1946TIP3    H1 5844   5.598   2.505   4.357  0.5571  0.0726 -0.5945
 1946TIP3    H2 5845   5.499   2.573   4.265 -0.5604 -0.7081 -0.0075
 1947TIP3   OH2 5846   4.208   4.448   0.381  0.3398  0.2596 -0.0742
 1947TIP3    H1 5847   4.222   4.362   0.343 -0.1491  0.0190  0.2807
 1947TIP3    H2 5848   4.171   4.431   0.468  0.3635  0.8218  0.0555
 1948TIP3   OH2 5849   4.266   4.847   1.775  0.3671  0.1151  0.0083
 1948TIP3    H1 5850   4.188   4.897   1.799  0.3775  1.9621 -3.2202
 1948TIP3    H2 5851   4.231   4.761   1.748 -0.2406  0.0522  0.9652
 1949TIP3   OH2 5852   4.873   4.015   0.048  0.5984 -0.5618  0.4314
 1949TIP3    H1 5853   4.805   3.971  -0.003 -0.3276 -0.1828  1.3112
 1949TIP3    H2 5854   4.861   3.984   0.137  1.9438 -0.9013  0.5239
 1950TIP3   OH2 5855   2.773   3.420   4.241 -0.3171 -0.5202 -0.0652
 1950TIP3    H1 5856   2.793   3.484   4.309 -1.3424 -1.9385  1.6742
 1950TIP3    H2 5857   2.748   3.341   4.289  2.0473 -2.6868 -2.0665
 1951TIP3   OH2 5858   2.215   1.798   1.935 -0.3226 -0.1306 -0.9683
 1951TIP3    H1 5859   2.150   1.868   1.936  0.2149  0.3684 -0.3883
 1951TIP3    H2 5860   2.202   1.751   2.017  0.9178  0.8066 -0.1956
 1952TIP3   OH2 5861   0.329   5.938   0.074 -0.0110 -0.0119  0.6186
 1952TIP3    H1 5862   0.392   5.870   0.050 -0.7846 -0.2892 -0.7348
 1952TIP3    H2 5863   0.383   6.014   0.096  0.8292  0.0636 -1.4482
 1953TIP3   OH2 5864   4.191   3.433   4.709  0.3404  0.3358  0.2859
 1953TIP3    H1 5865   4.115   3.395   4.664 -0.5686  1.9882  0.3507
 1953TIP3    H2 5866   4.186   3.397   4.797 -0.8404  1.0179  0.5196
 1954TIP3   OH2 5867   1.359   1.984   1.877 -0.2999  0.2017 -0.4702
 1954TIP3    H1 5868   1.377   2.023   1.962  0.4565  0.9365 -0.9504
 1954TIP3    H2 5869   1.362   1.889   1.892  0.0139  0.3276  0.2792
 1955TIP3   OH2 5870   2.325   2.627   1.005 -0.3595 -0.1328 -0.4096
 1955TIP3    H1 5871   2.389   2.571   1.050 -0.9186 -0.9762 -0.6312
 1955TIP3    H2 5872   2.254   2.567   0.981 -0.5482  0.5081 -1.4889
 1956TIP3   OH2 5873   0.907   4.299   3.775  0.1183 -0.1582 -0.0374
 1956TIP3    H1 5874   0.827   4.259   3.809 -0.4265  1.0062  0.1097
 1956TIP3    H2 5875   0.955   4.227   3.735 -0.0515 -1.2482  1.6297
 1957TIP3   OH2 5876   2.816   4.990   0.381  0.7770 -0.1569  0.3136
 1957TIP3    H1 5877   2.775   4.927   0.441  1.6295 -0.7519  0.3033
 1957TIP3    H2 5878   2.764   4.984   0.301 -1.6180  2.1064  1.5604
 1958TIP3   OH2 5879   4.462   0.847   1.941 -0.1834 -0.4344 -0.1742
 1958TIP3    H1 5880   4.367   0.855   1.936 -0.3174 -1.2994  0.6779
 1958TIP3    H2 5881   4.489   0.819   1.854 -0.7710 -0.6861 -0.2759
 1959TIP3   OH2 5882   5.352   5.518   0.031  0.5559 -0.3134  0.2155
 1959TIP3    H1 5883   5.336   5.465   0.109  2.7547  0.1212  1.0205
 1959TIP3    H2 5884   5.385   5.602   0.064 -1.0316  0.9117 -1.1059
 1960TIP3   OH2 5885   2.791   4.887   2.950  0.4351 -0.2725 -0.5275
 1960TIP3    H1 5886   2.803   4.919   2.860  0.0939 -1.6068 -1.0791
 1960TIP3    H2 5887   2.773   4.966   3.001  0.5443  0.5078 -1.6472
 1961TIP3   OH2 5888   4.526   0.701   1.059  0.2665 -0.3393 -0.6473
 1961TIP3    H1 5889   4.463   0.761   1.019 -1.3817  0.0208  2.2412
 1961TIP3    H2 5890   4.501   0.615   1.024 -1.0127 -0.0309 -0.5648
 1962TIP3   OH2 5891   1.926   4.748   0.372  0.0004 -0.1893 -0.0083
 1962TIP3    H1 5892   1.861   4.689   0.333  0.3243 -0.0974 -0.7073
 1962TIP3    H2 5893   1.905   4.749   0.465 -2.2583  1.3687 -0.4494
 1963TIP3   OH2 5894   4.972   3.392   1.579  0.2988 -0.2498 -0.3320
 1963TIP3    H1 5895   5.043   3.415   1.640 -0.2538  0.7430 -0.0448
 1963TIP3    H2 5896   4.911   3.465   1.585 -0.5387 -0.8897 -0.9093
 1964TIP3   OH2 5897   2.623   5.128   0.808 -0.6645  0.0756  0.0538
 1964TIP3    H1 5898   2.660   5.194   0.866 -1.3054 -0.0884  0.6550
 1964TIP3    H2 5899   2.532   5.118   0.837 -0.2827 -1.8560  0.7159
 1965TIP3   OH2 5900   3.873   1.313   3.027 -0.2467  0.5775 -0.2039
 1965TIP3    H1 5901   3.865   1.405   3.052  0.4348  0.1191  1.8750
 1965TIP3    H2 5902   3.807   1.268   3.079  0.3643 -0.2826 -0.1484
 1966TIP3   OH2 5903   3.193   5.598   0.131  0.0965 -0.2283  0.0217
 1966TIP3    H1 5904   3.277   5.561   0.105 -0.9014 -1.7913 -1.1236
 1966TIP3    H2 5905   3.138   5.591   0.053 -1.5590 -0.6825  1.1771
 1967TIP3   OH2 5906   1.736   1.098   1.545 -0.0512  0.3794 -0.2987
 1967TIP3    H1 5907   1.696   1.134   1.466 -0.3433  0.7505  0.0127
 1967TIP3    H2 5908   1.666   1.050   1.589  0.4877 -1.1167 -1.0192
 1968TIP3   OH2 5909   4.523   0.438   0.192 -0.1027  0.7044  0.6299
 1968TIP3    H1 5910   4.560   0.355   0.164 -0.8557  0.2199  1.0444
 1968TIP3    H2 5911   4.572   0.462   0.270 -0.4266  0.2334  0.9839
 1969TIP3   OH2 5912   3.835   3.614   2.156  0.0601 -0.4285  0.5618
 1969TIP3    H1 5913   3.765   3.674   2.184 -0.5887 -1.6390  1.6140
 1969TIP3    H2 5914   3.808   3.528   2.188 -0.8056 -2.0374 -3.8590
 1970TIP3   OH2 5915   5.356   4.743   1.702  0.3944 -0.3930 -0.1458
 1970TIP3    H1 5916   5.362   4.830   1.663 -0.5294 -0.3967 -0.3282
 1970TIP3    H2 5917   5.439   4.731   1.747  1.7336 -0.5602 -2.4768
 1971TIP3   OH2 5918   1.212   4.600   0.716  0.3662 -0.6100  0.1794
 1971TIP3    H1 5919   1.144   4.640   0.662 -1.0579 -0.9347  1.6575
 1971TIP3    H2 5920   1.293   4.617   0.668 -0.8707 -1.6135 -2.4653
 1972TIP3   OH2 5921   5.924   4.802   2.307 -0.0833 -0.2123  0.2315
 1972TIP3    H1 5922   5.927   4.722   2.254 -0.8492 -0.5792  0.7207
 1972TIP3    H2 5923   5.975   4.780   2.385  1.2286  0.3991 -0.4182
 1973TIP3   OH2 5924   0.069   1.796   5.034 -0.0362  0.2010  0.2213
 1973TIP3    H1 5925   0.085   1.771   5.125 -0.0795 -1.3956 -0.1757
 1973TIP3    H2 5926  -0.026   1.789   5.023 -0.0113  0.1860  0.0070
 1974TIP3   OH2 5927   0.948   4.621   1.255 -0.1990  0.2314  0.2825
 1974TIP3    H1 5928   0.959   4.593   1.164 -1.3617  0.6209 -0.0001
 1974TIP3    H2 5929   1.036   4.620   1.292  0.1256 -1.1121 -0.4930
 1975TIP3   OH2 5930   3.157   2.183   1.625  0.1537  0.0410  0.1954
 1975TIP3    H1 5931   3.155   2.175   1.530 -2.1089 -0.0151  0.1958
 1975TIP3    H2 5932   3.222   2.118   1.654  0.8757  0.0726 -1.2771
 1976TIP3   OH2 5933   2.902   2.118   4.807  0.1846  0.5979  0.0225
 1976TIP3    H1 5934   2.970   2.051   4.802  0.3600  0.8422 -2.3672
 1976TIP3    H2 5935   2.937   2.184   4.867  0.7316 -0.6450  1.1089
 1977TIP3   OH2 5936   4.777   1.516   3.801  0.1427  0.4858  0.6504
 1977TIP3    H1 5937   4.756   1.491   3.891  1.1857 -4.6289 -0.2327
 1977TIP3    H2 5938   4.870   1.539   3.803  0.0003  1.0425  0.9610
 1978TIP3   OH2 5939   2.056   2.570   4.814 -0.0047 -0.1432  0.0193
 1978TIP3    H1 5940   1.968   2.562   4.776 -0.3783 -2.1336  1.1334
 1978TIP3    H2 5941   2.109   2.508   4.765  0.2376 -0.5165  0.7439
 1979TIP3   OH2 5942   0.102   0.980   1.128  0.2047 -0.0932  0.0866
 1979TIP3    H1 5943   0.059   0.932   1.057  1.2545 -1.2321  0.1832
 1979TIP3    H2 5944   0.079   1.072   1.113 -1.3159 -0.5375 -0.4893
 1980TIP3   OH2 5945   4.742   2.521   0.130  0.0012 -0.2250 -0.1997
 1980TIP3    H1 5946   4.798   2.499   0.055 -0.4356 -1.5711 -0.1422
 1980TIP3    H2 5947   4.775   2.607   0.159  1.3942 -0.5377 -0.7659
 1981TIP3   OH2 5948   2.296   0.321   2.987  0.4194 -0.2073  0.1122
 1981TIP3    H1 5949   2.242   0.359   3.056 -1.0836  2.0145 -2.1043
 1981TIP3    H2 5950   2.270   0.230   2.983 -0.5486 -0.0248  1.4438
 1982TIP3   OH2 5951   4.953   4.655   5.142 -0.2025  0.6388 -0.1466
 1982TIP3    H1 5952   4.862   4.643   5.171  0.2932  1.0460  1.6845
 1982TIP3    H2 5953   4.958   4.748   5.119  0.0392  0.8836  0.8697
 1983TIP3   OH2 5954   1.042   1.960   2.699 -0.3255 -0.0411 -0.4047
 1983TIP3    H1 5955   0.996   1.946   2.615 -1.3892 -2.1676  0.4437
 1983TIP3    H2 5956   1.015   1.886   2.753  3.0939 -0.6465  0.6657
 1984TIP3   OH2 5957   1.673   0.394   4.740  0.0416 -0.0851  0.1369
 1984TIP3    H1 5958   1.654   0.303   4.764  0.7954  0.4829  3.3522
 1984TIP3    H2 5959   1.591   0.440   4.756  0.3075  0.1642  0.8063
 1985TIP3   OH2 5960   5.271   4.054   3.334 -0.3527 -0.1033 -0.1038
 1985TIP3    H1 5961   5.180   4.083   3.320 -0.0310  0.9774 -0.0900
 1985TIP3    H2 5962   5.315   4.075   3.251 -0.5410 -2.5144 -0.8766
 1986TIP3   OH2 5963   1.565   2.853   2.132  0.4266  0.0715 -0.4050
 1986TIP3    H1 5964   1.659   2.871   2.132  0.4082  0.2513  0.8682
 1986TIP3    H2 5965   1.547   2.820   2.044  1.5702  0.5836 -0.8529
 1987TIP3   OH2 5966   5.459   2.486   2.899 -0.2132  0.0843  0.2043
 1987TIP3    H1 5967   5.510   2.455   2.974 -0.1446 -0.9979 -0.2683
 1987TIP3    H2 5968   5.408   2.559   2.933  1.6970  1.2819  0.6778
 1988TIP3   OH2 5969   0.936   4.630   0.256 -0.4492 -0.2326 -0.0654
 1988TIP3    H1 5970   0.946   4.538   0.280  0.1372 -0.6874 -1.8640
 1988TIP3    H2 5971   0.842   4.647   0.261 -0.6080 -1.0735 -0.1610
 1989TIP3   OH2 5972   3.778   4.280   5.044 -0.5862  0.4877  0.1049
 1989TIP3    H1 5973   3.779   4.189   5.072 -1.3647  1.0322  2.0260
 1989TIP3    H2 5974   3.844   4.285   4.974  2.0388 -0.7924  2.3398
 1990TIP3   OH2 5975   5.701   1.007   1.887 -0.5285  0.2607 -0.3341
 1990TIP3    H1 5976   5.623   0.954   1.870 -0.0435 -0.6558  0.2175
 1990TIP3    H2 5977   5.668   1.085   1.930 -1.0371 -0.7431  1.1802
 1991TIP3   OH2 5978   5.176   2.576   1.677  0.1099  0.1149  0.3838
 1991TIP3    H1 5979   5.244   2.545   1.616  0.2259 -0.7709  0.9426
 1991TIP3    H2 5980   5.182   2.516   1.751  0.0136  1.2345  1.3102
 1992TIP3   OH2 5981   3.823   5.724   0.134 -0.0958 -0.2466  0.1111
 1992TIP3    H1 5982   3.894   5.787   0.126  0.1065 -0.5719 -0.6648
 1992TIP3    H2 5983   3.752   5.761   0.082 -1.2420  1.0686  2.4217
 1993TIP3   OH2 5984   0.015   1.219   3.653 -0.1292 -0.0652 -0.1898
 1993TIP3    H1 5985   0.009   1.123   3.655  0.1082 -0.0906 -0.7289
 1993TIP3    H2 5986  -0.021   1.244   3.568 -1.2655  0.4048  0.4037
 1994TIP3   OH2 5987   1.407   5.146   3.593 -0.0041  0.3410 -0.3021
 1994TIP3    H1 5988   1.423   5.175   3.503 -1.7397 -0.0242 -0.7743
 1994TIP3    H2 5989   1.385   5.226   3.641 -0.8047  0.3293 -0.6366
 1995TIP3   OH2 5990   2.980   3.954   3.771  0.6494  0.5812  0.2907
 1995TIP3    H1 5991   2.946   4.043   3.784 -0.0117  0.1413  1.7611
 1995TIP3    H2 5992   2.910   3.909   3.723  0.7493  0.6970  0.0344
 1996TIP3   OH2 5993   4.554   5.066   2.010  0.0663 -0.3550 -0.2402
 1996TIP3    H1 5994   4.633   5.082   1.958 -1.3986 -0.2608 -2.6011
 1996TIP3    H2 5995   4.498   5.142   1.993 -1.1242 -1.1100  0.1499
 1997TIP3   OH2 5996   3.918   1.297   1.488 -0.1319  0.2269 -0.0466
 1997TIP3    H1 5997   3.896   1.299   1.394 -1.5323 -0.3455  0.2328
 1997TIP3    H2 5998   3.982   1.367   1.500 -1.3173  1.5525 -1.1098
 1998TIP3   OH2 5999   2.929   4.197   3.361  0.1960  0.0904 -0.4060
 1998TIP3    H1 6000   2.878   4.203   3.280  1.6459 -0.1706 -1.3914
 1998TIP3    H2 6001   2.983   4.119   3.349 -1.6228 -1.7031  2.0994
 1999TIP3   OH2 6002   1.373   2.499   4.836 -0.6470 -0.0952  0.2988
 1999TIP3    H1 6003   1.335   2.547   4.910 -1.0883  0.7682 -0.4670
 1999TIP3    H2 6004   1.377   2.408   4.866 -0.5081  0.2949  1.4973
 2000TIP3   OH2 6005   0.944   2.308   0.899  0.2906  0.0379  0.6995
 2000TIP3    H1 6006   1.034   2.279   0.911  0.9215  2.3708  2.1279
 2000TIP3    H2 6007   0.951   2.392   0.855 -1.3630 -0.7460 -1.2580
 2001TIP3   OH2 6008   0.464   3.137   0.948 -0.1189 -0.2116  0.2420
 2001TIP3    H1 6009   0.444   3.046   0.923 -0.2023 -0.1031 -0.0812
 2001TIP3    H2 6010   0.468   3.185   0.866 -2.1931  0.5133  0.4934
 2002TIP3   OH2 6011   5.364   2.739   0.169  0.0064 -1.2490  0.2463
 2002TIP3    H1 6012   5.400   2.762   0.255  1.3169  0.0749 -0.6128
 2002TIP3    H2 6013   5.270   2.751   0.179  0.2339  0.0139  1.1997
 2003TIP3   OH2 6014   0.882   4.136   2.514 -0.5188  0.0610 -0.0848
 2003TIP3    H1 6015   0.831   4.143   2.595 -0.7020  0.0785 -0.2012
 2003TIP3    H2 6016   0.966   4.099   2.542 -1.1496 -1.4767 -0.1044
 2004TIP3   OH2 6017   1.541   3.394   2.234 -0.4734  0.1427  0.2123
 2004TIP3    H1 6018   1.534   3.437   2.149 -0.8272  2.7183  1.4553
 2004TIP3    H2 6019   1.621   3.429   2.273 -0.6176 -0.5474  1.1648
 2005TIP3   OH2 6020   5.191   1.521   1.356 -0.2924 -0.0683 -0.3901
 2005TIP3    H1 6021   5.198   1.441   1.304  0.3950 -1.0174  1.0766
 2005TIP3    H2 6022   5.099   1.526   1.381 -0.1580 -1.0070  0.3599
 2006TIP3   OH2 6023   3.011   3.445   3.600  0.2706  0.3755  0.8025
 2006TIP3    H1 6024   3.046   3.395   3.673  0.3937 -0.0572  0.4535
 2006TIP3    H2 6025   2.917   3.452   3.618  0.0883 -0.7652  0.4185
 2007TIP3   OH2 6026   1.141   3.734   2.788 -0.3712 -0.0597  0.0009
 2007TIP3    H1 6027   1.101   3.679   2.855 -3.7043  1.1043 -0.8346
 2007TIP3    H2 6028   1.182   3.672   2.727 -0.3901 -1.3215  1.2310
 2008TIP3   OH2 6029   4.658   4.852   0.154  0.2269 -0.0460  0.0289
 2008TIP3    H1 6030   4.636   4.759   0.161 -1.2635  0.2861 -0.0253
 2008TIP3    H2 6031   4.585   4.891   0.107  1.3484  0.9843 -0.9258
 2009TIP3   OH2 6032   2.245   5.040   3.789 -0.3885  0.1187  0.7257
 2009TIP3    H1 6033   2.225   5.062   3.880  2.1149 -0.0568  1.3781
 2009TIP3    H2 6034   2.323   5.091   3.768 -1.3834  0.8115 -1.6410
 2010TIP3   OH2 6035   6.268   0.566   3.035  0.0513  0.2036  0.0886
 2010TIP3    H1 6036   6.315   0.518   2.967  0.8941 -0.6459  1.2372
 2010TIP3    H2 6037   6.276   0.512   3.114  0.6511  1.9801  1.3374
 2011TIP3   OH2 6038   0.245   3.265   1.581 -0.0438 -0.3632  0.5304
 2011TIP3    H1 6039   0.275   3.336   1.637 -0.3615  2.0174 -2.0480
 2011TIP3    H2 6040   0.324   3.232   1.539 -0.0653 -0.3486  0.4773
 2012TIP3   OH2 6041   5.132   5.397   1.560  0.0856 -0.0416 -0.1128
 2012TIP3    H1 6042   5.079   5.403   1.480 -0.9761 -1.2580  0.4533
 2012TIP3    H2 6043   5.117   5.480   1.605 -0.1403  0.2356 -0.6881
 2013TIP3   OH2 6044   0.666   1.876   3.965  0.6228 -0.4161 -0.0365
 2013TIP3    H1 6045   0.614   1.945   3.925  3.3133  0.8437 -1.6571
 2013TIP3    H2 6046   0.699   1.915   4.047 -0.6622 -1.1137  0.8489
 2014TIP3   OH2 6047   3.640   5.931   4.411  0.5960 -0.2161  0.6968
 2014TIP3    H1 6048   3.619   6.016   4.374  1.2154 -0.1782  0.4102
 2014TIP3    H2 6049   3.556   5.894   4.439  0.2216  0.0981 -0.0095
 2015TIP3   OH2 6050   1.757   2.826   4.855  0.2998  0.2128  0.2855
 2015TIP3    H1 6051   1.787   2.873   4.777  0.7629  1.6910  1.3131
 2015TIP3    H2 6052   1.705   2.753   4.820  0.6623  0.7025 -1.3956
 2016TIP3   OH2 6053   1.518   4.635   0.821  0.1482 -0.7853  0.0649
 2016TIP3    H1 6054   1.564   4.707   0.865  1.4934 -1.6712  0.1844
 2016TIP3    H2 6055   1.477   4.676   0.745  0.4975  0.1955  0.3804
 2017TIP3   OH2 6056   5.865   1.943   0.951  0.3007  0.0597 -0.1839
 2017TIP3    H1 6057   5.841   1.871   0.893 -0.6305  0.4204 -0.2721
 2017TIP3    H2 6058   5.955   1.964   0.927  0.1279 -0.1814 -1.1015
 2018TIP3   OH2 6059   4.434   0.413   3.663 -0.2203 -0.0900 -0.0371
 2018TIP3    H1 6060   4.483   0.439   3.585 -0.4932 -1.5908 -0.7550
 2018TIP3    H2 6061   4.342   0.412   3.635 -0.4171  0.1983  0.5655
 2019TIP3   OH2 6062   3.298   4.901   1.502  0.0668 -0.5247  0.2182
 2019TIP3    H1 6063   3.256   4.855   1.429  0.7771 -0.1777 -0.4285
 2019TIP3    H2 6064   3.230   4.908   1.568 -0.8739 -0.0719 -0.7592
 2020TIP3   OH2 6065   0.608   4.268   0.677  0.4387  0.4212 -0.1161
 2020TIP3    H1 6066   0.583   4.357   0.653  1.3689  0.3104 -1.6357
 2020TIP3    H2 6067   0.540   4.213   0.638  0.5099  0.4029 -0.2160
 2021TIP3   OH2 6068   1.057   1.407   3.028  0.2135 -0.2657  0.4041
 2021TIP3    H1 6069   1.115   1.355   3.083 -1.4134 -1.5805  0.9648
 2021TIP3    H2 6070   1.053   1.492   3.070 -1.7357 -1.5077  2.9964
 2022TIP3   OH2 6071   1.202   1.404   2.764  0.5466  0.0439 -0.1328
 2022TIP3    H1 6072   1.193   1.340   2.693 -0.0290  0.5586 -0.5275
 2022TIP3    H2 6073   1.113   1.415   2.797  0.5241  1.1742 -0.5349
 2023TIP3   OH2 6074   2.884   2.665   1.309  0.4780 -0.0453  0.5904
 2023TIP3    H1 6075   2.947   2.597   1.284 -0.4543 -0.0805 -1.9780
 2023TIP3    H2 6076   2.907   2.740   1.255 -0.5241  0.5604  0.9829
 2024TIP3   OH2 6077   6.175   2.762   3.014  0.4919 -0.5176  0.3850
 2024TIP3    H1 6078   6.159   2.793   2.924 -1.9082 -0.8879  0.6339
 2024TIP3    H2 6079   6.184   2.667   3.005 -0.4735 -0.6397  0.5904
 2025TIP3   OH2 6080   2.478   3.149   0.386 -0.6287  0.3982 -0.2913
 2025TIP3    H1 6081   2.436   3.119   0.305  0.0483 -0.1808 -0.4375
 2025TIP3    H2 6082   2.496   3.069   0.435 -0.2768  0.6825  0.0526
 2026TIP3   OH2 6083   4.697   1.684   0.626 -0.0790  0.3923 -0.0102
 2026TIP3    H1 6084   4.749   1.760   0.654 -1.5291  1.0561  0.9882
 2026TIP3    H2 6085   4.730   1.612   0.679  0.6211  0.5284 -0.2380
 2027TIP3   OH2 6086   3.523   5.582   1.559 -0.4242  0.3644 -0.6665
 2027TIP3    H1 6087   3.569   5.555   1.480 -1.3649 -0.9033 -0.8258
 2027TIP3    H2 6088   3.576   5.547   1.631 -1.1571 -1.2452 -0.8532
 2028TIP3   OH2 6089   3.597   0.338   2.123  0.0334  1.0068 -0.2607
 2028TIP3    H1 6090   3.676   0.381   2.090  0.0855 -0.3888 -2.1643
 2028TIP3    H2 6091   3.582   0.266   2.062 -0.1048 -1.6471  2.6465
 2029TIP3   OH2 6092   2.596   2.188   3.013 -1.0556 -0.7167 -0.0389
 2029TIP3    H1 6093   2.601   2.094   3.033 -1.0341 -0.3464  1.9569
 2029TIP3    H2 6094   2.685   2.220   3.028 -0.6899 -0.6138 -2.2365
 2030TIP3   OH2 6095   0.778   5.404   2.494  0.3807  0.6129 -0.4587
 2030TIP3    H1 6096   0.699   5.356   2.519  0.3078  0.0114 -1.7508
 2030TIP3    H2 6097   0.752   5.456   2.418  1.6669 -1.0943 -2.1564
 2031TIP3   OH2 6098   2.728   3.149   0.010  0.0169  0.4379  0.1649
 2031TIP3    H1 6099   2.646   3.101   0.024 -0.3531  0.3107 -1.9855
 2031TIP3    H2 6100   2.711   3.237   0.042 -1.2177  0.5900 -0.8426
 2032TIP3   OH2 6101   5.050   0.069   3.564  0.0525  0.2668  0.2158
 2032TIP3    H1 6102   4.973   0.116   3.533  0.3121  0.5467 -0.0099
 2032TIP3    H2 6103   5.124   0.110   3.518  0.2837 -0.3531  0.0227
 2033TIP3   OH2 6104   4.838   2.252   4.700  0.2071 -0.2243  0.8893
 2033TIP3    H1 6105   4.910   2.222   4.644  1.6374  0.9360  2.0185
 2033TIP3    H2 6106   4.856   2.345   4.714 -2.0197  0.3177  0.5151
 2034TIP3   OH2 6107   4.112   0.723   2.202  0.6595  0.7600 -0.4681
 2034TIP3    H1 6108   4.180   0.711   2.134  0.8801  0.9965 -0.2912
 2034TIP3    H2 6109   4.136   0.660   2.270  1.7478  2.0540  0.4057
 2035TIP3   OH2 6110   5.755   2.553   0.456 -0.6106  0.2627 -0.1863
 2035TIP3    H1 6111   5.711   2.629   0.494 -0.8987  0.0987 -0.1871
 2035TIP3    H2 6112   5.748   2.486   0.524 -1.6770 -0.2330 -0.7490
 2036TIP3   OH2 6113   5.274   2.705   3.726 -0.0850  0.0973 -0.3515
 2036TIP3    H1 6114   5.323   2.713   3.644 -1.0527  3.1329 -0.7919
 2036TIP3    H2 6115   5.341   2.709   3.794  0.5422  1.1497 -0.9895
 2037TIP3   OH2 6116   3.445   1.639   1.225 -0.4543 -0.0844 -0.2725
 2037TIP3    H1 6117   3.419   1.569   1.285 -0.9948  1.3654  1.2335
 2037TIP3    H2 6118   3.514   1.600   1.171 -1.1277 -1.9432  0.1306
 2038TIP3   OH2 6119   5.137   3.097   3.880  0.5824  0.3643 -0.0151
 2038TIP3    H1 6120   5.115   3.155   3.953  1.3266  0.5908  0.0422
 2038TIP3    H2 6121   5.191   3.151   3.822  1.1623 -0.2243 -0.0314
 2039TIP3   OH2 6122   1.929   4.597   3.659 -0.1061 -0.4944 -0.3090
 2039TIP3    H1 6123   1.928   4.505   3.685 -0.0613 -0.8718 -1.5439
 2039TIP3    H2 6124   1.888   4.643   3.732  0.1254 -1.4542  0.4562
 2040TIP3   OH2 6125   2.560   4.786   1.737  0.1882  0.0730 -0.6071
 2040TIP3    H1 6126   2.529   4.700   1.710 -0.8069  0.5890 -1.1959
 2040TIP3    H2 6127   2.482   4.829   1.774  0.9330  0.3198  0.7495
 2041TIP3   OH2 6128   5.874   4.588   1.906 -0.0328 -0.0456  0.2871
 2041TIP3    H1 6129   5.903   4.663   1.958  0.0816 -0.0971  0.2967
 2041TIP3    H2 6130   5.788   4.565   1.943  1.0653 -1.5829  2.0607
 2042TIP3   OH2 6131   4.353   0.991   1.327  0.2150  0.8487 -0.1242
 2042TIP3    H1 6132   4.436   0.984   1.282 -0.0721  0.0755 -0.5472
 2042TIP3    H2 6133   4.312   0.906   1.316  0.2454  0.5276  1.8141
 2043TIP3   OH2 6134   2.259   5.646   4.263  0.0309 -0.1551 -0.2079
 2043TIP3    H1 6135   2.179   5.699   4.263  1.9043  2.9862 -1.1437
 2043TIP3    H2 6136   2.242   5.575   4.202 -2.1542  0.2391 -0.1140
 2044TIP3   OH2 6137   1.850   0.118   3.767 -0.3597 -0.4169 -0.3896
 2044TIP3    H1 6138   1.848   0.031   3.807  1.0755 -1.2727 -2.0114
 2044TIP3    H2 6139   1.932   0.118   3.716 -1.3692  1.0882 -2.1073
 2045TIP3   OH2 6140   3.255   3.092   2.405 -0.0774  0.0305  0.1805
 2045TIP3    H1 6141   3.178   3.149   2.400 -0.0635  0.2509  1.8849
 2045TIP3    H2 6142   3.298   3.118   2.486  1.4184 -0.5849 -0.3777
 2046TIP3   OH2 6143   3.942   0.998   2.723  0.5283 -0.5120 -0.6284
 2046TIP3    H1 6144   4.017   0.983   2.780  1.3163 -1.3659 -1.8535
 2046TIP3    H2 6145   3.943   1.093   2.706  0.9390 -0.4258 -0.1391
 2047TIP3   OH2 6146   2.460   5.550   0.379 -0.1357  0.5029  0.2848
 2047TIP3    H1 6147   2.526   5.599   0.428 -0.3326 -0.5203  1.6385
 2047TIP3    H2 6148   2.392   5.615   0.361 -0.2820  0.8239  1.8261
 2048TIP3   OH2 6149   1.328   0.902   1.390 -0.2653 -0.1762  0.3656
 2048TIP3    H1 6150   1.288   0.819   1.417 -0.0618 -0.2458  0.4530
 2048TIP3    H2 6151   1.321   0.959   1.466  1.2889 -0.7224  0.9588
 2049TIP3   OH2 6152   2.523   3.745   2.128  0.0602 -0.3686  0.4253
 2049TIP3    H1 6153   2.459   3.675   2.145 -0.7130  0.2069 -0.0621
 2049TIP3    H2 6154   2.487   3.822   2.173  0.1865  0.0684 -0.2126
 2050TIP3   OH2 6155   4.139   2.634   1.784  0.1297  0.4491 -0.1631
 2050TIP3    H1 6156   4.116   2.725   1.805  0.3004  0.6513 -0.8378
 2050TIP3    H2 6157   4.217   2.616   1.838 -1.3592 -0.1431  1.9053
 2051TIP3   OH2 6158   0.126   2.728   1.588 -0.3359 -0.2708 -0.1222
 2051TIP3    H1 6159   0.154   2.735   1.679  0.3540  0.6791 -0.3900
 2051TIP3    H2 6160   0.163   2.644   1.559 -1.0645 -0.8723  0.6161
 2052TIP3   OH2 6161   5.962   4.902   4.044 -0.4248 -0.1244  0.1090
 2052TIP3    H1 6162   5.980   4.953   3.965 -0.9665  0.3177  0.2649
 2052TIP3    H2 6163   6.029   4.930   4.107 -0.7485  0.4291  0.2093
 2053TIP3   OH2 6164   4.767   5.620   1.804 -0.0289  0.3565 -0.3068
 2053TIP3    H1 6165   4.775   5.630   1.709 -2.3964 -0.8480 -0.7260
 2053TIP3    H2 6166   4.855   5.600   1.834  0.3270 -2.4056 -2.7603
 2054TIP3   OH2 6167   4.893   3.944   1.044  0.3604 -0.5360 -0.3510
 2054TIP3    H1 6168   4.945   3.876   1.087 -0.0804 -0.1303  0.8594
 2054TIP3    H2 6169   4.870   4.004   1.114 -3.5706 -1.8145 -0.3488
 2055TIP3   OH2 6170   0.707   1.176   4.338 -0.4663  0.3335 -0.2077
 2055TIP3    H1 6171   0.675   1.139   4.256 -0.1719  0.1482 -0.2408
 2055TIP3    H2 6172   0.741   1.262   4.315  0.3130 -0.0193 -0.4247
 2056TIP3   OH2 6173   2.313   3.346   2.851  0.2811  0.8016 -0.2314
 2056TIP3    H1 6174   2.219   3.352   2.862  0.3844  1.2603  0.3897
 2056TIP3    H2 6175   2.342   3.286   2.920  0.1437 -1.4546 -1.9956
 2057TIP3   OH2 6176   2.707   5.713   4.003 -0.4542  0.1852  0.2186
 2057TIP3    H1 6177   2.701   5.785   3.940 -0.1245 -1.3348 -1.6412
 2057TIP3    H2 6178   2.619   5.705   4.039 -1.0889  0.0280 -1.3065
 2058TIP3   OH2 6179   5.230   5.329   2.155 -0.4639  0.3449  0.1002
 2058TIP3    H1 6180   5.306   5.386   2.167 -0.6473  0.7225 -0.5240
 2058TIP3    H2 6181   5.211   5.296   2.243 -0.3566  1.2375  0.4620
 2059TIP3   OH2 6182   1.761   2.460   4.319 -0.5398 -0.6846  0.0095
 2059TIP3    H1 6183   1.732   2.519   4.389 -0.4147 -2.1076  1.3040
 2059TIP3    H2 6184   1.855   2.474   4.313 -0.1795 -2.1196  1.6889
 2060TIP3   OH2 6185   1.510   5.293   1.552  0.0061 -0.1018  0.1504
 2060TIP3    H1 6186   1.527   5.343   1.632  2.1926 -0.4846 -0.0169
 2060TIP3    H2 6187   1.596   5.265   1.522 -0.8861 -1.2133 -1.5608
 2061TIP3   OH2 6188   1.096   0.742   3.421  0.2447 -0.0588  0.4471
 2061TIP3    H1 6189   1.140   0.657   3.416 -0.2710 -0.3681  1.0450
 2061TIP3    H2 6190   1.020   0.733   3.363  0.9951  0.5116 -0.6724
 2062TIP3   OH2 6191   1.096   5.889   2.141 -0.2048  0.6060 -0.2277
 2062TIP3    H1 6192   1.137   5.932   2.216 -0.0560 -0.6155  0.4253
 2062TIP3    H2 6193   1.169   5.872   2.081 -0.2573  1.2186 -0.4652
 2063TIP3   OH2 6194   0.548   4.211   2.677 -0.0417 -0.0973  0.2107
 2063TIP3    H1 6195   0.566   4.118   2.688 -0.4756 -0.0220  1.6565
 2063TIP3    H2 6196   0.523   4.242   2.764 -0.4719  1.2512 -0.3648
 2064TIP3   OH2 6197   1.804   1.111   0.825  0.6473  0.1502  0.3781
 2064TIP3    H1 6198   1.785   1.017   0.820 -2.2998  0.6424  0.5834
 2064TIP3    H2 6199   1.823   1.127   0.917 -1.8868  0.1519  0.9798
 2065TIP3   OH2 6200   2.722   0.729   4.423  0.0889  0.1127  0.3378
 2065TIP3    H1 6201   2.781   0.805   4.428  0.9069 -0.1486 -2.9382
 2065TIP3    H2 6202   2.637   0.763   4.450  0.7966  1.7450  0.6345
 2066TIP3   OH2 6203   1.016   4.625   4.991 -0.7005  0.0182  0.2344
 2066TIP3    H1 6204   0.947   4.675   5.035 -1.0167 -0.0881 -0.1407
 2066TIP3    H2 6205   1.073   4.692   4.953 -1.2711  0.1058 -0.4977
 2067TIP3   OH2 6206   2.946   4.329   3.612  0.8567 -0.5023  0.1016
 2067TIP3    H1 6207   2.948   4.280   3.530  0.1219  0.5925 -0.5982
 2067TIP3    H2 6208   3.038   4.344   3.634  1.2206  2.9241 -2.8560
 2068TIP3   OH2 6209   2.512   0.922   4.763 -0.3291  0.1282 -0.1925
 2068TIP3    H1 6210   2.489   0.853   4.700  0.4162  0.2703 -0.6326
 2068TIP3    H2 6211   2.508   1.003   4.712  0.1630  0.2558 -0.0286
 2069TIP3   OH2 6212   4.482   4.532   4.467  0.0919 -0.0190  0.5041
 2069TIP3    H1 6213   4.507   4.621   4.442 -0.4658  0.1983  0.7126
 2069TIP3    H2 6214   4.543   4.476   4.419  0.4202  0.4705  0.3387
 2070TIP3   OH2 6215   0.570   5.030   4.967 -0.8908  0.3772  0.5196
 2070TIP3    H1 6216   0.498   5.093   4.972 -1.0192  0.8858 -3.7176
 2070TIP3    H2 6217   0.533   4.956   4.919  0.8555 -0.1908 -0.0276
 2071TIP3   OH2 6218   5.977   4.889   3.068  0.1131 -0.5592  0.3550
 2071TIP3    H1 6219   5.886   4.911   3.049 -0.2152 -2.0498  0.1099
 2071TIP3    H2 6220   6.026   4.924   2.994 -0.3853 -0.6310 -0.0156
 2072TIP3   OH2 6221   0.331   0.500   2.536 -0.1132 -0.0804 -0.5435
 2072TIP3    H1 6222   0.360   0.433   2.598 -0.2300 -0.0375 -0.4434
 2072TIP3    H2 6223   0.279   0.452   2.471 -3.1949  0.3556  1.3927
 2073TIP3   OH2 6224   2.042   5.684   3.069 -0.0020  0.5656 -0.1562
 2073TIP3    H1 6225   1.986   5.753   3.105  0.9354  0.8388  0.8207
 2073TIP3    H2 6226   2.058   5.712   2.978  0.7659  1.9205  0.3668
 2074TIP3   OH2 6227   5.764   2.764   4.231 -0.3907  0.0223 -0.1158
 2074TIP3    H1 6228   5.823   2.797   4.298  0.1922  0.1370 -0.6788
 2074TIP3    H2 6229   5.711   2.698   4.276 -0.0259  0.1160  0.4618
 2075TIP3   OH2 6230   1.253   1.357   2.358  0.4838 -0.4654  0.2236
 2075TIP3    H1 6231   1.168   1.401   2.348  0.3029 -1.3089 -3.4920
 2075TIP3    H2 6232   1.232   1.275   2.402 -0.3716 -0.0005  0.7072
 2076TIP3   OH2 6233   3.930   4.120   2.409 -0.0496  0.6242 -0.0023
 2076TIP3    H1 6234   4.011   4.086   2.369 -0.3138  0.2794 -0.2497
 2076TIP3    H2 6235   3.860   4.082   2.356 -0.3485  1.9159 -0.5651
 2077TIP3   OH2 6236   1.973   3.872   2.889  0.3059 -0.7663 -0.5106
 2077TIP3    H1 6237   1.941   3.916   2.811  1.5904 -1.0340 -1.2256
 2077TIP3    H2 6238   1.936   3.921   2.962 -0.6666 -0.3250 -1.2802
 2078TIP3   OH2 6239   6.256   0.409   2.393  0.1418  0.1073 -0.0050
 2078TIP3    H1 6240   6.244   0.365   2.477  1.5665  0.6698  0.5367
 2078TIP3    H2 6241   6.183   0.470   2.387 -1.1568 -1.4016 -0.1901
 2079TIP3   OH2 6242   2.554   4.131   0.576 -0.2374  0.4974 -0.5084
 2079TIP3    H1 6243   2.596   4.213   0.551  1.9665 -0.8949 -1.6934
 2079TIP3    H2 6244   2.559   4.077   0.498  0.8169 -1.6671  0.9448
 2080TIP3   OH2 6245   2.913   2.679   1.655  0.1376 -0.5811 -0.0432
 2080TIP3    H1 6246   2.822   2.660   1.633 -0.4338  2.2854 -0.5101
 2080TIP3    H2 6247   2.959   2.681   1.571  0.2276 -0.1843  0.0129
 2081TIP3   OH2 6248   2.904   5.316   1.196 -0.6063  0.0328 -0.2419
 2081TIP3    H1 6249   2.827   5.277   1.236 -1.5881 -0.1773 -2.2239
 2081TIP3    H2 6250   2.913   5.401   1.238 -1.1791 -0.4416  0.8756
 2082TIP3   OH2 6251   3.213   5.597   2.201  0.6996  0.0018  0.0623
 2082TIP3    H1 6252   3.281   5.539   2.232  0.6678 -0.1702 -0.1848
 2082TIP3    H2 6253   3.211   5.669   2.264  1.4841  0.2855 -0.2355
 2083TIP3   OH2 6254   3.877   1.957   0.327 -0.0792 -0.0472  0.1042
 2083TIP3    H1 6255   3.858   1.904   0.250  0.3687 -0.5957  0.3618
 2083TIP3    H2 6256   3.973   1.962   0.330 -0.0935  0.0277  0.5862
 2084TIP3   OH2 6257   2.855   5.713   0.761 -0.5879  0.1833 -0.3764
 2084TIP3    H1 6258   2.890   5.687   0.676 -1.2241 -0.9654 -0.3140
 2084TIP3    H2 6259   2.929   5.703   0.821 -0.5029 -0.3891 -0.5664
 2085TIP3   OH2 6260   5.420   1.921   3.037  0.3838 -0.8630  0.3048
 2085TIP3    H1 6261   5.360   1.969   2.980  0.4854 -0.2614  0.6919
 2085TIP3    H2 6262   5.437   1.839   2.991 -0.7935 -1.0820  0.2213
 2086TIP3   OH2 6263   0.136   1.041   3.386  0.5316  0.0984  0.1034
 2086TIP3    H1 6264   0.155   1.135   3.386  1.5645 -0.0942  0.5140
 2086TIP3    H2 6265   0.222   1.000   3.385  0.1607 -0.8431  1.9905
 2087TIP3   OH2 6266   1.988   1.434   3.604 -0.2589  0.1857 -0.0948
 2087TIP3    H1 6267   2.000   1.352   3.556 -0.6950 -0.1035  0.2851
 2087TIP3    H2 6268   2.056   1.433   3.671  0.5673  0.7463 -0.9016
 2088TIP3   OH2 6269   4.786   1.178   0.098  0.0427 -0.1833 -0.0216
 2088TIP3    H1 6270   4.842   1.252   0.075  0.0939 -0.4990 -0.9536
 2088TIP3    H2 6271   4.697   1.210   0.085  0.0839 -0.5969 -1.4893
 2089TIP3   OH2 6272   6.243   0.150   0.510 -0.0773  0.8303 -0.4087
 2089TIP3    H1 6273   6.289   0.200   0.442  1.7934 -1.6604 -1.1440
 2089TIP3    H2 6274   6.294   0.166   0.589  1.6872 -1.2197 -1.0361
 2090TIP3   OH2 6275   4.104   0.559   3.303 -0.0694  0.1932  0.3714
 2090TIP3    H1 6276   4.189   0.560   3.346 -0.4664 -0.8004  1.2175
 2090TIP3    H2 6277   4.043   0.594   3.369 -0.4063  0.4222 -0.0483
 2091TIP3   OH2 6278   3.299   3.141   4.691  0.0956 -0.3005  0.2084
 2091TIP3    H1 6279   3.264   3.133   4.780 -0.3437 -1.2959 -0.0415
 2091TIP3    H2 6280   3.378   3.193   4.701 -0.3080  0.1517  1.0925
 2092TIP3   OH2 6281   4.124   4.769   4.861 -0.0525 -0.1335 -0.2998
 2092TIP3    H1 6282   4.095   4.689   4.904 -0.0316  0.3176  0.5656
 2092TIP3    H2 6283   4.159   4.824   4.931  0.4078  0.4327 -0.9499
 2093TIP3   OH2 6284   0.136   2.273   0.348 -0.5140 -0.5014 -0.8237
 2093TIP3    H1 6285   0.067   2.312   0.293  1.8194  3.3649 -1.3541
 2093TIP3    H2 6286   0.198   2.236   0.286 -0.7690 -1.6478 -0.4317
 2094TIP3   OH2 6287   2.387   1.730   3.952  0.2958 -0.0428 -0.1782
 2094TIP3    H1 6288   2.405   1.762   4.041 -0.8051  0.3705 -0.0902
 2094TIP3    H2 6289   2.409   1.804   3.895  1.0650 -0.3302 -0.2665
 2095TIP3   OH2 6290   5.355   4.387   2.433 -0.2407 -0.1016  0.1796
 2095TIP3    H1 6291   5.290   4.383   2.503  1.8521  0.7852  2.3199
 2095TIP3    H2 6292   5.365   4.296   2.405 -0.6609 -0.5901  1.5098
 2096TIP3   OH2 6293   2.666   3.719   1.538 -0.2835 -0.3506 -0.4292
 2096TIP3    H1 6294   2.661   3.795   1.595  0.3960 -0.3993 -0.2961
 2096TIP3    H2 6295   2.646   3.645   1.596  1.9082 -0.5650  0.1459
 2097TIP3   OH2 6296   5.713   5.468   0.102 -0.2674  0.0949  0.5727
 2097TIP3    H1 6297   5.645   5.422   0.151  1.8700 -1.2950  2.4150
 2097TIP3    H2 6298   5.698   5.442   0.011 -0.8461 -2.0646  1.2144
 2098TIP3   OH2 6299   2.173   2.330   0.711  0.1291 -0.7040  0.2580
 2098TIP3    H1 6300   2.133   2.286   0.636 -2.1147 -2.1381  2.1174
 2098TIP3    H2 6301   2.262   2.294   0.716 -0.0154 -1.3047 -1.1376
 2099TIP3   OH2 6302   6.283   4.783   1.446  0.3953  0.1574  0.1673
 2099TIP3    H1 6303   6.256   4.744   1.529  2.5109 -1.2225  0.2948
 2099TIP3    H2 6304   6.378   4.790   1.453  0.5180  0.9878 -1.7534
 2100TIP3   OH2 6305   0.104   3.409   2.590 -0.3137  0.0759 -0.3485
 2100TIP3    H1 6306   0.158   3.487   2.597  0.0136 -0.1339 -0.4826
 2100TIP3    H2 6307   0.131   3.368   2.507  0.5622 -0.9532  0.4225
 2101TIP3   OH2 6308   1.408   2.768   3.300 -0.2450  0.2775  0.5783
 2101TIP3    H1 6309   1.386   2.677   3.279 -1.1152  0.4018  0.9056
 2101TIP3    H2 6310   1.325   2.815   3.291  0.1047  0.9591  0.8571
 2102TIP3   OH2 6311   2.080   3.598   1.477  0.3552  0.2346  0.4236
 2102TIP3    H1 6312   2.118   3.617   1.391  0.9769  0.3940  0.7232
 2102TIP3    H2 6313   2.003   3.654   1.482 -0.8424 -1.1829 -0.8103
 2103TIP3   OH2 6314   6.047   4.484   0.393 -0.3768  0.0642 -0.5049
 2103TIP3    H1 6315   5.971   4.517   0.439  1.0508 -0.1215  2.1718
 2103TIP3    H2 6316   6.045   4.390   0.408  0.8906  0.1702  0.5404
 2104TIP3   OH2 6317   0.390   2.021   2.325  0.0531 -0.3982 -0.4803
 2104TIP3    H1 6318   0.321   1.996   2.387 -0.9566  0.2785 -1.3012
 2104TIP3    H2 6319   0.464   2.044   2.381 -0.8924  0.3716  0.5104
 2105TIP3   OH2 6320   6.290   1.179   3.105  0.6840 -0.6636  0.2306
 2105TIP3    H1 6321   6.338   1.123   3.166  1.7896 -1.0670 -0.9594
 2105TIP3    H2 6322   6.277   1.261   3.153 -0.1881 -1.5996  1.6811
 2106TIP3   OH2 6323   3.983   5.299   4.348  0.5280 -0.6778 -0.0165
 2106TIP3    H1 6324   4.003   5.303   4.254 -0.6970  1.4403 -0.2607
 2106TIP3    H2 6325   3.892   5.327   4.354  0.7037 -0.3959  1.8320
 2107TIP3   OH2 6326   4.287   2.292   0.987  0.0789 -0.0673 -0.1258
 2107TIP3    H1 6327   4.224   2.344   0.937  2.4705  1.9378 -1.2326
 2107TIP3    H2 6328   4.270   2.202   0.960  1.4992  0.8563 -5.1483
 2108TIP3   OH2 6329   0.505   4.167   1.862 -0.2966 -0.5303  0.1036
 2108TIP3    H1 6330   0.505   4.071   1.855  2.1042 -0.6846  1.1407
 2108TIP3    H2 6331   0.589   4.194   1.826 -1.5689  1.4135 -1.6673
 2109TIP3   OH2 6332   3.834   3.195   1.855  0.1126 -0.2180  0.0979
 2109TIP3    H1 6333   3.874   3.194   1.942 -0.0551  1.9113  0.2751
 2109TIP3    H2 6334   3.744   3.225   1.870 -0.2141 -0.7516 -0.7206
 2110TIP3   OH2 6335   4.779   0.806   4.926  0.3535 -0.2055  0.6633
 2110TIP3    H1 6336   4.814   0.755   4.853  0.5621  0.6826  0.1203
 2110TIP3    H2 6337   4.749   0.741   4.989  0.9975 -0.9861  0.1822
 2111TIP3   OH2 6338   4.690   2.811   4.348  0.2447 -0.0329 -0.2038
 2111TIP3    H1 6339   4.682   2.729   4.299  1.4881  0.2962 -1.0128
 2111TIP3    H2 6340   4.770   2.799   4.400 -0.6319 -0.0759  1.1880
 2112TIP3   OH2 6341   0.373   4.592   5.144 -0.0802  0.2717  0.7364
 2112TIP3    H1 6342   0.432   4.631   5.209  0.1986 -0.5580  0.9980
 2112TIP3    H2 6343   0.338   4.514   5.188 -0.0457 -0.1881 -0.0371
 2113TIP3   OH2 6344   3.707   2.351   4.390  0.3692  0.0281  0.2813
 2113TIP3    H1 6345   3.636   2.294   4.420  0.0303 -1.8591 -3.5092
 2113TIP3    H2 6346   3.662   2.423   4.346  0.8739  2.0190  2.7432
 2114TIP3   OH2 6347   5.706   1.489   2.322 -0.8908 -0.1052 -0.1149
 2114TIP3    H1 6348   5.667   1.406   2.296 -2.1362 -0.1918  1.7774
 2114TIP3    H2 6349   5.655   1.555   2.275 -0.2829 -0.3723 -1.1713
 2115TIP3   OH2 6350   0.376   1.774   5.094 -0.3979 -0.3214 -0.4065
 2115TIP3    H1 6351   0.379   1.816   5.179  0.0995 -0.2745 -0.4477
 2115TIP3    H2 6352   0.335   1.839   5.036  0.1549  0.0230 -0.4195
 2116TIP3   OH2 6353   1.178   4.508   4.262  0.3529  0.3668 -0.1348
 2116TIP3    H1 6354   1.193   4.434   4.321  0.5106 -0.3097 -0.9865
 2116TIP3    H2 6355   1.107   4.558   4.302 -1.0373 -1.2706 -0.4409
 2117TIP3   OH2 6356   6.085   5.130   1.240  0.0091  0.0507 -0.4241
 2117TIP3    H1 6357   6.154   5.116   1.304  0.2090 -0.7204 -0.7956
 2117TIP3    H2 6358   6.074   5.045   1.197 -0.8229  0.2896 -0.7164
 2118TIP3   OH2 6359   3.203   5.645   1.125  0.4435 -0.1682 -0.2091
 2118TIP3    H1 6360   3.263   5.655   1.052 -1.1116  0.9735 -1.4045
 2118TIP3    H2 6361   3.117   5.635   1.084 -0.4370  0.1890  1.4523
 2119TIP3   OH2 6362   3.726   3.905   4.330  0.7110 -0.5222  0.2328
 2119TIP3    H1 6363   3.741   3.815   4.356  2.7921 -0.2828  0.0019
 2119TIP3    H2 6364   3.754   3.909   4.238 -0.3941  0.1195 -0.0968
 2120TIP3   OH2 6365   1.416   4.952   0.966  0.4649  0.3163 -0.0161
 2120TIP3    H1 6366   1.325   4.926   0.949 -0.2465  1.4549  1.7439
 2120TIP3    H2 6367   1.447   4.888   1.031  1.2482 -0.6053 -1.2658
 2121TIP3   OH2 6368   2.400   1.232   0.737 -0.0605  0.5864 -0.2482
 2121TIP3    H1 6369   2.393   1.213   0.643  0.2217  2.1940 -0.6351
 2121TIP3    H2 6370   2.494   1.240   0.752 -0.1593  2.1284 -0.2598
 2122TIP3   OH2 6371   5.118   0.997   0.880 -0.1582 -0.2912 -0.1941
 2122TIP3    H1 6372   5.092   0.957   0.963  2.1741 -0.4629  0.5331
 2122TIP3    H2 6373   5.150   1.084   0.905  0.0185 -0.1233 -0.9971
 2123TIP3   OH2 6374   1.860   5.569   3.845 -0.2570  0.0425  0.5479
 2123TIP3    H1 6375   1.854   5.663   3.831 -0.4267  0.0139  0.4326
 2123TIP3    H2 6376   1.919   5.538   3.776  2.9233  0.5926  2.7796
 2124TIP3   OH2 6377   2.466   5.185   0.186 -0.3116 -0.1523 -0.2810
 2124TIP3    H1 6378   2.532   5.118   0.201 -0.4237  0.0615  1.2769
 2124TIP3    H2 6379   2.514   5.268   0.190 -0.1183 -0.0837 -2.4868
 2125TIP3   OH2 6380   4.489   1.409   0.533 -0.2009  0.0615 -0.3305
 2125TIP3    H1 6381   4.489   1.408   0.628 -2.1614  0.1544 -0.2860
 2125TIP3    H2 6382   4.580   1.421   0.509  0.4715 -0.9773  1.5130
 2126TIP3   OH2 6383   1.818   2.944   4.618  0.4314 -0.1466 -0.2997
 2126TIP3    H1 6384   1.912   2.953   4.602  0.8742 -2.0826  0.8279
 2126TIP3    H2 6385   1.778   2.951   4.532  1.6347  0.3345 -0.8427
 2127TIP3   OH2 6386   2.945   5.538   2.048  0.2679  0.0981 -0.4451
 2127TIP3    H1 6387   2.861   5.558   2.088 -0.3971 -1.1321 -1.1805
 2127TIP3    H2 6388   3.007   5.594   2.095 -0.5912 -0.6533  1.7397
 2128TIP3   OH2 6389   4.323   0.203   1.863  0.6245  0.3877 -0.1155
 2128TIP3    H1 6390   4.390   0.248   1.913 -0.1713  1.1329  0.3063
 2128TIP3    H2 6391   4.357   0.114   1.851  1.9172  0.8963 -0.3938
 2129TIP3   OH2 6392   4.132   2.319   3.557  0.6565  0.2604 -0.6180
 2129TIP3    H1 6393   4.223   2.331   3.532  0.2034 -1.7353 -3.7388
 2129TIP3    H2 6394   4.135   2.304   3.652  2.9365  4.7256  0.3141
 2130TIP3   OH2 6395   0.074   5.565   4.158 -0.1926 -0.0484  0.1601
 2130TIP3    H1 6396   0.050   5.591   4.247  2.1529 -1.2183  1.2232
 2130TIP3    H2 6397   0.045   5.638   4.103 -0.9510  1.0911  1.9662
 2131TIP3   OH2 6398   6.044   2.561   5.097  0.4150  0.1604 -0.9388
 2131TIP3    H1 6399   6.121   2.595   5.052  0.7084  1.2484  0.3340
 2131TIP3    H2 6400   6.001   2.505   5.032  1.4981  0.6692 -2.1310
 2132TIP3   OH2 6401   5.526   4.162   0.448 -0.2478  0.4479  0.3650
 2132TIP3    H1 6402   5.447   4.179   0.398 -1.9394 -0.4182  2.5990
 2132TIP3    H2 6403   5.527   4.229   0.516  1.8420  1.4287 -0.5487
 2133TIP3   OH2 6404   4.435   2.939   4.399 -0.4580  0.3063 -0.2355
 2133TIP3    H1 6405   4.492   2.882   4.349  1.0474  1.6963 -0.1576
 2133TIP3    H2 6406   4.458   3.028   4.372 -1.6948  0.9647  0.7325
 2134TIP3   OH2 6407   5.806   2.695   3.016  0.2735 -0.1495  0.3410
 2134TIP3    H1 6408   5.864   2.770   3.032 -1.2742  1.0016  0.8792
 2134TIP3    H2 6409   5.791   2.657   3.102 -0.4640  0.1336  0.3494
 2135TIP3   OH2 6410   5.397   4.088   0.891 -0.0402  0.0889  0.3779
 2135TIP3    H1 6411   5.355   4.138   0.961 -0.0170  0.7191 -0.0491
 2135TIP3    H2 6412   5.402   4.149   0.818  0.3861 -0.4082 -0.0156
 2136TIP3   OH2 6413   0.741   4.499   4.330 -0.3602 -0.7682  0.1707
 2136TIP3    H1 6414   0.799   4.440   4.377  1.5114  0.9840  0.1964
 2136TIP3    H2 6415   0.759   4.481   4.237 -0.1647 -0.5940  0.1744
 2137TIP3   OH2 6416   0.384   5.484   2.301 -0.7103 -0.2842 -0.2116
 2137TIP3    H1 6417   0.454   5.532   2.346 -0.4247 -0.1167 -0.8205
 2137TIP3    H2 6418   0.311   5.485   2.363 -0.7209  0.9557 -0.2162
 2138TIP3   OH2 6419   0.050   0.723   4.645 -0.1184 -0.2455  0.1670
 2138TIP3    H1 6420  -0.000   0.804   4.655 -0.6143 -0.5905  0.4827
 2138TIP3    H2 6421   0.103   0.737   4.566 -1.1135 -0.0893 -0.4853
 2139TIP3   OH2 6422   2.709   3.635   2.438  0.0880  0.2759  0.5448
 2139TIP3    H1 6423   2.635   3.576   2.452  0.8219 -0.7770  0.1146
 2139TIP3    H2 6424   2.738   3.615   2.349  0.6492  0.9598  0.5705
 2140TIP3   OH2 6425   1.316   3.958   2.531  0.7325 -0.3315 -0.3039
 2140TIP3    H1 6426   1.234   3.941   2.485 -0.6183  0.3049  1.7242
 2140TIP3    H2 6427   1.290   4.011   2.607  2.8930 -0.9060  0.9144
 2141TIP3   OH2 6428   2.855   3.946   3.238 -0.2431  0.5590 -0.3509
 2141TIP3    H1 6429   2.948   3.922   3.240 -0.6083 -1.0083  2.6590
 2141TIP3    H2 6430   2.813   3.876   3.188 -0.2169 -0.7934  1.4276
 2142TIP3   OH2 6431   4.586   1.403   2.277 -0.4062 -0.0564  0.1333
 2142TIP3    H1 6432   4.660   1.424   2.333 -0.2371  0.1235 -0.1558
 2142TIP3    H2 6433   4.605   1.446   2.194 -1.4350  1.0705  0.4466
 2143TIP3   OH2 6434   4.870   4.648   2.350 -0.3812 -0.6218 -0.0933
 2143TIP3    H1 6435   4.924   4.636   2.272 -0.9718  1.1588 -0.8293
 2143TIP3    H2 6436   4.785   4.676   2.316 -0.8924 -0.6091  1.1571
 2144TIP3   OH2 6437   4.942   2.237   2.489  0.3080 -0.2059 -0.8202
 2144TIP3    H1 6438   4.963   2.183   2.566 -0.3521  0.4508 -0.1668
 2144TIP3    H2 6439   4.994   2.198   2.419  1.7852 -0.1586  0.1851
 2145TIP3   OH2 6440   4.706   1.832   2.683 -0.5999 -0.1537  0.4172
 2145TIP3    H1 6441   4.697   1.852   2.776 -0.1204 -0.2492  0.4887
 2145TIP3    H2 6442   4.684   1.740   2.675  0.0061 -0.3137  0.5442
 2146TIP3   OH2 6443   6.174   0.434   1.094  0.2828  0.4959  0.3413
 2146TIP3    H1 6444   6.087   0.399   1.111  0.1459  0.7689  0.2180
 2146TIP3    H2 6445   6.223   0.417   1.174  0.1699  0.1781  0.3446
 2147TIP3   OH2 6446   0.615   1.479   1.029 -0.0425  0.1151 -0.3421
 2147TIP3    H1 6447   0.599   1.516   0.942  1.3653 -1.4827 -1.3259
 2147TIP3    H2 6448   0.699   1.435   1.021 -0.9725 -2.0738  1.1500
 2148TIP3   OH2 6449   2.266   4.071   1.018  0.2051 -0.0852  0.2094
 2148TIP3    H1 6450   2.248   4.065   0.924  1.1785  1.1101 -0.0955
 2148TIP3    H2 6451   2.319   4.151   1.026  1.3034 -0.9118  1.5925
 2149TIP3   OH2 6452   0.601   1.822   2.426 -0.1108 -0.3111 -0.1650
 2149TIP3    H1 6453   0.598   1.869   2.343  1.6761  0.8392  0.3678
 2149TIP3    H2 6454   0.540   1.749   2.414  0.9275 -0.8864 -2.9247
 2150TIP3   OH2 6455   2.318   4.907   1.821 -0.5212 -0.3562 -0.3413
 2150TIP3    H1 6456   2.241   4.914   1.764  0.9003  1.6474 -2.1525
 2150TIP3    H2 6457   2.300   4.967   1.893 -0.1968  1.0386 -1.3861
 2151TIP3   OH2 6458   3.596   4.042   1.027  0.6720 -0.4177 -0.2161
 2151TIP3    H1 6459   3.624   3.951   1.022 -0.3501 -0.7023 -0.8733
 2151TIP3    H2 6460   3.503   4.038   1.049  1.1053  0.5225  2.1181
 2152TIP3   OH2 6461   4.478   5.240   1.000  0.1806  0.5549 -0.6173
 2152TIP3    H1 6462   4.416   5.205   0.937 -0.3091  0.3429 -0.0242
 2152TIP3    H2 6463   4.448   5.207   1.085 -0.3425  2.4463 -0.0167
 2153TIP3   OH2 6464   4.139   3.040   4.279  0.2292 -0.5509  0.2835
 2153TIP3    H1 6465   4.082   3.040   4.202  1.1391 -2.5773 -0.4573
 2153TIP3    H2 6466   4.180   2.954   4.278  1.0343 -0.2416  2.4904
 2154TIP3   OH2 6467   3.123   3.090   4.194 -0.4581  0.0159 -0.1982
 2154TIP3    H1 6468   3.067   3.120   4.266 -0.3179  0.3759 -0.2378
 2154TIP3    H2 6469   3.104   2.996   4.186  0.6826 -0.3924  1.3546
 2155TIP3   OH2 6470   1.049   0.848   0.233 -0.1633  0.0255 -0.5648
 2155TIP3    H1 6471   1.018   0.763   0.203 -0.6241  0.1537 -0.4574
 2155TIP3    H2 6472   1.062   0.898   0.152 -0.9982  0.2313 -0.5820
 2156TIP3   OH2 6473   2.356   3.842   1.189  0.1316 -0.1784 -0.2888
 2156TIP3    H1 6474   2.307   3.899   1.130  1.2363 -0.6841 -1.7323
 2156TIP3    H2 6475   2.390   3.901   1.256  0.5786  0.7577 -1.3127
 2157TIP3   OH2 6476   1.709   1.724   4.775  0.2974  0.0395 -0.4862
 2157TIP3    H1 6477   1.736   1.667   4.703  0.7735  1.5619 -1.5555
 2157TIP3    H2 6478   1.652   1.790   4.734  0.7071  1.0308  0.4942
 2158TIP3   OH2 6479   4.373   4.576   2.064 -0.0118  0.2254  0.3940
 2158TIP3    H1 6480   4.304   4.567   1.998 -1.3076  0.3852  1.6732
 2158TIP3    H2 6481   4.421   4.655   2.038 -1.0844  0.8187  0.1391
 2159TIP3   OH2 6482   0.987   0.965   2.736  0.2062 -0.7209 -0.2801
 2159TIP3    H1 6483   0.977   1.059   2.743 -0.4886 -0.7742 -0.4535
 2159TIP3    H2 6484   0.898   0.932   2.720  0.3657 -1.4456  0.2421
 2160TIP3   OH2 6485   1.729   0.407   1.326 -0.3625 -0.0116 -0.3045
 2160TIP3    H1 6486   1.667   0.388   1.396 -0.0962 -0.1350 -0.0995
 2160TIP3    H2 6487   1.677   0.452   1.259 -1.3587 -2.6263 -1.4075
 2161TIP3   OH2 6488   2.766   4.688   2.531  0.0705  0.5015 -0.3643
 2161TIP3    H1 6489   2.814   4.675   2.613  0.8603  3.0628 -0.3433
 2161TIP3    H2 6490   2.827   4.661   2.463  0.9928  2.2127 -0.2587
 2162TIP3   OH2 6491   3.907   2.437   4.577  0.7629 -0.3106  0.3259
 2162TIP3    H1 6492   3.853   2.423   4.655 -1.0809 -0.2863 -0.8829
 2162TIP3    H2 6493   3.847   2.424   4.503  1.8981  1.7415 -1.0717
 2163TIP3   OH2 6494   2.803   1.250   2.004 -0.2361  0.3931 -0.5422
 2163TIP3    H1 6495   2.763   1.166   1.980  1.6514 -1.0228  0.9292
 2163TIP3    H2 6496   2.756   1.277   2.083 -0.8122  0.7293 -0.9891
 2164TIP3   OH2 6497   4.780   3.484   2.075 -0.3714 -0.0625  0.3389
 2164TIP3    H1 6498   4.845   3.465   2.143 -0.3269 -0.5331  0.1719
 2164TIP3    H2 6499   4.723   3.550   2.115  0.5658  0.8246  0.2617
 2165TIP3   OH2 6500   5.706   5.054   4.888  0.3266  0.2974 -0.4508
 2165TIP3    H1 6501   5.613   5.073   4.902  0.3569  0.1934 -0.0831
 2165TIP3    H2 6502   5.751   5.132   4.920  0.4134 -0.0672  0.3304
 2166TIP3   OH2 6503   6.132   0.002   1.443  0.4204 -0.0785 -0.5064
 2166TIP3    H1 6504   6.044   0.031   1.422  0.7417  1.9816  0.6765
 2166TIP3    H2 6505   6.189   0.053   1.384  0.8693 -0.9920 -0.8900
 2167TIP3   OH2 6506   4.435   1.719   4.745  1.0738 -0.4943  0.0294
 2167TIP3    H1 6507   4.530   1.732   4.752  0.9978  0.1332 -0.0691
 2167TIP3    H2 6508   4.425   1.664   4.667  1.3958 -1.0903  0.4020
 2168TIP3   OH2 6509   1.530   5.323   4.855  0.0299 -0.6411 -0.2581
 2168TIP3    H1 6510   1.450   5.283   4.890  0.4620 -0.2136  1.2959
 2168TIP3    H2 6511   1.559   5.382   4.925  0.4188  0.9905 -1.7268
 2169TIP3   OH2 6512   5.821   3.722   2.194 -0.1353  0.0927 -0.0208
 2169TIP3    H1 6513   5.810   3.816   2.210  1.6181  0.5966 -1.3919
 2169TIP3    H2 6514   5.734   3.691   2.167 -0.1914  1.9365 -2.2319
 2170TIP3   OH2 6515   5.827   3.720   4.075  0.1175 -0.0097  0.4170
 2170TIP3    H1 6516   5.751   3.676   4.036  0.8085  0.1408 -1.1899
 2170TIP3    H2 6517   5.851   3.787   4.011  1.5385  0.0128  0.9491
 2171TIP3   OH2 6518   4.034   4.778   4.202 -0.5548 -0.7042  0.5944
 2171TIP3    H1 6519   3.983   4.856   4.226 -0.4943 -0.8883  1.3525
 2171TIP3    H2 6520   4.104   4.775   4.266  0.7335 -0.1784 -0.7365
 2172TIP3   OH2 6521   0.801   2.033   0.743  0.6991 -0.3502  0.1877
 2172TIP3    H1 6522   0.839   1.945   0.736  0.9986 -0.2069  0.0054
 2172TIP3    H2 6523   0.839   2.081   0.669 -0.8006 -0.5586 -0.7473
 2173TIP3   OH2 6524   6.318   1.973   4.198  0.1719 -0.0519 -0.0299
 2173TIP3    H1 6525   6.254   2.022   4.249  0.3634 -0.5739  0.7285
 2173TIP3    H2 6526   6.270   1.898   4.164  0.0321  0.3227 -0.6605
 2174TIP3   OH2 6527   5.226   3.438   1.819  0.2979 -0.6382 -0.1501
 2174TIP3    H1 6528   5.243   3.489   1.740  0.2583 -0.0774  0.1964
 2174TIP3    H2 6529   5.265   3.490   1.889  1.6388 -1.8549  0.0295
 2175TIP3   OH2 6530   1.973   2.766   0.169  0.3256 -0.4562  0.0207
 2175TIP3    H1 6531   2.004   2.834   0.228 -1.4169 -0.0443  0.5174
 2175TIP3    H2 6532   1.933   2.701   0.227 -0.1807 -0.7147 -0.6075
 2176TIP3   OH2 6533   1.848   4.969   2.699  0.0004  0.1615  0.4451
 2176TIP3    H1 6534   1.917   4.918   2.655 -0.9238 -0.0794 -0.7704
 2176TIP3    H2 6535   1.834   4.923   2.782 -2.0285 -2.7432 -1.3153
 2177TIP3   OH2 6536   3.073   2.835   3.416  0.5764 -1.1443 -0.1889
 2177TIP3    H1 6537   3.010   2.872   3.478  1.4455  1.8897 -0.9590
 2177TIP3    H2 6538   3.081   2.901   3.347  2.0871 -2.9480 -1.8842
 2178TIP3   OH2 6539   2.889   1.961   4.489  0.3401  0.7600  0.3246
 2178TIP3    H1 6540   2.881   1.920   4.575 -0.5346  2.2166  0.9638
 2178TIP3    H2 6541   2.880   2.055   4.505 -0.4349  1.0354 -1.4294
 2179TIP3   OH2 6542   0.458   1.975   3.253 -0.1361  0.2828 -0.0117
 2179TIP3    H1 6543   0.364   1.990   3.265  0.0707  2.1543 -0.3760
 2179TIP3    H2 6544   0.495   1.980   3.341 -0.1476  1.5436 -0.0671
 2180TIP3   OH2 6545   5.556   3.664   5.078  0.1755 -0.2981  0.0110
 2180TIP3    H1 6546   5.538   3.604   5.006 -0.1672 -1.8252  1.3213
 2180TIP3    H2 6547   5.650   3.679   5.074  0.4269 -1.6859  0.2110
 2181TIP3   OH2 6548   1.973   5.498   1.119 -0.3505 -0.6364 -0.2259
 2181TIP3    H1 6549   2.025   5.506   1.199  0.1685  1.3982 -0.7211
 2181TIP3    H2 6550   1.914   5.573   1.120 -0.3681 -0.5971 -1.7028
 2182TIP3   OH2 6551   3.393   5.879   3.596 -0.2827 -0.3354 -0.2011
 2182TIP3    H1 6552   3.466   5.827   3.629  0.1159  0.4278  0.1430
 2182TIP3    H2 6553   3.415   5.969   3.620 -0.2681  0.1881 -2.0217
 2183TIP3   OH2 6554   0.049   4.291   0.308  0.2362 -0.3024  0.1398
 2183TIP3    H1 6555   0.100   4.366   0.338 -1.1061  1.4086 -1.5939
 2183TIP3    H2 6556  -0.010   4.327   0.241 -2.4699 -2.3211  1.2273
 2184TIP3   OH2 6557   4.194   4.043   3.705  0.2292 -0.1537 -0.1693
 2184TIP3    H1 6558   4.260   3.974   3.716  1.3185  0.9664  0.5756
 2184TIP3    H2 6559   4.225   4.095   3.631  0.0488  0.2389  0.0302
 2185TIP3   OH2 6560   0.262   5.464   4.892  0.0393  0.0359 -0.1758
 2185TIP3    H1 6561   0.170   5.443   4.877  0.1253  0.5663 -1.5378
 2185TIP3    H2 6562   0.304   5.453   4.807  1.1802  0.1420  0.3472
 2186TIP3   OH2 6563   4.672   0.143   0.688  0.0012  0.3326  0.2213
 2186TIP3    H1 6564   4.634   0.055   0.692 -0.5973  0.5657 -0.1873
 2186TIP3    H2 6565   4.690   0.166   0.779  0.2825 -0.2669  0.3186
 2187TIP3   OH2 6566   1.441   2.368   4.420  0.4160  0.4661 -0.3140
 2187TIP3    H1 6567   1.503   2.356   4.491  0.4318  0.5418 -0.3146
 2187TIP3    H2 6568   1.452   2.290   4.365  0.2567  0.3078 -0.1227
 2188TIP3   OH2 6569   3.190   1.511   3.724 -0.0856 -0.6794 -0.0642
 2188TIP3    H1 6570   3.095   1.506   3.718 -0.2546  0.1096  1.4071
 2188TIP3    H2 6571   3.212   1.450   3.795  0.5333 -1.0128 -0.5362
 2189TIP3   OH2 6572   5.064   5.935   1.503  0.4633  0.1523 -0.6078
 2189TIP3    H1 6573   5.112   6.010   1.536 -1.5661  0.2909  2.4444
 2189TIP3    H2 6574   4.973   5.965   1.497 -0.4086 -1.9590  0.6711
 2190TIP3   OH2 6575   1.419   3.567   3.640 -0.2309  0.1243 -0.5148
 2190TIP3    H1 6576   1.470   3.499   3.597 -1.0992  0.2325 -1.7522
 2190TIP3    H2 6577   1.484   3.629   3.673  0.4553  0.4549 -2.3895
 2191TIP3   OH2 6578   2.755   5.724   1.492  0.6723 -0.6926 -0.0439
 2191TIP3    H1 6579   2.750   5.683   1.578  0.5311 -0.4511  0.0642
 2191TIP3    H2 6580   2.823   5.791   1.500  0.5195 -0.5335 -0.0596
 2192TIP3   OH2 6581   5.367   5.006   4.234  0.0844  0.3143  0.0668
 2192TIP3    H1 6582   5.434   5.073   4.230  2.7233 -2.0730  0.9057
 2192TIP3    H2 6583   5.309   5.033   4.306 -0.1866  2.6346 -0.9484
 2193TIP3   OH2 6584   3.348   0.474   2.363 -0.4670  0.6887  0.4958
 2193TIP3    H1 6585   3.271   0.476   2.305  0.8140 -2.2754 -1.5771
 2193TIP3    H2 6586   3.369   0.381   2.372  2.6925  1.3570  1.2125
 2194TIP3   OH2 6587   6.031   0.364   0.647 -0.2934  0.3372  0.6731
 2194TIP3    H1 6588   6.028   0.432   0.715 -0.9507  0.1792  0.8045
 2194TIP3    H2 6589   6.095   0.301   0.680 -1.0057 -0.0191  1.4221
 2195TIP3   OH2 6590   2.466   5.938   5.167 -0.1765 -0.2365  0.6316
 2195TIP3    H1 6591   2.437   5.941   5.076 -3.0625 -0.4882  1.4383
 2195TIP3    H2 6592   2.530   5.866   5.169  0.7018  0.4130 -1.3312
 2196TIP3   OH2 6593   2.443   0.142   1.710 -0.6604 -0.3726  0.2767
 2196TIP3    H1 6594   2.523   0.182   1.744 -2.1273  4.5892 -1.2284
 2196TIP3    H2 6595   2.408   0.091   1.783  3.0131 -1.5189  1.4384
 2197TIP3   OH2 6596   0.626   3.561   0.892 -0.2310  0.2547  0.6258
 2197TIP3    H1 6597   0.699   3.608   0.931 -0.2197  1.4731 -0.7816
 2197TIP3    H2 6598   0.548   3.603   0.930 -0.2194  1.4186 -0.5468
 2198TIP3   OH2 6599   0.814   2.328   3.145  0.0163  0.1978  0.0255
 2198TIP3    H1 6600   0.881   2.357   3.083 -1.0036  2.5338 -0.0902
 2198TIP3    H2 6601   0.735   2.318   3.092 -0.3492  0.0797  0.5835
 2199TIP3   OH2 6602   0.775   3.445   2.106 -0.0647  0.1998 -0.2913
 2199TIP3    H1 6603   0.699   3.465   2.051  0.2522 -1.5099 -1.4394
 2199TIP3    H2 6604   0.774   3.350   2.115  1.8878  0.1315 -0.2799
 2200TIP3   OH2 6605   1.890   2.359   0.737  0.3725  0.1510  0.3012
 2200TIP3    H1 6606   1.982   2.341   0.716  1.1299  1.7969  1.9449
 2200TIP3    H2 6607   1.874   2.310   0.817 -0.3038 -0.3988 -0.1647
 2201TIP3   OH2 6608   3.621   4.412   4.118  0.1601  0.4664 -0.2196
 2201TIP3    H1 6609   3.650   4.334   4.071  0.2412  0.1264  0.3821
 2201TIP3    H2 6610   3.654   4.485   4.066  0.4489  0.0970 -0.5634
 2202TIP3   OH2 6611   3.165   1.666   4.010 -0.5934  0.2863  0.3446
 2202TIP3    H1 6612   3.203   1.594   3.959 -0.5607 -0.6029  1.5707
 2202TIP3    H2 6613   3.235   1.730   4.017  0.1787 -0.6258  1.2252
 2203TIP3   OH2 6614   0.976   1.606   3.794  0.2449 -0.4070  0.0586
 2203TIP3    H1 6615   1.046   1.671   3.789  0.1241 -0.3093 -0.4510
 2203TIP3    H2 6616   0.912   1.636   3.730 -0.0204 -0.7853  0.1474
 2204TIP3   OH2 6617   3.964   0.337   2.247  0.0062 -0.4902  0.0892
 2204TIP3    H1 6618   3.946   0.251   2.208  1.0879 -0.6191 -0.1674
 2204TIP3    H2 6619   3.910   0.398   2.197  0.2195 -0.8574 -0.6124
 2205TIP3   OH2 6620   0.647   4.415   0.373  0.1342 -0.5652  0.4615
 2205TIP3    H1 6621   0.574   4.434   0.432  0.6880  2.7712  0.2822
 2205TIP3    H2 6622   0.723   4.408   0.431  1.0045  4.4580  0.4120
 2206TIP3   OH2 6623   0.846   0.376   4.498 -0.0952  0.3922  0.5692
 2206TIP3    H1 6624   0.781   0.349   4.562 -1.0556  1.0196 -0.1129
 2206TIP3    H2 6625   0.900   0.440   4.545  0.9310 -1.1401  1.5593
 2207TIP3   OH2 6626   4.253   0.658   4.506 -0.2710 -0.0945  0.1736
 2207TIP3    H1 6627   4.240   0.629   4.596 -0.7381 -0.4664 -0.0066
 2207TIP3    H2 6628   4.324   0.722   4.511 -0.6395  0.2765  0.8805
 2208TIP3   OH2 6629   1.125   4.465   4.564 -0.1627 -0.1987 -0.3290
 2208TIP3    H1 6630   1.156   4.555   4.567 -1.0480  0.1640 -1.3106
 2208TIP3    H2 6631   1.184   4.421   4.503 -0.6134  0.1076 -1.0037
 2209TIP3   OH2 6632   4.630   1.046   4.992  0.4106  0.1278 -0.0095
 2209TIP3    H1 6633   4.599   1.004   5.072 -0.6513 -0.5753 -0.7664
 2209TIP3    H2 6634   4.698   0.987   4.959  0.4128  0.0982  0.0475
 2210TIP3   OH2 6635   5.458   4.397   2.775  0.0967 -0.4943  0.2817
 2210TIP3    H1 6636   5.408   4.359   2.848  0.3279  0.0271  0.7214
 2210TIP3    H2 6637   5.472   4.325   2.714  0.4019 -1.0717  1.0295
 2211TIP3   OH2 6638   5.350   4.324   3.024 -0.0528 -0.1478 -0.5154
 2211TIP3    H1 6639   5.333   4.356   3.113 -2.6360  0.1265 -1.0377
 2211TIP3    H2 6640   5.445   4.317   3.019  0.1671 -0.3725  2.3389
 2212TIP3   OH2 6641   2.555   1.882   4.716 -0.2812 -0.9274  0.4241
 2212TIP3    H1 6642   2.580   1.804   4.666 -0.6298 -1.2047  0.6809
 2212TIP3    H2 6643   2.569   1.858   4.807  2.3415  0.2627  0.4352
 2213TIP3   OH2 6644   2.212   3.440   4.539 -0.0240 -0.4761  0.2266
 2213TIP3    H1 6645   2.308   3.436   4.542 -0.0028 -1.1851 -1.0043
 2213TIP3    H2 6646   2.192   3.482   4.456 -0.7818  1.3030  1.2453
 2214TIP3   OH2 6647   5.967   3.643   1.021 -0.1319  0.2805 -0.3808
 2214TIP3    H1 6648   5.983   3.730   1.057 -0.4018 -0.4520  1.6407
 2214TIP3    H2 6649   6.053   3.612   0.992  0.3672  0.3810  0.9297
 2215TIP3   OH2 6650   0.786   1.104   1.474  0.7770 -0.3508  0.2540
 2215TIP3    H1 6651   0.816   1.184   1.519  1.0547  0.7659 -1.7999
 2215TIP3    H2 6652   0.745   1.136   1.394  0.8500 -2.2928 -0.5989
 2216TIP3   OH2 6653   3.510   3.299   4.066  0.7542  0.5192 -0.4644
 2216TIP3    H1 6654   3.470   3.233   4.009  0.3578 -0.4625  0.8954
 2216TIP3    H2 6655   3.447   3.371   4.067  0.8871  0.6557 -1.4536
 2217TIP3   OH2 6656   3.304   1.772   5.154  0.0515  0.3941 -0.7412
 2217TIP3    H1 6657   3.311   1.851   5.100  3.0159  0.0474 -1.0438
 2217TIP3    H2 6658   3.393   1.736   5.155 -0.9494 -2.2968  0.3896
 2218TIP3   OH2 6659   5.188   3.824   5.189 -0.5259 -0.1832  0.2953
 2218TIP3    H1 6660   5.148   3.909   5.209 -0.0426  0.2453 -0.5290
 2218TIP3    H2 6661   5.171   3.811   5.096  0.0454 -0.6443  0.2516
 2219TIP3   OH2 6662   1.271   5.649   2.990 -0.3607 -0.5039  0.0531
 2219TIP3    H1 6663   1.201   5.709   3.015 -0.3313 -0.3347 -0.2690
 2219TIP3    H2 6664   1.242   5.611   2.908 -0.2741 -0.7611  0.1401
 2220TIP3   OH2 6665   1.171   0.561   4.796 -0.5910  0.3550  0.2540
 2220TIP3    H1 6666   1.263   0.545   4.777 -0.7152  0.5767 -0.5543
 2220TIP3    H2 6667   1.151   0.501   4.868  0.0106 -0.1526  0.0078
 2221TIP3   OH2 6668   3.436   1.063   4.213  0.0958  0.0121  0.3272
 2221TIP3    H1 6669   3.503   1.022   4.268 -0.3611  2.4473  2.9307
 2221TIP3    H2 6670   3.443   1.156   4.232 -1.7773  0.7345 -2.0005
 2222TIP3   OH2 6671   4.071   2.840   0.248 -0.4577  0.1035  0.0731
 2222TIP3    H1 6672   4.117   2.891   0.181  3.4931 -0.3229  2.1513
 2222TIP3    H2 6673   4.036   2.906   0.308 -1.9256  0.4312 -1.1086
 2223TIP3   OH2 6674   0.963   0.594   2.450  0.3006 -0.4203  0.7489
 2223TIP3    H1 6675   0.958   0.689   2.450  0.5192 -0.3557 -1.6207
 2223TIP3    H2 6676   0.942   0.568   2.360 -1.0276 -2.6999  1.6173
 2224TIP3   OH2 6677   3.119   5.154   1.243 -0.1514 -0.0388  0.3709
 2224TIP3    H1 6678   3.065   5.082   1.275 -0.4576 -0.3250 -0.7527
 2224TIP3    H2 6679   3.057   5.217   1.207  0.1394  0.6139  0.9785
 2225TIP3   OH2 6680   2.937   0.908   1.943  0.3851 -0.3350 -0.2089
 2225TIP3    H1 6681   2.986   0.986   1.969 -0.1696 -0.0644  0.0528
 2225TIP3    H2 6682   2.925   0.859   2.024 -1.5091  0.5989  0.1399
 2226TIP3   OH2 6683   3.310   2.655   0.994 -0.5716  0.2325  0.1145
 2226TIP3    H1 6684   3.353   2.681   1.075  0.4389 -0.9950  0.0017
 2226TIP3    H2 6685   3.272   2.569   1.012 -1.6221  0.5926 -0.2821
 2227TIP3   OH2 6686   3.438   1.328   4.350  0.5100  0.7779  0.3576
 2227TIP3    H1 6687   3.516   1.327   4.405  0.5602 -0.7807  0.3087
 2227TIP3    H2 6688   3.472   1.337   4.261  0.7327 -0.7508  0.2576
 2228TIP3   OH2 6689   2.493   3.204   2.325  0.3462 -0.0478  0.4761
 2228TIP3    H1 6690   2.456   3.118   2.342 -2.1042  1.0592  1.3459
 2228TIP3    H2 6691   2.576   3.187   2.281 -0.9205 -2.7985 -1.1142
 2229TIP3   OH2 6692   2.933   1.885   1.140  0.3159 -0.1803  0.1604
 2229TIP3    H1 6693   2.906   1.949   1.073 -1.1018  1.4180  2.1390
 2229TIP3    H2 6694   3.028   1.878   1.129  0.2822  0.9908 -1.2081
 2230TIP3   OH2 6695   3.666   4.162   1.303 -0.3143 -0.1709  0.2051
 2230TIP3    H1 6696   3.692   4.081   1.347 -0.5310 -0.2975  0.1023
 2230TIP3    H2 6697   3.631   4.133   1.219  1.4384  0.1662 -0.6789
 2231TIP3   OH2 6698   0.581   5.025   0.894  0.2071  0.0006  0.4954
 2231TIP3    H1 6699   0.511   5.090   0.900 -0.9665 -1.0940 -0.6565
 2231TIP3    H2 6700   0.554   4.955   0.953  0.6992 -0.1232  0.5794
 2232TIP3   OH2 6701   4.611   0.664   1.371 -0.1254  0.1692  0.0802
 2232TIP3    H1 6702   4.596   0.681   1.278 -1.7525  1.0182  0.4700
 2232TIP3    H2 6703   4.647   0.746   1.405  0.4967 -0.1492  0.1996
 2233TIP3   OH2 6704   0.829   5.921   1.849  0.6321  0.5420  0.2197
 2233TIP3    H1 6705   0.750   5.925   1.796  0.2282  1.2494  0.8527
 2233TIP3    H2 6706   0.872   5.839   1.823 -1.3056 -0.8772  1.2410
 2234TIP3   OH2 6707   3.643   5.807   2.605 -0.1487  0.1517 -0.4210
 2234TIP3    H1 6708   3.599   5.854   2.534 -0.2452  1.1461  0.2877
 2234TIP3    H2 6709   3.571   5.774   2.659 -0.1510 -2.0172 -1.6113
 2235TIP3   OH2 6710   0.441   0.348   0.374  0.0803 -0.0372  0.3073
 2235TIP3    H1 6711   0.368   0.368   0.433  0.0571  0.0373  0.2529
 2235TIP3    H2 6712   0.476   0.434   0.349 -1.2454  0.0199 -1.4741
 2236TIP3   OH2 6713   2.931   4.510   2.099 -0.0234 -0.0881  0.1241
 2236TIP3    H1 6714   2.990   4.434   2.104  1.0601  0.7701  0.8948
 2236TIP3    H2 6715   2.931   4.534   2.007 -1.4987 -1.8574 -0.3875
 2237TIP3   OH2 6716   6.257   4.954   0.242 -0.0917 -0.5817  0.5373
 2237TIP3    H1 6717   6.218   4.870   0.265  0.6569 -1.1207 -0.1185
 2237TIP3    H2 6718   6.299   4.984   0.322  0.7028 -1.4352  0.4561
 2238TIP3   OH2 6719   3.265   0.752   5.182  0.6533 -0.0030 -0.1492
 2238TIP3    H1 6720   3.179   0.748   5.224  2.1052 -1.7179  2.9780
 2238TIP3    H2 6721   3.268   0.673   5.126  0.4061 -0.2468  0.1798
 2239TIP3   OH2 6722   5.366   3.326   0.672 -0.1710  0.1448  0.3186
 2239TIP3    H1 6723   5.461   3.322   0.683 -0.0612 -0.0723 -0.6341
 2239TIP3    H2 6724   5.353   3.367   0.587 -0.8933 -1.2401 -0.2732
 2240TIP3   OH2 6725   5.454   5.665   5.078 -0.6698  0.2013  0.7147
 2240TIP3    H1 6726   5.496   5.725   5.140  0.0946  0.6585 -0.2225
 2240TIP3    H2 6727   5.360   5.677   5.094 -0.4907 -0.1108  2.1536
 2241TIP3   OH2 6728   4.592   1.567   4.432  0.7206 -0.3049  1.1477
 2241TIP3    H1 6729   4.625   1.610   4.511 -0.9921 -1.8334  2.7931
 2241TIP3    H2 6730   4.562   1.638   4.376  3.0591  0.8855  1.2808
 2242TIP3   OH2 6731   0.610   2.251   0.933 -0.1862 -0.7953 -0.0663
 2242TIP3    H1 6732   0.553   2.180   0.963 -1.5329 -1.3624 -3.4486
 2242TIP3    H2 6733   0.552   2.327   0.926  0.7566  0.1089  1.4635
 2243TIP3   OH2 6734   3.543   5.934   0.790  0.6320 -0.0822  0.4812
 2243TIP3    H1 6735   3.558   6.025   0.764  1.7209 -0.5953 -0.7722
 2243TIP3    H2 6736   3.630   5.896   0.795  0.1283 -2.0945 -2.9324
 2244TIP3   OH2 6737   1.345   1.929   5.158  0.2168  0.2040  0.6796
 2244TIP3    H1 6738   1.333   1.863   5.090  0.9643  1.2784 -0.5606
 2244TIP3    H2 6739   1.257   1.963   5.174 -0.0565 -0.5239  0.7426
 2245TIP3   OH2 6740   5.450   2.193   5.183  0.2248  0.1916  0.1447
 2245TIP3    H1 6741   5.384   2.184   5.115 -1.2949  1.3239  1.3999
 2245TIP3    H2 6742   5.506   2.264   5.153 -0.6689  0.9466  0.2132
 2246TIP3   OH2 6743   0.873   5.404   3.869 -0.3702  0.1129 -0.4550
 2246TIP3    H1 6744   0.916   5.327   3.834  0.9924  0.7118 -0.1549
 2246TIP3    H2 6745   0.936   5.441   3.931 -1.8768  0.2344  1.0925
 2247TIP3   OH2 6746   0.172   1.438   3.708 -0.4600  0.3286  0.3858
 2247TIP3    H1 6747   0.090   1.478   3.736 -0.1075 -0.3523  2.5391
 2247TIP3    H2 6748   0.146   1.358   3.663 -1.0310 -1.3859  3.4920
 2248TIP3   OH2 6749   5.314   1.379   3.559 -0.3151  0.3154 -0.0924
 2248TIP3    H1 6750   5.258   1.446   3.600 -0.7413 -0.1689  0.1366
 2248TIP3    H2 6751   5.306   1.303   3.617  1.9181  0.7419  0.8836
 2249TIP3   OH2 6752   3.632   0.357   4.410  0.3710 -0.0438 -0.4264
 2249TIP3    H1 6753   3.707   0.307   4.443 -0.1778  0.3981  1.6821
 2249TIP3    H2 6754   3.588   0.298   4.350  1.9035 -0.6330 -1.0149
 2250TIP3   OH2 6755   1.862   1.730   5.114 -0.0607  0.1367 -0.5822
 2250TIP3    H1 6756   1.821   1.649   5.082 -0.3607 -0.1027  0.3778
 2250TIP3    H2 6757   1.790   1.781   5.150  0.4753 -0.3539  1.2727
 2251TIP3   OH2 6758   1.848   2.846   3.561  0.4932 -0.3410 -0.0169
 2251TIP3    H1 6759   1.794   2.916   3.524  0.5936 -0.2783 -0.0463
 2251TIP3    H2 6760   1.913   2.828   3.494  0.2014 -0.7667 -0.1876
 2252TIP3   OH2 6761   3.185   2.451   0.392 -0.6165 -0.0120  0.3375
 2252TIP3    H1 6762   3.268   2.498   0.391 -0.3329 -0.5054  0.2847
 2252TIP3    H2 6763   3.122   2.513   0.355 -0.6739  1.0765  2.1412
 2253TIP3   OH2 6764   2.182   1.206   2.436  0.1586 -0.4919 -0.0118
 2253TIP3    H1 6765   2.192   1.156   2.517  0.5754 -2.5910 -1.3035
 2253TIP3    H2 6766   2.227   1.289   2.454 -0.1778 -0.6998  2.0453
 2254TIP3   OH2 6767   2.528   5.890   4.654 -0.5005  0.2748 -0.0302
 2254TIP3    H1 6768   2.494   5.824   4.594  0.1399 -0.7928  0.7321
 2254TIP3    H2 6769   2.613   5.914   4.618  1.3841 -2.7014  1.9597
 2255TIP3   OH2 6770   2.386   2.656   1.631  0.5240 -0.0331 -0.0868
 2255TIP3    H1 6771   2.366   2.655   1.537 -1.2593  0.7409  0.2406
 2255TIP3    H2 6772   2.479   2.679   1.635  0.1500  2.0702 -1.6444
 2256TIP3   OH2 6773   3.781   1.605   0.137  0.3015 -0.0338 -0.0531
 2256TIP3    H1 6774   3.830   1.680   0.101  0.8264 -0.0126  0.6720
 2256TIP3    H2 6775   3.849   1.551   0.179 -0.3081  0.0736  1.1132
 2257TIP3   OH2 6776   5.755   4.927   2.864  0.1752 -0.2927  0.6747
 2257TIP3    H1 6777   5.698   4.931   2.787  0.3882  2.1871  0.5416
 2257TIP3    H2 6778   5.812   4.852   2.849 -1.4986 -1.4212 -0.3091
 2258TIP3   OH2 6779   1.026   0.323   0.726 -0.0788  0.0452 -0.4759
 2258TIP3    H1 6780   0.946   0.285   0.763 -0.5170  2.0979  0.8237
 2258TIP3    H2 6781   1.093   0.308   0.792  0.3862 -0.6957 -1.0893
 2259TIP3   OH2 6782   0.434   3.285   2.187  0.4236  0.0766  0.1233
 2259TIP3    H1 6783   0.524   3.254   2.179  0.5814  0.4855  0.2655
 2259TIP3    H2 6784   0.439   3.359   2.248  0.0223  0.2250 -0.0163
 2260TIP3   OH2 6785   0.120   5.462   1.997  0.0478 -0.3826 -0.3954
 2260TIP3    H1 6786   0.087   5.420   1.917 -0.5309  1.0732 -0.9506
 2260TIP3    H2 6787   0.051   5.446   2.062  0.0273 -0.6555 -0.4816
 2261TIP3   OH2 6788   1.149   4.753   0.121 -0.4943  0.5332 -0.1780
 2261TIP3    H1 6789   1.173   4.677   0.068 -2.6509  1.2328 -2.3827
 2261TIP3    H2 6790   1.067   4.728   0.163 -0.3237  1.0498  0.4799
 2262TIP3   OH2 6791   4.245   5.671   2.843 -0.3258 -0.4112  0.3129
 2262TIP3    H1 6792   4.179   5.628   2.898 -0.1215 -1.5633 -0.3049
 2262TIP3    H2 6793   4.322   5.678   2.899 -0.4817 -0.5258  0.5414
 2263TIP3   OH2 6794   0.965   5.482   1.522  0.3913 -0.0143  0.0025
 2263TIP3    H1 6795   0.897   5.532   1.477  1.0364 -0.4442 -1.4819
 2263TIP3    H2 6796   0.978   5.404   1.469  0.9207 -0.7248  1.1385
 2264TIP3   OH2 6797   4.275   2.553   2.047 -0.7168  0.4428  0.6377
 2264TIP3    H1 6798   4.250   2.461   2.038  0.3492  0.0181  1.6986
 2264TIP3    H2 6799   4.196   2.595   2.082 -1.3242  0.0118 -0.1802
 2265TIP3   OH2 6800   5.525   2.610   3.378  0.5558 -0.5126 -0.2757
 2265TIP3    H1 6801   5.538   2.642   3.467  2.0778  0.7363 -0.8943
 2265TIP3    H2 6802   5.579   2.668   3.324  1.9210 -2.9480 -1.6864
 2266TIP3   OH2 6803   1.815   0.381   4.185 -0.4828 -0.0582 -0.0890
 2266TIP3    H1 6804   1.737   0.437   4.186 -0.4802  0.0212  2.4185
 2266TIP3    H2 6805   1.879   0.429   4.133 -1.2725  1.1161 -0.0065
 2267TIP3   OH2 6806   0.972   0.862   4.624  0.1858  0.6391  0.4141
 2267TIP3    H1 6807   0.953   0.941   4.675  0.8089  0.3093  1.1670
 2267TIP3    H2 6808   0.918   0.872   4.545  0.0834  1.7083  0.5942
 2268TIP3   OH2 6809   1.396   1.499   1.972  0.1591 -0.4276  0.1481
 2268TIP3    H1 6810   1.390   1.586   1.933 -0.9267 -0.5725 -0.0476
 2268TIP3    H2 6811   1.309   1.462   1.961  1.1012 -2.3390 -1.6567
 2269TIP3   OH2 6812   5.538   1.944   0.141 -0.4555 -0.4300 -0.4433
 2269TIP3    H1 6813   5.475   1.973   0.075 -0.4331 -1.9867 -1.1908
 2269TIP3    H2 6814   5.622   1.980   0.113 -0.9580  1.8519  0.6783
 2270TIP3   OH2 6815   1.981   0.775   4.014  0.1839 -0.3178 -0.2503
 2270TIP3    H1 6816   1.920   0.760   3.942  2.2848 -1.5365 -1.8842
 2270TIP3    H2 6817   1.925   0.780   4.092 -1.9801 -1.6126 -1.6121
 2271TIP3   OH2 6818   1.093   3.055   3.464 -0.0892 -0.1451 -0.5508
 2271TIP3    H1 6819   1.090   3.061   3.560  2.1492 -1.1086 -0.3657
 2271TIP3    H2 6820   1.001   3.056   3.438 -0.9192 -2.1700  1.7840
 2272TIP3   OH2 6821   5.051   2.969   3.615 -0.5357 -0.4738  0.4854
 2272TIP3    H1 6822   5.111   2.992   3.544 -1.9579 -1.7568 -1.2014
 2272TIP3    H2 6823   5.089   3.011   3.693  1.5565  0.2250 -0.8362
 2273TIP3   OH2 6824   5.258   4.133   2.601  0.4672  0.1876 -0.2131
 2273TIP3    H1 6825   5.303   4.110   2.682 -1.2180 -1.2245  0.3751
 2273TIP3    H2 6826   5.327   4.132   2.535  1.5138 -0.7991  0.8313
 2274TIP3   OH2 6827   5.143   4.972   1.897 -0.3894 -0.0929  0.2594
 2274TIP3    H1 6828   5.126   5.017   1.979 -1.4340 -2.0074  1.1521
 2274TIP3    H2 6829   5.146   4.879   1.920 -0.0153 -0.6349 -1.7578
 2275TIP3   OH2 6830   3.118   4.453   4.898  0.1860  0.7008  0.3293
 2275TIP3    H1 6831   3.126   4.401   4.978 -0.1784 -1.1876 -0.8028
 2275TIP3    H2 6832   3.024   4.459   4.884  0.2500  1.0718  0.0769
 2276TIP3   OH2 6833   2.708   3.282   1.552  0.0173 -0.2221  0.1753
 2276TIP3    H1 6834   2.626   3.326   1.576 -0.3117 -0.7002 -0.0313
 2276TIP3    H2 6835   2.772   3.352   1.541 -0.3086  0.1391  0.5778
 2277TIP3   OH2 6836   5.565   4.568   4.195 -0.3652  0.2180 -0.6804
 2277TIP3    H1 6837   5.495   4.624   4.228 -0.1980 -0.2473  0.5490
 2277TIP3    H2 6838   5.520   4.486   4.170 -0.1269 -0.7176  1.6854
 2278TIP3   OH2 6839   2.967   2.204   1.310  0.0149  0.3089 -0.1160
 2278TIP3    H1 6840   3.052   2.177   1.275  1.3662  1.8451  1.7481
 2278TIP3    H2 6841   2.946   2.139   1.376  0.7916  0.9862  0.8367
 2279TIP3   OH2 6842   0.578   3.999   3.934 -0.0060  0.2833  0.0536
 2279TIP3    H1 6843   0.549   3.965   3.850 -1.0114 -0.1899  0.5759
 2279TIP3    H2 6844   0.642   3.935   3.965  1.3040  1.0910 -0.8914
 2280TIP3   OH2 6845   2.522   4.064   4.579  0.4962 -0.5342 -0.3105
 2280TIP3    H1 6846   2.529   3.975   4.545  0.0069  0.4716 -3.2946
 2280TIP3    H2 6847   2.513   4.119   4.502 -1.4513  1.9265  1.4929
 2281TIP3   OH2 6848   0.901   3.364   4.642 -0.2980  0.1945 -0.4749
 2281TIP3    H1 6849   0.839   3.344   4.712 -0.5428 -2.5147 -1.3598
 2281TIP3    H2 6850   0.846   3.384   4.566 -0.0623 -0.0165 -0.7017
 2282TIP3   OH2 6851   3.499   2.519   4.328  0.2124 -0.2672 -0.0656
 2282TIP3    H1 6852   3.542   2.602   4.346  2.4561 -1.4501  0.3294
 2282TIP3    H2 6853   3.490   2.517   4.232  0.5097  0.2521 -0.1039
 2283TIP3   OH2 6854   5.940   4.708   2.762  0.3331 -0.6788 -0.0871
 2283TIP3    H1 6855   5.936   4.709   2.666 -0.2839  0.7835 -0.0735
 2283TIP3    H2 6856   6.031   4.685   2.781  0.3086 -1.6504 -0.9973
 2284TIP3   OH2 6857   4.841   5.930   3.917  0.2437 -0.1114 -0.3336
 2284TIP3    H1 6858   4.805   5.915   4.004  0.5057  0.2665 -0.1582
 2284TIP3    H2 6859   4.797   6.009   3.885  1.9417  1.2361  0.4783
 2285TIP3   OH2 6860   3.568   3.157   0.894 -0.1267 -0.2651  0.3120
 2285TIP3    H1 6861   3.501   3.182   0.958  0.8372 -0.0755  1.2856
 2285TIP3    H2 6862   3.538   3.195   0.812 -1.9911 -1.4682  0.3531
 2286TIP3   OH2 6863   1.841   0.444   1.628 -0.6454 -0.3026 -0.1426
 2286TIP3    H1 6864   1.755   0.410   1.651 -1.1764  2.0411  1.7051
 2286TIP3    H2 6865   1.826   0.536   1.604  1.2786  0.0881 -0.0742
 2287TIP3   OH2 6866   2.904   0.931   1.530  0.4022  0.0363 -0.5034
 2287TIP3    H1 6867   2.937   0.883   1.454 -0.8019  1.6263 -2.1180
 2287TIP3    H2 6868   2.979   0.982   1.561  0.5490  0.4983 -1.5745
 2288TIP3   OH2 6869   3.062   3.737   1.208  0.7102 -0.4151 -0.1808
 2288TIP3    H1 6870   3.107   3.775   1.283  0.3147  2.4880 -1.3006
 2288TIP3    H2 6871   2.974   3.717   1.240  0.2846  1.5650 -0.0076
 2289TIP3   OH2 6872   6.258   4.298   3.876  0.6574  0.0945  0.3486
 2289TIP3    H1 6873   6.206   4.364   3.831  2.3955  1.9707  0.9735
 2289TIP3    H2 6874   6.310   4.346   3.940 -0.1761 -2.2282  3.0178
 2290TIP3   OH2 6875   4.426   5.588   4.529  0.2174 -0.2565 -0.0258
 2290TIP3    H1 6876   4.484   5.519   4.562 -0.9865 -0.9350  0.7259
 2290TIP3    H2 6877   4.369   5.543   4.466  2.0288  0.8658 -2.6822
 2291TIP3   OH2 6878   2.738   4.726   4.698 -0.0588  0.1704 -0.6493
 2291TIP3    H1 6879   2.744   4.712   4.792 -0.3928 -1.0314 -0.7930
 2291TIP3    H2 6880   2.828   4.737   4.669  0.1175 -0.4317 -0.3310
 2292TIP3   OH2 6881   1.500   2.811   4.059 -0.2162 -0.3198 -0.3111
 2292TIP3    H1 6882   1.562   2.853   4.118 -1.8625  0.5344  0.8758
 2292TIP3    H2 6883   1.521   2.848   3.973 -1.3462  2.7694  0.6068
 2293TIP3   OH2 6884   3.461   0.331   4.818  0.0870 -0.0397 -0.0397
 2293TIP3    H1 6885   3.416   0.251   4.845 -1.6978  0.8049 -0.3569
 2293TIP3    H2 6886   3.432   0.346   4.728  0.9285  0.6096 -0.2154
 2294TIP3   OH2 6887   2.840   4.970   1.017 -0.0569  0.4529  0.3066
 2294TIP3    H1 6888   2.861   4.970   1.110 -0.6990  1.6420  0.4737
 2294TIP3    H2 6889   2.763   5.027   1.010  1.2393  2.1116 -1.2126
 2295TIP3   OH2 6890   0.022   0.037   2.161 -0.4300 -0.1449  0.6866
 2295TIP3    H1 6891   0.110   0.022   2.124 -1.1131 -1.2388 -0.6195
 2295TIP3    H2 6892  -0.003   0.123   2.128  0.2789  0.3376  1.3667
 2296TIP3   OH2 6893   2.136   0.776   5.108 -0.8716 -0.6636 -0.0761
 2296TIP3    H1 6894   2.146   0.689   5.146 -0.5448 -1.1463 -1.2337
 2296TIP3    H2 6895   2.076   0.822   5.168 -1.0403 -1.6673  0.5450
 2297TIP3   OH2 6896   3.054   3.856   0.714 -0.0298 -0.4756 -0.2840
 2297TIP3    H1 6897   2.963   3.826   0.714  0.2370 -1.3389  0.8323
 2297TIP3    H2 6898   3.090   3.822   0.795  1.5812 -1.0087 -1.1820
 2298TIP3   OH2 6899   6.094   1.560   3.167 -0.5755 -0.1751  0.5346
 2298TIP3    H1 6900   6.101   1.641   3.218 -0.1828  0.9611 -1.2544
 2298TIP3    H2 6901   6.185   1.535   3.151 -0.6650  0.3307 -0.8647
 2299TIP3   OH2 6902   4.225   3.784   1.835  0.5319 -0.0976  0.4277
 2299TIP3    H1 6903   4.163   3.765   1.765  1.2433 -1.2883  0.0823
 2299TIP3    H2 6904   4.198   3.868   1.870 -0.5946 -0.0804 -0.4511
 2300TIP3   OH2 6905   1.677   1.208   3.566  0.2758  0.0513  0.2626
 2300TIP3    H1 6906   1.707   1.265   3.495  0.6400  0.9845  1.1243
 2300TIP3    H2 6907   1.583   1.223   3.571  0.0286 -1.0058 -0.8479
 2301TIP3   OH2 6908   1.688   0.192   3.985 -0.2773 -0.3414  0.3212
 2301TIP3    H1 6909   1.750   0.155   3.923 -0.8470 -1.7404  0.5357
 2301TIP3    H2 6910   1.729   0.273   4.016  1.6517 -1.4425  0.7976
 2302TIP3   OH2 6911   1.413   1.081   2.768 -0.5588 -0.3425 -0.2117
 2302TIP3    H1 6912   1.354   1.008   2.749  0.4162 -0.6865 -2.2806
 2302TIP3    H2 6913   1.497   1.054   2.729  0.0168  1.5515 -0.3711
 2303TIP3   OH2 6914   4.025   3.363   0.685  0.2759 -0.6323 -0.1322
 2303TIP3    H1 6915   4.089   3.414   0.734  0.1622  1.0525 -1.6525
 2303TIP3    H2 6916   3.944   3.372   0.736  0.0531  1.4401 -0.7722
 2304TIP3   OH2 6917   3.927   4.154   4.131  0.3965  0.8305  0.1570
 2304TIP3    H1 6918   3.863   4.086   4.111  2.4440 -1.2419  0.3698
 2304TIP3    H2 6919   3.918   4.217   4.059 -0.1360 -0.6902 -1.1498
 2305TIP3   OH2 6920   0.959   4.960   0.461  0.4363 -0.0772  0.3765
 2305TIP3    H1 6921   0.948   4.954   0.366  0.4066 -0.7913  0.4153
 2305TIP3    H2 6922   0.913   5.040   0.486 -0.4770 -0.4445 -0.0748
 2306TIP3   OH2 6923   5.109   3.068   0.408 -0.1222  0.5767  0.1579
 2306TIP3    H1 6924   5.154   3.097   0.328 -1.1395  2.6656  0.2720
 2306TIP3    H2 6925   5.027   3.117   0.408 -1.4054 -1.4340  1.1179
 2307TIP3   OH2 6926   2.674   0.499   4.562  0.2111 -0.1851  0.3166
 2307TIP3    H1 6927   2.654   0.417   4.517  0.7027  0.6370 -1.4775
 2307TIP3    H2 6928   2.737   0.543   4.505  0.7822  0.9700  1.7779
 2308TIP3   OH2 6929   1.924   4.853   3.013 -0.5328  0.5891  0.0298
 2308TIP3    H1 6930   1.912   4.878   3.104  1.1137 -2.1469  1.1449
 2308TIP3    H2 6931   1.865   4.778   3.000  1.1121 -0.7219 -0.2617
 2309TIP3   OH2 6932   6.003   3.395   1.266  0.1471 -0.4252  0.3136
 2309TIP3    H1 6933   5.941   3.351   1.323  0.9367 -2.5303 -0.3611
 2309TIP3    H2 6934   6.052   3.324   1.225  1.7191  1.1151 -0.5944
 2310TIP3   OH2 6935   1.260   4.132   0.787  0.0336  0.3205  0.7193
 2310TIP3    H1 6936   1.347   4.094   0.773  0.1978  0.9178  0.0386
 2310TIP3    H2 6937   1.268   4.221   0.753 -0.2134  1.1230  2.6228
 2311TIP3   OH2 6938   2.400   1.249   0.445  0.6098  0.2144  0.2538
 2311TIP3    H1 6939   2.393   1.154   0.437  1.8989  0.2290 -2.1720
 2311TIP3    H2 6940   2.310   1.279   0.458 -0.0987 -1.2345 -0.9793
 2312TIP3   OH2 6941   1.523   0.972   4.207  0.3368  0.3676  0.1931
 2312TIP3    H1 6942   1.529   0.969   4.112  0.0291  1.3880  0.1268
 2312TIP3    H2 6943   1.491   0.886   4.232  3.1202 -0.9566 -0.3801
 2313TIP3   OH2 6944   6.298   0.219   3.708 -0.2892 -0.7717 -0.4527
 2313TIP3    H1 6945   6.261   0.306   3.722 -0.1036 -0.6783 -0.5344
 2313TIP3    H2 6946   6.303   0.180   3.795 -0.6094 -0.7978 -0.4446
 2314TIP3   OH2 6947   3.088   0.385   0.769 -0.5700  0.3906 -0.9103
 2314TIP3    H1 6948   3.096   0.290   0.755 -0.2097  0.1690  0.6436
 2314TIP3    H2 6949   3.087   0.422   0.681 -0.8199 -1.0675 -1.5482
 2315TIP3   OH2 6950   1.942   4.867   2.257  0.1309  0.1829 -0.2776
 2315TIP3    H1 6951   1.880   4.810   2.301 -2.1553  2.8824  0.2739
 2315TIP3    H2 6952   1.923   4.955   2.290  2.8179  1.4739 -1.7362
 2316TIP3   OH2 6953   1.777   5.083   3.494 -0.0317 -0.0144  0.2019
 2316TIP3    H1 6954   1.711   5.143   3.527 -1.9026 -1.3530 -0.8630
 2316TIP3    H2 6955   1.854   5.097   3.549 -1.8201  0.2708  2.7778
 2317TIP3   OH2 6956   0.260   3.852   1.744  0.3045  0.1402  0.1802
 2317TIP3    H1 6957   0.262   3.877   1.652  1.3067  0.4394  0.2762
 2317TIP3    H2 6958   0.332   3.900   1.785 -0.4912  0.4834  1.2530
 2318TIP3   OH2 6959   2.911   0.796   2.495  0.2929 -0.3897 -0.1889
 2318TIP3    H1 6960   2.864   0.816   2.414 -0.0728 -0.3087  0.0443
 2318TIP3    H2 6961   2.844   0.794   2.562  0.7448  0.6296  0.3039
 2319TIP3   OH2 6962   4.868   0.041   2.475  0.6609 -0.1735 -0.2668
 2319TIP3    H1 6963   4.831   0.120   2.515  0.1768 -0.2995 -0.4500
 2319TIP3    H2 6964   4.816  -0.031   2.513  0.8369 -0.3715 -0.3973
 2320TIP3   OH2 6965   4.735   5.308   4.126 -0.2202  0.5167  0.7429
 2320TIP3    H1 6966   4.808   5.249   4.144 -1.0819 -0.6679  0.5151
 2320TIP3    H2 6967   4.736   5.318   4.031  0.4254  1.5565  0.8508
 2321TIP3   OH2 6968   3.635   3.608   4.258 -0.3278  0.5455  0.1366
 2321TIP3    H1 6969   3.680   3.574   4.335 -0.6202  0.8038  0.4279
 2321TIP3    H2 6970   3.704   3.621   4.193  0.0966  1.4043  0.7376
 2322TIP3   OH2 6971   4.165   0.227   4.093  0.5901  0.2021  0.3792
 2322TIP3    H1 6972   4.135   0.316   4.112  1.3204  0.6445 -0.4845
 2322TIP3    H2 6973   4.084   0.177   4.082  0.0581 -0.0957  4.3396
 2323TIP3   OH2 6974   0.603   1.755   1.145  0.6721 -0.3201 -0.0577
 2323TIP3    H1 6975   0.642   1.754   1.233 -2.0744  0.5800  1.3019
 2323TIP3    H2 6976   0.589   1.662   1.124 -0.0204 -0.5161  1.1704
 2324TIP3   OH2 6977   0.777   2.238   4.054  0.4054  0.2561 -0.1316
 2324TIP3    H1 6978   0.710   2.208   4.115 -0.1421  1.4654 -0.0961
 2324TIP3    H2 6979   0.860   2.228   4.102  0.0583  0.4700  0.5258
 2325TIP3   OH2 6980   5.510   1.636   2.970 -0.3869 -0.5687 -0.3842
 2325TIP3    H1 6981   5.501   1.599   2.882  1.1766 -0.3082 -0.6889
 2325TIP3    H2 6982   5.484   1.565   3.028  0.9288 -1.6227 -1.0131
 2326TIP3   OH2 6983   4.426   5.734   0.764 -0.1268  0.2174 -0.2438
 2326TIP3    H1 6984   4.344   5.774   0.795 -0.2237 -0.9923  1.2221
 2326TIP3    H2 6985   4.473   5.711   0.844  1.2400  0.0610 -1.0642
 2327TIP3   OH2 6986   1.217   1.810   3.408 -0.1268 -0.2343 -0.1868
 2327TIP3    H1 6987   1.160   1.885   3.422  0.5440  0.6151 -1.8243
 2327TIP3    H2 6988   1.272   1.808   3.487 -0.9390  0.2394  0.4161
 2328TIP3   OH2 6989   5.418   0.028   1.401 -0.1464 -0.0655  0.3877
 2328TIP3    H1 6990   5.468   0.108   1.384 -1.6919  0.9491  0.3291
 2328TIP3    H2 6991   5.368   0.049   1.480 -1.6662 -0.4142 -0.4550
 2329TIP3   OH2 6992   1.437   0.403   0.777  0.4195 -0.1632 -0.5399
 2329TIP3    H1 6993   1.422   0.332   0.839  0.6534 -0.1636 -0.4825
 2329TIP3    H2 6994   1.383   0.475   0.810  0.7407 -0.0800 -0.1938
 2330TIP3   OH2 6995   4.831   5.424   0.879 -0.1459  0.0790  0.5299
 2330TIP3    H1 6996   4.787   5.369   0.944 -0.1182 -2.4605 -1.4725
 2330TIP3    H2 6997   4.891   5.365   0.834  0.5127  1.9642 -1.2209
 2331TIP3   OH2 6998   0.348   2.646   0.581 -0.5639  0.4184  0.1912
 2331TIP3    H1 6999   0.363   2.561   0.539  0.8188  0.2731  0.9348
 2331TIP3    H2 7000   0.423   2.658   0.639 -1.0261  1.8970  0.5247
 2332TIP3   OH2 7001   3.739   3.934   0.668  0.5085 -0.2588  0.1062
 2332TIP3    H1 7002   3.687   3.861   0.633  1.2866 -1.1337  0.7300
 2332TIP3    H2 7003   3.820   3.932   0.618  1.3532 -1.0987  1.4377
 2333TIP3   OH2 7004   1.542   5.140   1.121 -0.8063  0.0260 -0.6635
 2333TIP3    H1 7005   1.491   5.073   1.076 -1.6731  0.8332 -0.9151
 2333TIP3    H2 7006   1.577   5.096   1.198 -2.4618 -0.3938 -0.1159
 2334TIP3   OH2 7007   3.581   5.279   2.138 -0.2028  0.6351 -0.4419
 2334TIP3    H1 7008   3.506   5.312   2.186  0.5538  2.2218 -0.2880
 2334TIP3    H2 7009   3.624   5.219   2.199 -0.9433  0.2599 -0.2792
 2335TIP3   OH2 7010   0.837   3.285   2.793  0.4869  0.1087 -0.3117
 2335TIP3    H1 7011   0.751   3.247   2.809  1.0590 -0.4855  1.8078
 2335TIP3    H2 7012   0.876   3.292   2.881  3.7408 -2.4534 -1.3614
 2336TIP3   OH2 7013   0.555   2.039   4.398 -0.6835 -0.3272 -0.0666
 2336TIP3    H1 7014   0.562   2.107   4.331  0.1559  2.3236  2.4937
 2336TIP3    H2 7015   0.463   2.043   4.426 -0.5229  0.1189  0.4099
 2337TIP3   OH2 7016   0.066   1.889   3.082 -0.1486 -0.0210  0.2077
 2337TIP3    H1 7017   0.111   1.950   3.023 -0.1711  0.7853  1.0064
 2337TIP3    H2 7018  -0.025   1.888   3.050 -0.4372  1.3374  0.9358
 2338TIP3   OH2 7019   5.533   1.412   4.226 -0.5051 -0.6942 -0.3308
 2338TIP3    H1 7020   5.595   1.368   4.284  0.2215  0.5149 -0.1430
 2338TIP3    H2 7021   5.545   1.371   4.141  0.6592 -0.4046 -0.3229
 2339TIP3   OH2 7022   1.652   3.100   2.453  0.3427  0.0349 -0.2670
 2339TIP3    H1 7023   1.678   3.108   2.361 -0.5825  0.8342 -0.4802
 2339TIP3    H2 7024   1.632   3.007   2.465  1.1691 -0.2054 -0.6646
 2340TIP3   OH2 7025   5.954   0.888   4.278  0.5115 -0.0307  0.1587
 2340TIP3    H1 7026   5.982   0.802   4.248  0.5810  0.1135 -0.1902
 2340TIP3    H2 7027   5.922   0.873   4.367 -1.9035 -0.8939 -0.7860
 2341TIP3   OH2 7028   5.332   0.718   4.915  0.4113 -0.1648  0.2267
 2341TIP3    H1 7029   5.305   0.627   4.902  0.0019  0.2044 -1.8758
 2341TIP3    H2 7030   5.252   0.762   4.945 -0.8065  0.3620 -3.2938
 2342TIP3   OH2 7031   6.237   4.616   0.967  0.2714  0.4472 -0.2686
 2342TIP3    H1 7032   6.326   4.605   0.933  1.0098 -0.3451  1.7324
 2342TIP3    H2 7033   6.188   4.542   0.931  0.9484 -0.2128  0.1531
 2343TIP3   OH2 7034   3.771   4.486   3.280  0.6308 -0.4569  0.2790
 2343TIP3    H1 7035   3.779   4.557   3.216  1.8447  0.1536  1.0776
 2343TIP3    H2 7036   3.788   4.407   3.230  2.2106  0.0665 -0.0578
 2344TIP3   OH2 7037   2.804   3.632   2.830  0.3350  0.8594  0.4784
 2344TIP3    H1 7038   2.819   3.564   2.895  1.1910  0.2297 -0.3391
 2344TIP3    H2 7039   2.874   3.619   2.766 -1.3095  0.4841 -1.3441
 2345TIP3   OH2 7040   2.406   4.331   1.020  0.2072 -0.3728  0.8202
 2345TIP3    H1 7041   2.362   4.416   1.025 -0.3274 -0.2341 -3.0941
 2345TIP3    H2 7042   2.499   4.352   1.007 -0.2090 -0.0836 -2.7352
 2346TIP3   OH2 7043   3.271   5.605   0.498  0.5180 -0.0749 -0.4996
 2346TIP3    H1 7044   3.210   5.561   0.557 -0.2382  2.3720  0.6885
 2346TIP3    H2 7045   3.275   5.549   0.420 -1.0161 -1.7296  0.5538
 2347TIP3   OH2 7046   3.606   1.123   0.281 -0.0913  0.2096  0.2620
 2347TIP3    H1 7047   3.644   1.157   0.362  1.1793  1.3729 -0.7865
 2347TIP3    H2 7048   3.600   1.028   0.296  1.0341  0.2825  1.3483
 2348TIP3   OH2 7049   3.741   1.260   0.493  0.1427 -0.0638  0.4315
 2348TIP3    H1 7050   3.671   1.248   0.557  1.6091  0.2959  2.1965
 2348TIP3    H2 7051   3.772   1.349   0.507 -0.4205  0.5514 -1.8164
 2349TIP3   OH2 7052   4.483   5.581   3.641 -0.1831 -0.2798  0.1370
 2349TIP3    H1 7053   4.466   5.542   3.727  2.6853 -1.1110  0.4173
 2349TIP3    H2 7054   4.560   5.635   3.654 -0.1549  0.1941 -1.7786
 2350TIP3   OH2 7055   2.056   2.199   2.053  0.1190 -0.1328  0.1559
 2350TIP3    H1 7056   2.002   2.219   2.129 -0.0949 -0.5854  0.1236
 2350TIP3    H2 7057   2.145   2.226   2.078  0.2387 -1.2102  0.9367
 2351TIP3   OH2 7058   1.470   3.702   2.794  0.2999 -0.2346  0.1353
 2351TIP3    H1 7059   1.383   3.742   2.793  0.1834 -0.4760  0.5958
 2351TIP3    H2 7060   1.519   3.750   2.727  0.0961  0.5346  0.5221
 2352TIP3   OH2 7061   4.505   5.538   1.489  0.6597  0.0492 -0.4229
 2352TIP3    H1 7062   4.545   5.473   1.546 -0.7973  0.9254  1.7442
 2352TIP3    H2 7063   4.411   5.518   1.493  0.3237  1.4554 -0.7670
 2353TIP3   OH2 7064   2.656   1.291   1.307  0.1632 -0.1756 -0.2484
 2353TIP3    H1 7065   2.692   1.352   1.242  2.7551 -0.2365  1.0287
 2353TIP3    H2 7066   2.652   1.207   1.262 -1.2020  0.3882 -1.2823
 2354TIP3   OH2 7067   1.040   3.228   4.332 -0.4106  0.3766 -0.2826
 2354TIP3    H1 7068   0.992   3.308   4.355 -1.4610 -0.3456  0.1000
 2354TIP3    H2 7069   1.020   3.167   4.402  0.1049 -0.3448 -0.7554
 2355TIP3   OH2 7070   5.281   1.510   4.179 -0.1740 -0.1512 -0.3322
 2355TIP3    H1 7071   5.226   1.441   4.215  0.1083 -1.1209 -1.6935
 2355TIP3    H2 7072   5.370   1.477   4.189  0.1761  1.0835  1.1700
 2356TIP3   OH2 7073   5.142   1.907   2.800  0.3615  0.9214 -0.1237
 2356TIP3    H1 7074   5.230   1.944   2.811  1.2496 -0.6993 -1.3559
 2356TIP3    H2 7075   5.127   1.911   2.706 -1.0745  1.4933  0.1012
 2357TIP3   OH2 7076   1.907   4.411   2.778 -0.6742  0.1702  0.7042
 2357TIP3    H1 7077   1.990   4.401   2.731  0.5656  2.3577  2.2154
 2357TIP3    H2 7078   1.871   4.323   2.783 -0.2630 -0.3789 -3.0984
 2358TIP3   OH2 7079   0.236   4.489   4.921  0.6397 -0.2703 -0.1111
 2358TIP3    H1 7080   0.151   4.503   4.963  1.7277 -0.4662  2.3053
 2358TIP3    H2 7081   0.300   4.516   4.986  2.4751 -1.0282 -1.5087
 2359TIP3   OH2 7082   2.984   5.857   4.621 -0.2957  0.5677  0.4175
 2359TIP3    H1 7083   3.063   5.893   4.580 -0.9147  0.8842 -0.5066
 2359TIP3    H2 7084   3.016   5.780   4.668  0.2910 -0.4168 -1.4895
 2360TIP3   OH2 7085   2.622   3.227   2.671 -0.7218  0.0440  0.1882
 2360TIP3    H1 7086   2.670   3.301   2.634  0.6617 -0.2047  1.3892
 2360TIP3    H2 7087   2.586   3.181   2.595  0.5477  0.5136 -0.7273
 2361TIP3   OH2 7088   3.849   1.735   1.410  0.7017 -0.5921  0.4315
 2361TIP3    H1 7089   3.810   1.821   1.424  0.7551 -0.8529  2.5846
 2361TIP3    H2 7090   3.942   1.747   1.430  0.4357 -1.4334  2.4324
 2362TIP3   OH2 7091   4.668   2.286   0.818  0.4898 -0.3865 -0.2536
 2362TIP3    H1 7092   4.614   2.229   0.762 -1.3848  1.7761 -0.7983
 2362TIP3    H2 7093   4.605   2.346   0.858  2.2144  0.3360  1.5045
 2363TIP3   OH2 7094   0.524   0.403   0.797  0.0796  0.3292 -0.8460
 2363TIP3    H1 7095   0.510   0.480   0.741  0.7397  1.0266 -0.0922
 2363TIP3    H2 7096   0.440   0.358   0.797  0.0283  0.3549 -2.3100
 2364TIP3   OH2 7097   0.931   1.953   3.678  0.3305  0.1791  0.2791
 2364TIP3    H1 7098   0.989   1.909   3.741  0.2778  0.0651  0.2482
 2364TIP3    H2 7099   0.929   1.894   3.602  1.9821  1.2482 -0.6449
 2365TIP3   OH2 7100   2.456   1.284   3.693  0.2317  0.0433 -0.0029
 2365TIP3    H1 7101   2.502   1.358   3.653  0.0893  0.1192 -0.0258
 2365TIP3    H2 7102   2.457   1.216   3.625 -0.2908  0.2830 -0.2570
 2366TIP3   OH2 7103   3.922   5.027   4.253  0.2321  0.2385  0.0893
 2366TIP3    H1 7104   3.834   5.053   4.278  0.5492  0.4796  0.9796
 2366TIP3    H2 7105   3.979   5.093   4.292  0.9402 -0.9469  1.1316
 2367TIP3   OH2 7106   6.164   5.207   3.046  0.1631  0.2466  0.2552
 2367TIP3    H1 7107   6.184   5.298   3.065 -1.9857  0.7485  0.3333
 2367TIP3    H2 7108   6.070   5.205   3.032  0.1314 -1.9837  0.3747
 2368TIP3   OH2 7109   1.122   1.356   3.440  0.2190  0.5072 -0.0460
 2368TIP3    H1 7110   1.198   1.365   3.381 -0.3929 -1.7039 -1.2586
 2368TIP3    H2 7111   1.160   1.361   3.528  1.5001  1.3673 -0.6064
 2369TIP3   OH2 7112   1.597   1.980   1.424  0.2325  0.7186 -0.1339
 2369TIP3    H1 7113   1.645   1.900   1.442  0.8278  1.0928 -0.0335
 2369TIP3    H2 7114   1.654   2.030   1.366 -0.2232  0.9816 -0.3664
 2370TIP3   OH2 7115   2.575   2.906   1.699 -0.4571 -0.2839  0.4997
 2370TIP3    H1 7116   2.502   2.960   1.670 -1.0396 -0.7849  0.9929
 2370TIP3    H2 7117   2.649   2.935   1.647 -0.8868  0.5984  0.3643
 2371TIP3   OH2 7118   5.269   1.569   2.167 -0.2979  0.4346 -0.2855
 2371TIP3    H1 7119   5.296   1.478   2.171 -1.1881  0.1765  0.0200
 2371TIP3    H2 7120   5.223   1.584   2.250  0.9747  1.5373  0.2581
 2372TIP3   OH2 7121   3.902   0.988   2.019 -0.1137  0.1584  0.1305
 2372TIP3    H1 7122   3.830   1.028   2.068  0.8444  0.2893  1.4667
 2372TIP3    H2 7123   3.981   1.020   2.062  0.7985  0.7736 -1.8847
 2373TIP3   OH2 7124   5.182   5.248   3.930 -0.2010 -0.4364  0.1373
 2373TIP3    H1 7125   5.267   5.216   3.961 -0.3376 -0.5453  0.3984
 2373TIP3    H2 7126   5.198   5.273   3.839 -0.3042 -2.1319 -0.3989
 2374TIP3   OH2 7127   3.544   5.073   5.171  0.5798 -0.0577  0.5551
 2374TIP3    H1 7128   3.608   5.029   5.114  0.2300 -1.7289  1.3794
 2374TIP3    H2 7129   3.494   5.129   5.112  0.8181 -1.0436 -0.6388
 2375TIP3   OH2 7130   2.002   3.666   3.104 -0.4074  0.0385  0.7545
 2375TIP3    H1 7131   1.974   3.593   3.049 -1.7003  0.8924  0.2302
 2375TIP3    H2 7132   1.997   3.742   3.046  1.5529  0.4963  1.0984
 2376TIP3   OH2 7133   2.493   1.135   3.095  0.2819 -0.1158  0.0840
 2376TIP3    H1 7134   2.552   1.069   3.132 -0.4334 -0.8851 -0.1264
 2376TIP3    H2 7135   2.502   1.125   3.000 -1.1469 -1.1451  0.0259
 2377TIP3   OH2 7136   2.664   1.099   0.303 -0.0501 -0.4328  0.3138
 2377TIP3    H1 7137   2.660   1.120   0.209 -0.4690  0.7121  0.5665
 2377TIP3    H2 7138   2.733   1.033   0.310  0.8281  0.3365 -0.6634
 2378TIP3   OH2 7139   2.698   1.209   0.782 -0.3111  0.3344  0.3708
 2378TIP3    H1 7140   2.719   1.191   0.690  1.4045 -0.5382  0.8999
 2378TIP3    H2 7141   2.671   1.125   0.817 -0.4337  0.5546  0.8060
 2379TIP3   OH2 7142   1.403   2.891   1.000  0.0539 -0.4914 -0.1388
 2379TIP3    H1 7143   1.387   2.953   1.071  0.3443 -0.6211  0.0455
 2379TIP3    H2 7144   1.421   2.808   1.045  3.1390  0.0313 -0.2016
 2380TIP3   OH2 7145   3.925   1.047   4.453 -0.2706 -0.5327 -0.1235
 2380TIP3    H1 7146   3.898   1.132   4.487 -2.7662 -1.7150  1.1192
 2380TIP3    H2 7147   3.935   0.992   4.530  0.9183 -1.5123 -0.9287
 2381TIP3   OH2 7148   4.119   3.631   0.125  0.2646  0.4008  0.7684
 2381TIP3    H1 7149   4.042   3.688   0.128 -0.2092 -0.2283  0.8917
 2381TIP3    H2 7150   4.182   3.671   0.185 -0.2669  0.5014  1.2700
 2382TIP3   OH2 7151   4.908   5.181   1.387 -0.2494  0.3395 -0.0935
 2382TIP3    H1 7152   4.926   5.126   1.310  0.4741 -0.1834  0.4370
 2382TIP3    H2 7153   4.934   5.269   1.360 -0.8742  0.3331 -0.7558
 2383TIP3   OH2 7154   2.086   5.294   0.979  0.1509  0.3930 -0.3613
 2383TIP3    H1 7155   2.120   5.310   0.891  1.3080  0.7391  0.1355
 2383TIP3    H2 7156   2.064   5.381   1.013  0.4150  0.3321 -0.0301
 2384TIP3   OH2 7157   1.546   2.718   0.335  0.0447 -0.4710  0.7051
 2384TIP3    H1 7158   1.639   2.708   0.358  0.2130  0.4767  0.4581
 2384TIP3    H2 7159   1.504   2.739   0.418  0.8230  4.1143  0.1877
 2385TIP3   OH2 7160   0.262   1.368   4.074 -0.4830 -0.0827 -0.3583
 2385TIP3    H1 7161   0.349   1.343   4.105 -0.0765  1.0597 -0.5587
 2385TIP3    H2 7162   0.205   1.353   4.150 -0.4005 -2.1665 -0.6297
 2386TIP3   OH2 7163   5.955   1.654   1.060 -0.6765  0.1549 -0.2725
 2386TIP3    H1 7164   5.864   1.629   1.077 -0.3275 -1.0651 -0.0944
 2386TIP3    H2 7165   6.006   1.589   1.108  0.2897  1.5619  0.6559
 2387TIP3   OH2 7166   3.400   0.657   4.868  0.0201 -0.4663 -0.0161
 2387TIP3    H1 7167   3.436   0.624   4.785  1.7284 -0.1178  0.5471
 2387TIP3    H2 7168   3.328   0.597   4.887  0.0368 -0.9824 -1.3948
 2388TIP3   OH2 7169   2.194   4.107   0.537  0.3798  0.2271 -0.1854
 2388TIP3    H1 7170   2.178   4.025   0.492  1.0956  1.1252 -2.1865
 2388TIP3    H2 7171   2.248   4.158   0.476 -0.4111  2.3452  0.7847
 2389TIP3   OH2 7172   5.499   0.006   2.821  0.4633 -0.2004 -0.1913
 2389TIP3    H1 7173   5.533   0.064   2.753  1.8480 -0.8307 -0.0664
 2389TIP3    H2 7174   5.417   0.047   2.849 -0.4876 -0.2509 -2.6760
 2390TIP3   OH2 7175   0.371   0.589   4.376 -0.3429  0.0859 -0.5942
 2390TIP3    H1 7176   0.382   0.554   4.464  1.3075 -1.3319 -1.2976
 2390TIP3    H2 7177   0.303   0.656   4.385 -3.1707 -2.7509  0.9870
 2391TIP3   OH2 7178   2.976   2.378   4.840 -0.0416  0.2253  0.0631
 2391TIP3    H1 7179   3.039   2.449   4.826 -0.9773  0.8799 -0.9843
 2391TIP3    H2 7180   2.930   2.402   4.920 -2.0352  2.1678 -1.5303
 2392TIP3   OH2 7181   1.160   0.999   3.393  0.3160 -0.7665 -0.1243
 2392TIP3    H1 7182   1.139   0.906   3.389 -0.7061 -0.5037 -1.5767
 2392TIP3    H2 7183   1.075   1.043   3.386  0.8351  0.2850 -0.0826
 2393TIP3   OH2 7184   3.805   0.997   5.113 -0.3682 -0.9552  0.9479
 2393TIP3    H1 7185   3.725   0.953   5.085 -0.8658  0.3327  0.2503
 2393TIP3    H2 7186   3.866   0.986   5.040 -0.6018 -0.2611  0.6344
 2394TIP3   OH2 7187   5.730   0.475   1.317 -0.5428 -0.3314  0.2109
 2394TIP3    H1 7188   5.696   0.564   1.308 -0.5530 -0.1499  1.7301
 2394TIP3    H2 7189   5.816   0.486   1.357  0.0259 -0.9472 -0.8195
 2395TIP3   OH2 7190   0.937   5.792   2.497 -0.2468 -0.3548 -0.4439
 2395TIP3    H1 7191   0.844   5.800   2.516 -0.3955  0.2046 -1.3389
 2395TIP3    H2 7192   0.941   5.768   2.404  0.4910  3.1892 -1.4896
 2396TIP3   OH2 7193   5.006   3.179   1.034 -0.1587 -0.4681 -0.1452
 2396TIP3    H1 7194   5.007   3.149   0.943  3.1865 -0.5148 -0.2021
 2396TIP3    H2 7195   4.941   3.122   1.077 -1.0257 -1.1608 -2.2240
 2397TIP3   OH2 7196   2.936   0.490   4.124 -0.0864 -0.3077  0.2188
 2397TIP3    H1 7197   3.004   0.540   4.079 -1.3426  3.4073  1.9874
 2397TIP3    H2 7198   2.862   0.492   4.064  0.1166 -0.8195 -0.0544
 2398TIP3   OH2 7199   0.999   4.898   1.623  0.3315  0.3584  0.4988
 2398TIP3    H1 7200   1.035   4.883   1.536 -1.0702  1.0854 -0.2391
 2398TIP3    H2 7201   1.074   4.927   1.675  1.1060  0.3781 -0.5892
 2399TIP3   OH2 7202   5.009   3.580   4.327  0.1053  0.3767  0.4057
 2399TIP3    H1 7203   5.024   3.658   4.381  0.9099 -0.1156  0.9217
 2399TIP3    H2 7204   5.049   3.509   4.377  0.1453 -0.2234 -0.4646
 2400TIP3   OH2 7205   5.800   5.831   1.477  0.0675  0.0445 -0.5599
 2400TIP3    H1 7206   5.768   5.789   1.397 -1.0293 -0.1979 -0.0133
 2400TIP3    H2 7207   5.788   5.766   1.546  2.2097 -0.2356 -0.3768
 2401TIP3   OH2 7208   3.749   1.233   1.004  0.8267 -0.0673  0.4980
 2401TIP3    H1 7209   3.682   1.169   0.984  0.1022  0.7042  0.4169
 2401TIP3    H2 7210   3.804   1.236   0.926 -0.2478  0.7812 -0.2383
 2402TIP3   OH2 7211   1.169   0.276   0.965  0.3277 -0.1215 -0.1427
 2402TIP3    H1 7212   1.170   0.180   0.968  2.9943 -0.1691  1.3937
 2402TIP3    H2 7213   1.119   0.302   1.042 -2.4919 -0.1412 -1.8323
 2403TIP3   OH2 7214   2.899   1.383   4.381 -0.3885  0.7814 -0.0357
 2403TIP3    H1 7215   2.962   1.368   4.310  0.3553  1.5119  0.4473
 2403TIP3    H2 7216   2.898   1.478   4.393  3.3121  0.6388  4.1506
 2404TIP3   OH2 7217   0.532   2.679   1.465  0.3872  0.5620 -0.2774
 2404TIP3    H1 7218   0.584   2.638   1.534  1.3050  0.3729 -1.0564
 2404TIP3    H2 7219   0.586   2.752   1.435  1.0704 -0.7114 -2.3350
 2405TIP3   OH2 7220   3.070   0.272   1.689  0.0413 -0.0611 -0.0362
 2405TIP3    H1 7221   3.146   0.328   1.701 -0.1635 -0.1298  1.8238
 2405TIP3    H2 7222   3.101   0.184   1.711 -0.6636 -0.0231  1.1753
 2406TIP3   OH2 7223   1.475   5.439   2.683 -0.0630 -0.2780  0.1769
 2406TIP3    H1 7224   1.430   5.359   2.655 -0.6048 -0.6327  1.9852
 2406TIP3    H2 7225   1.553   5.442   2.628  0.2923 -2.3954  0.4830
 2407TIP3   OH2 7226   2.447   2.506   5.144 -0.1186  0.6575  0.5850
 2407TIP3    H1 7227   2.370   2.463   5.182 -1.4356  3.1896  0.9733
 2407TIP3    H2 7228   2.483   2.560   5.214 -0.5214  2.7173 -0.7018
 2408TIP3   OH2 7229   2.219   3.768   1.892  0.2038 -0.7737  0.3566
 2408TIP3    H1 7230   2.184   3.722   1.816  0.4168 -1.2112  0.5238
 2408TIP3    H2 7231   2.196   3.713   1.966  0.8567 -0.8361  0.5138
 2409TIP3   OH2 7232   0.867   1.078   3.350  0.1074  0.3111 -0.8183
 2409TIP3    H1 7233   0.847   1.093   3.258 -0.4844  0.4281 -0.6782
 2409TIP3    H2 7234   0.799   1.126   3.398 -1.8150 -2.5946 -0.3410
 2410TIP3   OH2 7235   5.896   4.207   4.268  0.0127  0.0903  0.1760
 2410TIP3    H1 7236   5.954   4.133   4.286 -0.9892 -0.3850  1.6237
 2410TIP3    H2 7237   5.835   4.175   4.201  1.2336  0.5334 -1.2160
 2411TIP3   OH2 7238   2.072   1.255   4.448 -0.0528  0.2990  0.4379
 2411TIP3    H1 7239   2.118   1.179   4.411  0.5909 -0.1818  2.1162
 2411TIP3    H2 7240   1.980   1.232   4.442  0.0242  0.2505 -0.8485
 2412TIP3   OH2 7241   5.846   0.514   3.326 -0.2779 -0.2230 -0.5833
 2412TIP3    H1 7242   5.833   0.582   3.261 -2.3047 -0.7630 -0.7962
 2412TIP3    H2 7243   5.874   0.437   3.275 -2.0640 -0.7048 -0.8984
 2413TIP3   OH2 7244   3.849   1.267   4.875  0.1559 -0.0606  0.1149
 2413TIP3    H1 7245   3.890   1.186   4.845  0.8522 -0.3009  1.5951
 2413TIP3    H2 7246   3.922   1.323   4.900 -0.3638 -0.0999  1.8456
 2414TIP3   OH2 7247   1.123   2.697   0.628  0.3853 -0.2590 -0.5149
 2414TIP3    H1 7248   1.063   2.745   0.572  1.5895  0.8140 -0.9503
 2414TIP3    H2 7249   1.128   2.749   0.708  1.0036 -0.1417 -0.6259
 2415TIP3   OH2 7250   2.965   2.241   0.192  0.1250  0.5920 -0.2068
 2415TIP3    H1 7251   3.041   2.239   0.134  1.0023  1.4829  0.8474
 2415TIP3    H2 7252   3.002   2.227   0.279 -1.3711 -2.9998  0.0325
 2416TIP3   OH2 7253   3.111   2.726   1.902  0.7664 -0.2664 -0.2546
 2416TIP3    H1 7254   3.072   2.773   1.976  0.6328 -0.7511 -0.0079
 2416TIP3    H2 7255   3.184   2.781   1.874  0.9175 -0.1517  0.3398
 2417TIP3   OH2 7256   5.232   2.761   2.568 -0.2871 -1.0331 -0.2250
 2417TIP3    H1 7257   5.275   2.743   2.484 -0.3168 -1.9363 -0.0557
 2417TIP3    H2 7258   5.140   2.771   2.547 -0.1234  0.0898 -0.4763
 2418TIP3   OH2 7259   3.181   0.641   3.966 -0.1935  0.6044  0.1654
 2418TIP3    H1 7260   3.241   0.700   4.011 -2.0675  2.5662  0.2790
 2418TIP3    H2 7261   3.170   0.680   3.879  0.9506 -1.4019 -0.9467
 2419TIP3   OH2 7262   2.617   2.164   2.521  0.6595 -0.0916 -0.1311
 2419TIP3    H1 7263   2.604   2.071   2.504 -0.0557 -0.3473  1.6413
 2419TIP3    H2 7264   2.604   2.206   2.436  1.5641 -1.6314 -1.0797
 2420TIP3   OH2 7265   5.726   2.889   1.247 -0.1124  0.1451  0.5714
 2420TIP3    H1 7266   5.696   2.864   1.159  1.7118 -2.4317  0.6021
 2420TIP3    H2 7267   5.652   2.939   1.283 -1.2084  0.6712 -2.1204
 2421TIP3   OH2 7268   0.566   3.554   1.935 -0.0579 -0.2423  0.4413
 2421TIP3    H1 7269   0.530   3.642   1.928  1.6625  0.6100  1.3786
 2421TIP3    H2 7270   0.511   3.500   1.879  0.0639  1.8187 -1.8067
 2422TIP3   OH2 7271   4.963   1.676   1.774 -0.0079  0.2473 -0.6199
 2422TIP3    H1 7272   4.897   1.719   1.720  0.5229  1.6110 -0.2142
 2422TIP3    H2 7273   5.040   1.733   1.769  0.4832 -0.2773  0.5228
 2423TIP3   OH2 7274   1.932   4.555   1.488  0.6653 -0.1471  0.1959
 2423TIP3    H1 7275   1.883   4.528   1.565 -0.4201  1.3876  0.1084
 2423TIP3    H2 7276   1.871   4.541   1.415  0.4831  1.3112  0.0247
 2424TIP3   OH2 7277   2.233   1.152   0.989 -0.5194  0.2333 -0.2025
 2424TIP3    H1 7278   2.245   1.060   1.012 -2.1541  0.0235 -0.0188
 2424TIP3    H2 7279   2.260   1.158   0.898  0.7922 -0.1375  0.1415
 2425TIP3   OH2 7280   1.976   4.602   2.123  0.0137 -0.7202  0.3606
 2425TIP3    H1 7281   1.963   4.689   2.160  1.0181 -0.6613  0.5919
 2425TIP3    H2 7282   1.894   4.556   2.141 -0.1756 -0.1265  1.0666
 2426TIP3   OH2 7283   0.611   0.064   4.347  0.1995 -0.0906 -0.5517
 2426TIP3    H1 7284   0.550   0.058   4.274  0.5511  0.4998 -0.8975
 2426TIP3    H2 7285   0.584   0.143   4.394  0.4978 -0.0035 -0.5250
 2427TIP3   OH2 7286   4.133   0.609   0.678  0.2606 -0.3291 -0.2144
 2427TIP3    H1 7287   4.227   0.618   0.693 -0.3873  2.4128  3.9451
 2427TIP3    H2 7288   4.106   0.696   0.647 -1.1016 -0.5693  0.2409
 2428TIP3   OH2 7289   4.405   3.246   2.648  0.3615 -0.0145 -0.3144
 2428TIP3    H1 7290   4.414   3.212   2.559 -0.4041 -1.4142  0.1030
 2428TIP3    H2 7291   4.484   3.217   2.693 -0.7161 -2.2524  0.3027
 2429TIP3   OH2 7292   4.631   1.499   2.735  0.1484  0.5528  0.2466
 2429TIP3    H1 7293   4.579   1.551   2.796 -2.1689  0.4075 -1.4437
 2429TIP3    H2 7294   4.620   1.409   2.767 -0.7598  0.5151 -0.1249
 2430TIP3   OH2 7295   5.907   2.494   1.149  0.5332  0.1059 -0.4156
 2430TIP3    H1 7296   5.956   2.414   1.130  0.0351 -0.1353 -0.7110
 2430TIP3    H2 7297   5.879   2.484   1.240  2.1117  0.8292  0.1892
 2431TIP3   OH2 7298   3.889   2.031   3.722 -0.5993  0.0818  0.4126
 2431TIP3    H1 7299   3.967   2.034   3.778 -1.1851  0.9620  1.1938
 2431TIP3    H2 7300   3.827   1.977   3.771 -0.4729 -0.7048 -0.2581
 2432TIP3   OH2 7301   5.199   5.471   4.585  0.5086  0.0549 -0.0465
 2432TIP3    H1 7302   5.180   5.496   4.494 -0.4455 -0.2248  0.0617
 2432TIP3    H2 7303   5.169   5.545   4.637  1.2001  0.2801  0.0386
 2433TIP3   OH2 7304   4.373   2.646   0.660 -0.1787  0.0353 -0.3678
 2433TIP3    H1 7305   4.299   2.708   0.660  0.7672  1.2130 -0.9447
 2433TIP3    H2 7306   4.374   2.610   0.572 -0.7225 -0.8359 -0.0349
 2434TIP3   OH2 7307   3.652   4.483   1.119  0.3644  0.1956 -0.4400
 2434TIP3    H1 7308   3.636   4.547   1.050 -3.1263 -1.0576 -1.0348
 2434TIP3    H2 7309   3.686   4.406   1.073 -1.4376 -0.4453 -0.8138
 2435TIP3   OH2 7310   2.925   0.070   1.511 -0.1012 -0.6063  1.1107
 2435TIP3    H1 7311   3.002   0.037   1.465 -1.5829  0.5337 -2.5450
 2435TIP3    H2 7312   2.959   0.140   1.567  1.7043 -1.4043  1.0936
 2436TIP3   OH2 7313   4.379   4.360   0.853 -0.6325 -0.4115  0.6791
 2436TIP3    H1 7314   4.395   4.314   0.770 -3.3374  1.8545 -1.2695
 2436TIP3    H2 7315   4.319   4.303   0.901 -2.3647  0.0371 -0.8366
 2437TIP3   OH2 7316   6.150   4.468   4.283  0.8438  0.4020  0.5995
 2437TIP3    H1 7317   6.106   4.419   4.352  0.9317  0.1677  0.4881
 2437TIP3    H2 7318   6.107   4.440   4.202  1.9044 -0.6319  0.3700
 2438TIP3   OH2 7319   6.100   4.907   1.058 -0.1140  0.1402 -0.1189
 2438TIP3    H1 7320   6.115   4.970   0.988 -0.5342 -0.4916 -0.7951
 2438TIP3    H2 7321   6.011   4.875   1.043 -0.4428  0.4230  1.0603
 2439TIP3   OH2 7322   5.623   4.676   3.058 -0.1489 -0.2579 -0.0719
 2439TIP3    H1 7323   5.551   4.677   2.995  0.3975 -2.8021 -0.8799
 2439TIP3    H2 7324   5.581   4.689   3.143 -1.5834 -1.5525 -0.5336
 2440TIP3   OH2 7325   0.680   4.105   2.089  0.0274  0.0266  0.2206
 2440TIP3    H1 7326   0.749   4.129   2.027  0.0208 -0.2392  0.1075
 2440TIP3    H2 7327   0.598   4.125   2.043  0.0311  0.8364  0.5563
 2441TIP3   OH2 7328   2.527   5.039   1.543 -0.0242 -0.3535 -0.5882
 2441TIP3    H1 7329   2.560   4.960   1.502 -0.4096 -1.1194  0.5345
 2441TIP3    H2 7330   2.552   5.031   1.635  0.1570  0.9546 -0.4983
 2442TIP3   OH2 7331   3.563   0.660   5.096  0.0470  0.4424  0.1186
 2442TIP3    H1 7332   3.566   0.756   5.098  1.8028  0.4075  1.0687
 2442TIP3    H2 7333   3.494   0.640   5.032  0.3104  2.3293 -0.8352
 2443TIP3   OH2 7334   1.560   4.582   3.602  0.2624  0.1491 -0.0647
 2443TIP3    H1 7335   1.579   4.586   3.696 -0.6104  0.6767  0.1022
 2443TIP3    H2 7336   1.615   4.650   3.564  0.6280 -0.0732  0.0625
 2444TIP3   OH2 7337   0.329   5.186   5.016 -0.5794 -0.3785  0.0161
 2444TIP3    H1 7338   0.316   5.277   4.986  0.1283  0.6087  2.4721
 2444TIP3    H2 7339   0.241   5.149   5.016 -0.8153  0.0966 -1.5521
 2445TIP3   OH2 7340   5.186   5.211   0.687  0.0023 -0.3310  0.1998
 2445TIP3    H1 7341   5.214   5.209   0.595  2.1945 -0.9014  0.8308
 2445TIP3    H2 7342   5.194   5.303   0.713  1.4510 -0.4921  0.3864
 2446TIP3   OH2 7343   4.156   5.339   0.242  0.3140  0.2462  0.0585
 2446TIP3    H1 7344   4.212   5.318   0.317 -1.3310 -1.6719  0.8593
 2446TIP3    H2 7345   4.080   5.382   0.281 -1.4227 -2.4053 -0.1393
 2447TIP3   OH2 7346   1.460   2.410   1.672  0.7706 -0.0680 -0.2205
 2447TIP3    H1 7347   1.444   2.483   1.731  2.3035  0.9440 -0.9976
 2447TIP3    H2 7348   1.385   2.351   1.685 -0.5241  1.6430  0.3908
 2448TIP3   OH2 7349   0.791   0.450   2.688 -0.2786 -0.0867 -0.2679
 2448TIP3    H1 7350   0.867   0.499   2.658 -0.9271 -0.5443 -2.8492
 2448TIP3    H2 7351   0.716   0.500   2.656 -1.0238 -0.8404  0.2563
 2449TIP3   OH2 7352   1.282   1.361   1.713 -0.1427  0.4128 -0.4103
 2449TIP3    H1 7353   1.358   1.416   1.690 -0.4277  0.9740 -0.0221
 2449TIP3    H2 7354   1.217   1.381   1.645  0.5424 -1.1134 -1.5633
 2450TIP3   OH2 7355   5.600   5.865   3.929 -0.2679 -0.1743 -0.2210
 2450TIP3    H1 7356   5.652   5.788   3.907  0.7025  0.7788 -1.4067
 2450TIP3    H2 7357   5.523   5.859   3.873 -0.7153 -0.7964  0.4387
 2451TIP3   OH2 7358   1.923   5.168   1.660 -0.0840 -0.0347 -0.1668
 2451TIP3    H1 7359   1.888   5.119   1.735 -1.6894  1.3219  0.0387
 2451TIP3    H2 7360   2.011   5.193   1.687 -0.4293 -0.0543  1.0363
 2452TIP3   OH2 7361   2.072   5.530   3.648 -0.1985 -1.0086 -0.1365
 2452TIP3    H1 7362   2.068   5.436   3.664  0.9261 -1.2559 -1.1750
 2452TIP3    H2 7363   2.148   5.542   3.591 -0.9374  0.4010 -0.9023
 2453TIP3   OH2 7364   2.027   2.053   1.803 -0.7197  0.4071 -0.0878
 2453TIP3    H1 7365   2.021   2.111   1.879  2.0059  1.4793 -0.5809
 2453TIP3    H2 7366   2.117   2.064   1.771 -1.0713 -1.7545 -2.1023
 2454TIP3   OH2 7367   1.467   1.546   1.599 -0.1702  0.3067  0.1979
 2454TIP3    H1 7368   1.559   1.530   1.623 -0.3595  0.1874  0.8665
 2454TIP3    H2 7369   1.467   1.636   1.567 -0.0646  0.8431  1.6181
 2455TIP3   OH2 7370   5.555   4.802   0.410  0.1645  0.0019  0.1732
 2455TIP3    H1 7371   5.507   4.758   0.340 -1.4340  2.9177 -0.7475
 2455TIP3    H2 7372   5.493   4.806   0.483  0.1032  1.0918  0.0713
 2456TIP3   OH2 7373   1.183   5.175   1.283 -0.1725  0.0866  0.4487
 2456TIP3    H1 7374   1.241   5.239   1.242 -0.1034 -1.4927 -2.1403
 2456TIP3    H2 7375   1.237   5.134   1.351  1.0537  0.1387 -0.4570
 2457TIP3   OH2 7376   0.173   0.058   4.192 -0.1518  0.1951 -0.3982
 2457TIP3    H1 7377   0.235   0.033   4.260 -0.6456 -1.2506 -0.4317
 2457TIP3    H2 7378   0.142   0.145   4.218  1.7422  0.8991 -0.3108
 2458TIP3   OH2 7379   1.840   1.159   5.102 -0.0356  0.2564  0.1250
 2458TIP3    H1 7380   1.901   1.215   5.054  0.8411 -0.5765  0.2311
 2458TIP3    H2 7381   1.817   1.210   5.179  0.9513  0.3809  0.3526
 2459TIP3   OH2 7382   2.543   3.752   4.906  0.5570 -0.1733  0.2157
 2459TIP3    H1 7383   2.596   3.690   4.956 -0.7378 -1.0420  0.5540
 2459TIP3    H2 7384   2.492   3.799   4.972  0.6609  0.4263 -0.1256
 2460TIP3   OH2 7385   1.768   4.168   2.799 -0.7330  0.0036  0.8874
 2460TIP3    H1 7386   1.715   4.104   2.846 -3.2616  1.2039 -0.1095
 2460TIP3    H2 7387   1.804   4.120   2.724 -1.9120 -0.4617  0.5999
 2461TIP3   OH2 7388   0.547   3.012   2.374  0.4335 -0.0498  0.3651
 2461TIP3    H1 7389   0.532   2.926   2.334  0.6406  0.1191 -0.0726
 2461TIP3    H2 7390   0.575   2.992   2.464 -0.2053 -0.4231  0.4866
 2462TIP3   OH2 7391   1.405   1.351   3.339  0.2634 -0.5855 -0.1625
 2462TIP3    H1 7392   1.427   1.258   3.345  0.3610 -0.7960 -2.7322
 2462TIP3    H2 7393   1.465   1.386   3.274 -0.1824  1.1730  0.3157
 2463TIP3   OH2 7394   0.314   3.308   4.766  0.2900 -0.3374  0.2118
 2463TIP3    H1 7395   0.252   3.361   4.717  0.8592  0.0228 -0.1294
 2463TIP3    H2 7396   0.347   3.366   4.835  0.3939 -0.4612  0.2686
 2464TIP3   OH2 7397   6.342   4.193   4.812  0.1901  0.0817  0.2745
 2464TIP3    H1 7398   6.282   4.220   4.881  2.2193  0.5771  1.9298
 2464TIP3    H2 7399   6.297   4.120   4.769 -2.4726  1.7179  0.0497
 2465TIP3   OH2 7400   3.932   3.427   2.689  0.0378 -0.2280  0.1911
 2465TIP3    H1 7401   3.860   3.398   2.633 -0.2485  2.0419 -0.6950
 2465TIP3    H2 7402   3.902   3.509   2.728  1.9507  0.5409  0.1745
 2466TIP3   OH2 7403   1.026   1.556   4.613  0.4162 -0.1443  0.1276
 2466TIP3    H1 7404   0.992   1.581   4.527  1.2795  0.1905 -0.1338
 2466TIP3    H2 7405   1.063   1.637   4.648  1.7332 -0.6584 -0.0005
 2467TIP3   OH2 7406   5.248   3.180   4.455  0.8017 -0.1144  0.3030
 2467TIP3    H1 7407   5.262   3.221   4.369  1.0689 -1.3923 -0.2902
 2467TIP3    H2 7408   5.233   3.087   4.435 -1.2676 -0.0854  1.4825
 2468TIP3   OH2 7409   0.601   1.456   0.225  0.1721 -0.3355  0.3565
 2468TIP3    H1 7410   0.675   1.434   0.282 -1.3105  0.3219  2.6645
 2468TIP3    H2 7411   0.595   1.551   0.230 -0.7259 -0.3717  0.0624
 2469TIP3   OH2 7412   6.158   1.508   1.873 -0.6671 -0.7063  0.1026
 2469TIP3    H1 7413   6.070   1.541   1.893 -0.0012  0.6091  0.9460
 2469TIP3    H2 7414   6.173   1.440   1.939  0.0889  1.1379  1.9412
 2470TIP3   OH2 7415   3.905   4.429   2.014 -0.6200 -0.1274  0.5447
 2470TIP3    H1 7416   3.815   4.450   1.988  0.2684 -0.3473 -3.2792
 2470TIP3    H2 7417   3.911   4.334   2.003  0.5610  0.1151 -1.3505
 2471TIP3   OH2 7418   0.541   5.664   0.935 -0.6175 -0.0236  0.0804
 2471TIP3    H1 7419   0.592   5.623   0.866 -0.4818  1.3609 -0.6677
 2471TIP3    H2 7420   0.597   5.734   0.968 -1.2447  0.2370  0.6171
 2472TIP3   OH2 7421   0.846   2.460   4.814  0.0765  0.4966 -0.3692
 2472TIP3    H1 7422   0.762   2.505   4.806  0.3130  1.3767  1.6054
 2472TIP3    H2 7423   0.823   2.373   4.846 -0.1183  0.5581 -0.3415
 2473TIP3   OH2 7424   0.742   5.586   0.281 -0.4002 -0.0405 -0.2160
 2473TIP3    H1 7425   0.814   5.638   0.245 -1.5192  0.3573 -1.9992
 2473TIP3    H2 7426   0.733   5.616   0.372  0.1742  1.5655 -0.6655
 2474TIP3   OH2 7427   2.636   0.149   0.179  0.2688  0.4878 -0.1622
 2474TIP3    H1 7428   2.680   0.229   0.151  0.3897  1.1397  1.7997
 2474TIP3    H2 7429   2.583   0.175   0.254 -0.3151 -1.1230  0.0225
 2475TIP3   OH2 7430   1.732   2.082   1.969 -0.4283  0.3014 -0.0744
 2475TIP3    H1 7431   1.806   2.030   1.938  0.1189  1.8142 -1.4309
 2475TIP3    H2 7432   1.709   2.139   1.896 -0.8990  2.0766  1.3669
 2476TIP3   OH2 7433   0.500   3.891   1.879 -0.1833  0.1845 -0.0986
 2476TIP3    H1 7434   0.584   3.850   1.896 -0.1160  0.2147 -0.3413
 2476TIP3    H2 7435   0.436   3.836   1.923 -0.0179  0.2651  0.2409
 2477TIP3   OH2 7436   2.951   4.950   1.289 -0.3219 -0.1300 -0.3878
 2477TIP3    H1 7437   2.859   4.943   1.315 -0.1688  0.2861  0.3162
 2477TIP3    H2 7438   2.998   4.897   1.353 -0.0027  0.2774 -0.2775
 2478TIP3   OH2 7439   2.040   4.010   0.162  0.2288  0.5598  0.1801
 2478TIP3    H1 7440   2.122   4.004   0.211  1.0026 -0.0949 -1.1521
 2478TIP3    H2 7441   2.058   3.966   0.079 -1.3923  0.6468 -0.2523
 2479TIP3   OH2 7442   0.943   0.085   0.531 -0.0640  0.3397 -0.4821
 2479TIP3    H1 7443   0.883   0.117   0.598 -1.3734 -0.2522 -1.3362
 2479TIP3    H2 7444   0.903   0.004   0.499  0.8509  0.2854 -1.5484
 2480TIP3   OH2 7445   4.142   4.747   3.522  0.2683  1.2565  0.1987
 2480TIP3    H1 7446   4.059   4.718   3.484  0.7497  1.4559 -1.0377
 2480TIP3    H2 7447   4.155   4.688   3.597  0.1419 -0.2982 -0.9414
 2481TIP3   OH2 7448   3.046   2.855   2.680  0.9321 -0.1293 -0.0905
 2481TIP3    H1 7449   3.093   2.838   2.762  0.3050 -0.3984  0.2247
 2481TIP3    H2 7450   3.003   2.940   2.694  2.3659  0.7499 -0.8726
 2482TIP3   OH2 7451   1.173   3.974   2.970  0.1279 -0.2041 -0.0296
 2482TIP3    H1 7452   1.224   4.021   2.904  1.6784 -1.1954  0.4112
 2482TIP3    H2 7453   1.125   3.908   2.920  1.0680 -0.7604 -0.2297
 2483TIP3   OH2 7454   4.235   1.380   1.675  0.2096 -0.1231  0.5026
 2483TIP3    H1 7455   4.269   1.314   1.614  0.5563  0.2670  0.2747
 2483TIP3    H2 7456   4.237   1.336   1.760 -0.2595 -0.6648  0.2473
 2484TIP3   OH2 7457   0.172   3.704   0.012 -0.4197  0.0604  0.0133
 2484TIP3    H1 7458   0.262   3.733  -0.002 -1.0725  1.9187 -0.7290
 2484TIP3    H2 7459   0.175   3.653   0.092  1.3905 -0.4773 -0.3499
 2485TIP3   OH2 7460   3.431   3.624   4.479  0.7668 -0.6068  0.3276
 2485TIP3    H1 7461   3.515   3.641   4.437 -0.3932 -1.0208 -2.3651
 2485TIP3    H2 7462   3.373   3.692   4.446 -0.8039 -2.3652 -0.7254
 2486TIP3   OH2 7463   5.232   5.802   4.669 -0.7274  0.5313  0.1159
 2486TIP3    H1 7464   5.168   5.853   4.619 -1.3107  0.8066  1.1179
 2486TIP3    H2 7465   5.179   5.742   4.722 -0.0634 -0.9669 -0.8508
 2487TIP3   OH2 7466   2.837   2.597   2.174  0.1075  0.3618  0.0986
 2487TIP3    H1 7467   2.835   2.542   2.095 -1.0143 -0.9921  1.0031
 2487TIP3    H2 7468   2.906   2.558   2.228 -0.9189 -0.4399  0.8894
 2488TIP3   OH2 7469   1.313   0.156   4.971  0.3520  0.1853 -0.3235
 2488TIP3    H1 7470   1.264   0.074   4.966  0.2294  0.2541 -0.2443
 2488TIP3    H2 7471   1.248   0.222   4.995  0.4154  0.3380 -0.5689
 2489TIP3   OH2 7472   2.007   3.492   4.833  0.3916 -0.1599 -0.1773
 2489TIP3    H1 7473   1.991   3.525   4.744 -0.7287 -0.4908 -0.1163
 2489TIP3    H2 7474   2.033   3.401   4.821  0.0787 -0.2538 -0.1711
 2490TIP3   OH2 7475   5.316   1.422   5.026 -0.1599 -0.8646 -0.3535
 2490TIP3    H1 7476   5.257   1.382   5.090 -0.0826 -2.9654 -1.5083
 2490TIP3    H2 7477   5.259   1.478   4.973  0.0149  2.1879  2.3701
 2491TIP3   OH2 7478   3.104   1.962   4.316 -0.3018 -0.0711  0.0287
 2491TIP3    H1 7479   3.016   1.957   4.352 -0.0070 -0.1820  0.7613
 2491TIP3    H2 7480   3.106   2.045   4.268 -0.8582 -0.1633 -0.1541
 2492TIP3   OH2 7481   5.525   0.132   2.093 -0.2481  0.1127  0.5259
 2492TIP3    H1 7482   5.435   0.099   2.091 -0.9358  1.8119  1.4344
 2492TIP3    H2 7483   5.525   0.204   2.029  0.6046 -0.1536  0.2084
 2493TIP3   OH2 7484   5.078   0.092   0.394  0.0678 -0.4594  0.4820
 2493TIP3    H1 7485   5.037   0.115   0.477 -1.2833 -1.5726  0.1578
 2493TIP3    H2 7486   5.131   0.015   0.413 -1.7915 -1.9524 -0.0081
 2494TIP3   OH2 7487   4.856   5.060   2.171  0.1187  0.0735  0.3665
 2494TIP3    H1 7488   4.847   5.132   2.108  2.2335 -0.1069 -0.2146
 2494TIP3    H2 7489   4.948   5.063   2.198  0.6345 -3.1029 -0.5708
 2495TIP3   OH2 7490   0.139   3.804   0.748 -0.5606  0.0799 -0.1102
 2495TIP3    H1 7491   0.055   3.844   0.771 -2.5453 -3.7687  0.0524
 2495TIP3    H2 7492   0.187   3.798   0.831 -1.5350 -0.6710  0.4059
 2496TIP3   OH2 7493   0.133   5.314   3.611  0.4212 -0.7934 -0.0379
 2496TIP3    H1 7494   0.094   5.227   3.601 -0.2389 -0.5427  0.2430
 2496TIP3    H2 7495   0.202   5.318   3.545 -1.5832 -0.3758 -2.2321
 2497TIP3   OH2 7496   6.157   1.836   2.738 -0.3986 -0.4242 -0.0509
 2497TIP3    H1 7497   6.210   1.903   2.781  0.0621 -0.3555 -0.7262
 2497TIP3    H2 7498   6.096   1.885   2.683  0.6239 -0.5681 -1.3519
 2498TIP3   OH2 7499   4.873   0.354   1.211  0.4710 -0.2511 -0.7783
 2498TIP3    H1 7500   4.901   0.295   1.281  1.1474  2.2841  1.2616
 2498TIP3    H2 7501   4.786   0.323   1.187 -0.1459 -0.7846  1.7931
 2499TIP3   OH2 7502   5.568   0.966   1.535 -0.0220 -0.1036  0.3662
 2499TIP3    H1 7503   5.605   0.879   1.524 -1.5571 -0.8191  0.5528
 2499TIP3    H2 7504   5.638   1.018   1.574  1.6612 -0.6208 -1.7713
 2500TIP3   OH2 7505   5.590   1.524   4.631  0.2762 -0.5727 -0.3414
 2500TIP3    H1 7506   5.595   1.575   4.712  0.6351  0.4294 -0.9695
 2500TIP3    H2 7507   5.497   1.509   4.618  0.1523  0.0961 -0.2499
 2501TIP3   OH2 7508   0.869   3.501   0.010 -0.7964  0.2686  0.1168
 2501TIP3    H1 7509   0.862   3.406   0.022 -0.0229  0.1793 -0.0917
 2501TIP3    H2 7510   0.950   3.525   0.055 -1.2606  0.9200  0.6290
 2502TIP3   OH2 7511   5.909   0.796   0.266  0.4841  0.3846  0.0303
 2502TIP3    H1 7512   5.836   0.858   0.265  0.2488  0.1040 -1.1718
 2502TIP3    H2 7513   5.867   0.710   0.259  0.8223  0.0843  1.4183
 2503TIP3   OH2 7514   3.996   3.373   3.302  0.2507 -0.2417  0.3022
 2503TIP3    H1 7515   3.913   3.342   3.336  0.9140 -1.0989  1.2072
 2503TIP3    H2 7516   4.038   3.295   3.266  0.6908  0.1679 -0.0907
 2504TIP3   OH2 7517   3.679   5.426   1.723 -0.2185 -0.4342  0.1405
 2504TIP3    H1 7518   3.625   5.405   1.799  0.8074 -0.0236  1.0056
 2504TIP3    H2 7519   3.759   5.462   1.760 -0.8395  2.5761 -1.2027
 2505TIP3   OH2 7520   2.745   5.665   3.362 -0.6217  0.9309  0.5691
 2505TIP3    H1 7521   2.731   5.759   3.351 -1.2057  0.7350 -0.5470
 2505TIP3    H2 7522   2.801   5.640   3.288 -0.4292  0.4104  0.8848
 2506TIP3   OH2 7523   3.204   3.259   3.334 -0.0065 -0.3047 -0.1752
 2506TIP3    H1 7524   3.183   3.322   3.265 -0.7674 -0.6386 -0.2610
 2506TIP3    H2 7525   3.119   3.233   3.370  0.4163  0.7561  1.7210
 2507TIP3   OH2 7526   3.257   4.299   2.523 -0.4122  0.1203 -0.0112
 2507TIP3    H1 7527   3.163   4.312   2.534 -0.2572 -0.2871  2.4779
 2507TIP3    H2 7528   3.297   4.372   2.570  0.4945 -0.5554  0.2996
 2508TIP3   OH2 7529   2.960   0.300   4.613 -0.4447  0.3518 -0.3762
 2508TIP3    H1 7530   2.999   0.384   4.636  1.3261  0.1373 -2.2915
 2508TIP3    H2 7531   2.906   0.319   4.536  0.2899 -0.3258 -1.0680
 2509TIP3   OH2 7532   4.475   1.806   1.665 -0.2246  0.1987  0.1645
 2509TIP3    H1 7533   4.420   1.728   1.671  0.9238 -0.6394  0.1945
 2509TIP3    H2 7534   4.435   1.859   1.595 -0.9279 -0.4923  0.0339
 2510TIP3   OH2 7535   1.814   3.703   1.473  0.2389 -0.2625 -0.4584
 2510TIP3    H1 7536   1.735   3.682   1.424 -0.5177  2.1350 -0.4015
 2510TIP3    H2 7537   1.782   3.731   1.559  1.2458 -0.4360 -0.0123
 2511TIP3   OH2 7538   5.259   1.708   1.923 -0.5124 -0.1710 -0.2874
 2511TIP3    H1 7539   5.185   1.768   1.933  0.5916  1.2009  0.0382
 2511TIP3    H2 7540   5.254   1.651   2.000 -0.1424  1.1947  0.8072
 2512TIP3   OH2 7541   3.373   3.364   2.749  0.5420  0.1436 -0.1995
 2512TIP3    H1 7542   3.453   3.398   2.789 -0.4777  1.4599  0.8304
 2512TIP3    H2 7543   3.325   3.325   2.822 -0.0880  0.0293 -0.6642
 2513TIP3   OH2 7544   0.822   5.262   2.096  0.6849  0.0965  0.1736
 2513TIP3    H1 7545   0.805   5.214   2.015  0.2283  0.9628 -0.2631
 2513TIP3    H2 7546   0.794   5.203   2.165 -0.3914 -0.0570 -0.3730
 2514TIP3   OH2 7547   4.520   2.514   0.838 -0.1651 -0.0211 -0.3599
 2514TIP3    H1 7548   4.437   2.538   0.796  0.4682  0.9734 -1.0624
 2514TIP3    H2 7549   4.522   2.566   0.918 -0.3473 -0.2676 -0.1924
 2515TIP3   OH2 7550   3.481   0.594   2.562  0.7092  0.3972 -0.0776
 2515TIP3    H1 7551   3.573   0.574   2.543  0.6436  0.0708 -0.0458
 2515TIP3    H2 7552   3.434   0.565   2.484  0.5582 -0.0117  0.1639
 2516TIP3   OH2 7553   2.677   5.149   1.321  0.1483 -0.4245  0.2575
 2516TIP3    H1 7554   2.691   5.114   1.409  0.8280 -0.7658  0.0143
 2516TIP3    H2 7555   2.628   5.080   1.276 -1.9198  0.5263  0.9283
 2517TIP3   OH2 7556   5.094   2.832   2.844  0.7620  0.0957 -0.1176
 2517TIP3    H1 7557   5.171   2.886   2.862  0.5178  0.2615  0.4619
 2517TIP3    H2 7558   5.078   2.842   2.750 -0.0119  2.0191  0.1717
 2518TIP3   OH2 7559   5.044   1.878   0.393  0.2521 -0.0757  0.2608
 2518TIP3    H1 7560   5.126   1.913   0.428  2.0734 -1.5494 -2.1505
 2518TIP3    H2 7561   5.004   1.951   0.346  1.4465  0.1010 -0.5158
 2519TIP3   OH2 7562   5.933   5.361   3.436 -0.0034 -0.6840  0.6598
 2519TIP3    H1 7563   6.017   5.397   3.407 -1.3638  0.6572 -2.0776
 2519TIP3    H2 7564   5.942   5.266   3.421  0.1446 -0.2965 -2.5542
 2520TIP3   OH2 7565   5.149   4.392   2.666  0.2789 -0.0643  0.1687
 2520TIP3    H1 7566   5.120   4.382   2.757  2.2177  0.9131  0.9605
 2520TIP3    H2 7567   5.199   4.313   2.648  0.6306  0.1368  0.2595
 2521TIP3   OH2 7568   6.180   0.934   1.914  0.6356  0.3496  0.1450
 2521TIP3    H1 7569   6.235   1.011   1.917  0.9208  0.1272  0.7687
 2521TIP3    H2 7570   6.136   0.932   1.999  0.0027  0.2800 -0.1771
 2522TIP3   OH2 7571   0.469   3.305   0.437 -0.0204 -0.4404  0.1136
 2522TIP3    H1 7572   0.441   3.397   0.431  1.2349 -0.0775 -0.3795
 2522TIP3    H2 7573   0.390   3.255   0.418 -0.3353  0.5604 -1.3526
 2523TIP3   OH2 7574   5.130   3.111   2.234 -0.0053 -0.0875 -0.1532
 2523TIP3    H1 7575   5.197   3.169   2.271 -0.2264 -0.2784  0.5665
 2523TIP3    H2 7576   5.180   3.033   2.206  0.1325 -0.0471 -0.0230
 2524TIP3   OH2 7577   1.470   5.251   3.345  0.6283 -0.2488 -0.1310
 2524TIP3    H1 7578   1.526   5.325   3.367  1.2141 -0.7774  0.1804
 2524TIP3    H2 7579   1.511   5.213   3.267  0.8074 -0.7459  0.2059
 2525TIP3   OH2 7580   0.375   0.129   4.940  0.4401 -0.0257  0.1085
 2525TIP3    H1 7581   0.282   0.128   4.919  0.8938 -0.6124 -2.1533
 2525TIP3    H2 7582   0.401   0.037   4.946  1.1197  0.0976 -0.6578
 2526TIP3   OH2 7583   1.632   5.599   1.744 -0.6460 -0.0693  0.2288
 2526TIP3    H1 7584   1.602   5.682   1.709 -2.3751 -0.9632 -0.5504
 2526TIP3    H2 7585   1.715   5.582   1.700 -2.0519 -0.4817 -2.5005
 2527TIP3   OH2 7586   0.863   4.493   4.708  0.3763 -0.2267  0.1517
 2527TIP3    H1 7587   0.928   4.501   4.638 -0.7497  0.8741 -0.8123
 2527TIP3    H2 7588   0.850   4.399   4.718  2.5274 -0.5069  0.7892
 2528TIP3   OH2 7589   4.676   4.243   2.971  0.3866  0.7532 -0.3335
 2528TIP3    H1 7590   4.696   4.285   2.888 -0.4081  1.3755 -0.2197
 2528TIP3    H2 7591   4.633   4.161   2.947  1.1323  0.4163 -0.5414
 2529TIP3   OH2 7592   1.623   4.141   3.532  0.5334  0.1810 -0.7428
 2529TIP3    H1 7593   1.662   4.225   3.509  0.5571  0.2155 -0.5778
 2529TIP3    H2 7594   1.655   4.123   3.621  0.0599  0.2796 -0.5499
 2530TIP3   OH2 7595   3.545   5.578   1.268 -0.0987  0.3957  0.3568
 2530TIP3    H1 7596   3.523   5.582   1.175 -1.6112  0.0923  0.6749
 2530TIP3    H2 7597   3.539   5.485   1.290 -0.1005  0.5059  0.8292
 2531TIP3   OH2 7598   3.423   0.082   1.349 -0.6204 -0.3101 -0.5483
 2531TIP3    H1 7599   3.509   0.066   1.311 -0.2180 -1.4470  0.7504
 2531TIP3    H2 7600   3.437   0.153   1.412 -0.3991 -1.1020  0.3258
 2532TIP3   OH2 7601   3.634   1.198   1.574 -0.9515  0.3745 -0.1874
 2532TIP3    H1 7602   3.697   1.255   1.530  0.2714 -0.6186  0.2611
 2532TIP3    H2 7603   3.621   1.238   1.660  1.0384 -0.7623  0.7023
 2533TIP3   OH2 7604   2.980   2.432   2.363 -0.6695  0.2710 -0.0861
 2533TIP3    H1 7605   3.019   2.496   2.422 -0.3700 -1.4767  1.7073
 2533TIP3    H2 7606   3.052   2.374   2.339 -1.3810 -0.7495  0.1969
 2534TIP3   OH2 7607   4.257   2.602   0.350  0.1309 -0.0952 -0.4695
 2534TIP3    H1 7608   4.236   2.534   0.287 -0.5288  0.2119 -0.5998
 2534TIP3    H2 7609   4.186   2.666   0.340  0.2353  0.1540  0.2941
 2535TIP3   OH2 7610   5.609   2.836   3.558  0.2175  0.1025 -0.0111
 2535TIP3    H1 7611   5.641   2.921   3.588 -0.7588  1.1677 -1.8119
 2535TIP3    H2 7612   5.689   2.784   3.544  0.8322  0.7453  0.9571
 2536TIP3   OH2 7613   1.431   5.847   0.265  0.1734  0.9570  0.2206
 2536TIP3    H1 7614   1.490   5.798   0.208  0.4860  1.5366  0.0425
 2536TIP3    H2 7615   1.468   5.838   0.353  0.0310  0.5841  0.2473
 2537TIP3   OH2 7616   0.871   1.214   2.644  0.0337 -0.2439 -0.1942
 2537TIP3    H1 7617   0.857   1.308   2.653 -0.9444 -0.4170  0.1275
 2537TIP3    H2 7618   0.803   1.173   2.697  1.3331 -1.1269  0.8576
 2538TIP3   OH2 7619   4.244   5.829   4.249  0.0088 -0.1501  0.8420
 2538TIP3    H1 7620   4.298   5.896   4.207 -0.0968  1.3301  2.9334
 2538TIP3    H2 7621   4.195   5.876   4.316 -2.6038 -1.7535  0.2053
 2539TIP3   OH2 7622   6.086   0.571   0.860 -0.0042 -0.1099  0.2447
 2539TIP3    H1 7623   6.022   0.630   0.900 -0.5772 -1.8838  2.1578
 2539TIP3    H2 7624   6.149   0.553   0.930  0.3423 -1.4708 -0.3801
 2540TIP3   OH2 7625   1.610   2.894   5.110  0.1369  0.6429  0.3881
 2540TIP3    H1 7626   1.626   2.987   5.093 -2.0154  0.9523 -0.2063
 2540TIP3    H2 7627   1.618   2.852   5.024 -1.8170  0.7896  0.0896
 2541TIP3   OH2 7628   2.652   2.151   0.928 -0.0384  0.5387 -0.0871
 2541TIP3    H1 7629   2.729   2.170   0.982  0.3674 -0.6283 -0.2201
 2541TIP3    H2 7630   2.685   2.149   0.839  0.6701 -3.7200  0.0924
 2542TIP3   OH2 7631   0.447   3.235   1.214 -0.8221 -0.0493 -0.1297
 2542TIP3    H1 7632   0.460   3.329   1.200 -0.1830  0.0496  0.9406
 2542TIP3    H2 7633   0.442   3.198   1.126  1.7978  0.6260 -0.6608
 2543TIP3   OH2 7634   2.474   2.849   2.743 -0.0893  0.3471  0.1937
 2543TIP3    H1 7635   2.431   2.825   2.825 -0.9855 -0.3734 -0.4705
 2543TIP3    H2 7636   2.414   2.820   2.675  1.2856 -0.3730 -0.7680
 2544TIP3   OH2 7637   5.408   4.120   2.838 -0.1346 -0.4145 -0.6078
 2544TIP3    H1 7638   5.396   4.107   2.932 -0.1846 -2.5481 -0.8518
 2544TIP3    H2 7639   5.503   4.122   2.826 -0.1173 -0.8944 -0.5799
 2545TIP3   OH2 7640   0.601   0.633   2.644 -0.1470  0.0341 -0.2373
 2545TIP3    H1 7641   0.558   0.650   2.561 -1.8481 -0.3095  0.5290
 2545TIP3    H2 7642   0.564   0.698   2.704  0.2913 -0.3866  0.5020
 2546TIP3   OH2 7643   5.178   0.825   4.471  0.3102  0.0292 -0.1835
 2546TIP3    H1 7644   5.117   0.758   4.440 -0.6074  1.5578 -1.8391
 2546TIP3    H2 7645   5.192   0.804   4.563  0.7223 -2.9137 -0.8133
 2547TIP3   OH2 7646   0.924   0.494   2.190 -0.1345 -0.0215 -0.0278
 2547TIP3    H1 7647   0.935   0.399   2.191 -1.0658 -0.1402  1.2193
 2547TIP3    H2 7648   0.864   0.511   2.117  0.5963 -0.2988 -0.7079
 2548TIP3   OH2 7649   0.406   3.910   2.623  0.4369  0.0154 -0.4886
 2548TIP3    H1 7650   0.494   3.911   2.584 -0.3450  1.0625 -2.3938
 2548TIP3    H2 7651   0.352   3.865   2.558 -0.5750  0.0364  0.3127
 2549TIP3   OH2 7652   5.705   2.564   3.926  0.0360 -0.0413 -0.2356
 2549TIP3    H1 7653   5.772   2.632   3.928  0.7713 -0.7548  0.2714
 2549TIP3    H2 7654   5.732   2.502   3.994 -1.7630  0.2177  0.8026
 2550TIP3   OH2 7655   5.347   0.784   3.507  0.6670  0.4140  0.5845
 2550TIP3    H1 7656   5.370   0.699   3.470  1.1400  0.3058  1.1098
 2550TIP3    H2 7657   5.384   0.847   3.445  0.4141  0.2370  0.2533
 2551TIP3   OH2 7658   5.379   5.463   2.754  0.0745 -0.9051 -0.3837
 2551TIP3    H1 7659   5.286   5.459   2.731 -0.5842 -1.4699  2.0270
 2551TIP3    H2 7660   5.392   5.554   2.781 -0.4112 -1.3088  1.3666
 2552TIP3   OH2 7661   2.392   3.059   1.485 -0.2284  0.3564 -0.6127
 2552TIP3    H1 7662   2.340   3.054   1.565  0.7372  2.0984  0.1669
 2552TIP3    H2 7663   2.351   3.128   1.433 -1.2123 -1.1512 -1.9700
 2553TIP3   OH2 7664   4.603   1.652   2.077 -0.0549 -0.4440  0.1628
 2553TIP3    H1 7665   4.568   1.678   2.162  0.3623  0.4924  0.0646
 2553TIP3    H2 7666   4.649   1.731   2.045 -3.3151  0.5518 -2.6311
 2554TIP3   OH2 7667   6.056   1.979   4.369  0.0707 -0.1071  0.0911
 2554TIP3    H1 7668   6.045   1.894   4.411 -0.3047  0.1445  0.5080
 2554TIP3    H2 7669   6.024   1.966   4.280  0.5801 -0.5609 -0.0265
 2555TIP3   OH2 7670   5.819   5.358   1.055 -0.4630  0.2459  0.2641
 2555TIP3    H1 7671   5.786   5.273   1.085 -0.1092 -1.1689 -2.9318
 2555TIP3    H2 7672   5.914   5.351   1.062 -0.4612  0.8749  1.0728
 2556TIP3   OH2 7673   3.066   1.413   2.609  0.1741 -0.0154 -0.4650
 2556TIP3    H1 7674   3.142   1.375   2.564  0.6479 -0.9348  1.0550
 2556TIP3    H2 7675   3.009   1.338   2.626  0.2574  0.2290  0.9234
 2557TIP3   OH2 7676   0.850   3.211   3.054  0.2066 -0.1844 -0.1013
 2557TIP3    H1 7677   0.774   3.201   3.111  0.6208 -0.8950  0.3433
 2557TIP3    H2 7678   0.924   3.225   3.114  0.3181  1.3910 -0.5519
 2558TIP3   OH2 7679   5.546   5.457   2.494 -0.6227  0.7286 -0.3112
 2558TIP3    H1 7680   5.493   5.424   2.567 -0.4565 -0.1789 -0.5897
 2558TIP3    H2 7681   5.587   5.537   2.529  0.9778 -0.7043  1.2779
 2559TIP3   OH2 7682   1.921   5.653   5.095 -0.3710 -0.4314  0.6183
 2559TIP3    H1 7683   1.989   5.590   5.118  0.5613  0.0898 -0.6302
 2559TIP3    H2 7684   1.962   5.738   5.108 -0.6768 -0.1150 -0.3970
 2560TIP3   OH2 7685   2.128   4.091   2.979  0.1507 -0.1855  0.5984
 2560TIP3    H1 7686   2.188   4.034   3.025 -0.1488  1.1080  2.7103
 2560TIP3    H2 7687   2.041   4.068   3.013  0.0352  1.5283  1.5908
 2561TIP3   OH2 7688   2.228   5.484   3.061  0.2240  0.3104  0.4972
 2561TIP3    H1 7689   2.216   5.457   2.970 -0.5086 -0.0339  0.6935
 2561TIP3    H2 7690   2.160   5.550   3.076  0.5764  0.6342  0.6908
 2562TIP3   OH2 7691   5.062   3.591   0.405 -0.2638  0.2693 -0.4351
 2562TIP3    H1 7692   5.007   3.574   0.328  0.3687 -2.8743 -0.3431
 2562TIP3    H2 7693   5.001   3.622   0.472 -0.9453  2.3276 -1.9090
 2563TIP3   OH2 7694   1.587   1.174   1.318 -0.3179  0.2102 -0.1238
 2563TIP3    H1 7695   1.504   1.218   1.338  0.0889  1.2457 -0.6481
 2563TIP3    H2 7696   1.600   1.191   1.224  0.1857 -0.4695 -0.1813
 2564TIP3   OH2 7697   4.933   4.863   1.716 -0.2001  0.0395 -0.3086
 2564TIP3    H1 7698   4.967   4.952   1.707 -1.7922  0.6834 -0.3571
 2564TIP3    H2 7699   4.903   4.858   1.807 -0.4353 -0.3202 -0.4035
 2565TIP3   OH2 7700   1.503   5.837   5.155 -0.1740 -0.0183 -0.3125
 2565TIP3    H1 7701   1.447   5.883   5.217 -1.1327 -1.2911 -0.1885
 2565TIP3    H2 7702   1.510   5.897   5.081 -2.1187  0.0242 -0.5318
 2566TIP3   OH2 7703   4.139   1.436   3.684 -0.0329 -0.0215  0.3915
 2566TIP3    H1 7704   4.089   1.394   3.613 -0.2194  0.0612  0.4723
 2566TIP3    H2 7705   4.215   1.379   3.697 -1.6096 -1.8651  2.3166
 2567TIP3   OH2 7706   5.790   0.425   4.242 -0.4276  0.0536  0.3597
 2567TIP3    H1 7707   5.873   0.460   4.208 -1.0945  0.2804 -1.1075
 2567TIP3    H2 7708   5.786   0.459   4.331  0.8710  0.3745  0.3281
 2568TIP3   OH2 7709   1.332   5.102   1.505  0.1883  0.5639  0.3144
 2568TIP3    H1 7710   1.375   5.188   1.512  0.8188  0.2688  0.1734
 2568TIP3    H2 7711   1.313   5.078   1.596  0.2738  0.7223  0.3752
 2569TIP3   OH2 7712   3.424   3.258   0.680  0.0419  0.2299 -0.2282
 2569TIP3    H1 7713   3.392   3.340   0.643  0.8661  0.8072  0.2953
 2569TIP3    H2 7714   3.345   3.206   0.695 -0.3339 -0.0784 -2.8208
 2570TIP3   OH2 7715   0.259   1.472   2.604  0.3046 -0.3544  0.2020
 2570TIP3    H1 7716   0.263   1.493   2.511  1.0105 -1.5755 -0.0603
 2570TIP3    H2 7717   0.336   1.417   2.621  0.2624 -0.0482  1.5349
 2571TIP3   OH2 7718   5.013   5.070   2.544 -0.3930 -0.8102 -0.3983
 2571TIP3    H1 7719   5.043   5.149   2.499  0.9385 -1.7075 -1.1594
 2571TIP3    H2 7720   4.922   5.089   2.568 -0.7681  0.1629 -2.4003
 2572TIP3   OH2 7721   5.174   5.489   0.740  0.4189 -0.0499  0.1065
 2572TIP3    H1 7722   5.196   5.576   0.773 -0.1162  0.2516 -0.3019
 2572TIP3    H2 7723   5.173   5.499   0.645 -0.5144 -0.2725  0.0794
 2573TIP3   OH2 7724   0.899   1.798   3.414  0.2541 -0.0426  0.2536
 2573TIP3    H1 7725   0.930   1.710   3.393 -0.7372 -0.2827 -0.2823
 2573TIP3    H2 7726   0.920   1.851   3.336 -1.0501 -0.3149 -0.3053
 2574TIP3   OH2 7727   2.617   1.986   1.373  0.2326 -0.2197 -0.1181
 2574TIP3    H1 7728   2.703   2.013   1.405  0.1644  0.0907 -0.1889
 2574TIP3    H2 7729   2.636   1.930   1.297  0.3651  0.5035 -0.6326
 2575TIP3   OH2 7730   0.888   3.194   0.144  0.2776 -0.1506 -0.2551
 2575TIP3    H1 7731   0.817   3.216   0.203 -1.1437 -1.6579 -1.3124
 2575TIP3    H2 7732   0.847   3.140   0.076  1.8736  1.2713 -2.4792
 2576TIP3   OH2 7733   0.740   3.747   0.089 -0.4757 -0.1802 -0.2170
 2576TIP3    H1 7734   0.760   3.672   0.034 -0.0529  0.3563 -0.8219
 2576TIP3    H2 7735   0.726   3.711   0.177  2.7262 -0.6924  0.1828
 2577TIP3   OH2 7736   4.928   0.947   0.682  0.0677  0.0994  0.4127
 2577TIP3    H1 7737   4.964   0.879   0.625 -0.5626 -0.3537  0.5525
 2577TIP3    H2 7738   4.996   0.962   0.748 -0.0032 -0.7593  0.6830
 2578TIP3   OH2 7739   5.267   2.411   1.473  0.2509 -0.4769 -0.2656
 2578TIP3    H1 7740   5.212   2.403   1.395  0.5813 -0.0442 -0.5472
 2578TIP3    H2 7741   5.331   2.479   1.450  1.2069 -1.3029 -0.1357
 2579TIP3   OH2 7742   0.723   5.679   5.021  0.1971 -0.3019 -0.0108
 2579TIP3    H1 7743   0.631   5.657   5.013  0.5623 -2.0162  0.2850
 2579TIP3    H2 7744   0.755   5.682   4.930  0.9078 -4.6775 -0.0997
 2580TIP3   OH2 7745   4.644   3.087   0.815 -0.3443 -0.3728 -0.2844
 2580TIP3    H1 7746   4.618   3.144   0.742  2.5449  2.5170  0.7103
 2580TIP3    H2 7747   4.624   2.999   0.784 -1.8619  0.8756 -3.3845
 2581TIP3   OH2 7748   5.045   3.518   2.176 -0.3180 -0.0890 -0.1925
 2581TIP3    H1 7749   5.074   3.578   2.108 -2.4195  0.1779 -0.9425
 2581TIP3    H2 7750   5.099   3.539   2.252 -0.3690  2.1315 -0.7036
 2582TIP3   OH2 7751   1.657   2.405   1.248 -0.0479 -0.0508 -0.1447
 2582TIP3    H1 7752   1.634   2.433   1.159 -0.0229  0.8317  0.1171
 2582TIP3    H2 7753   1.747   2.434   1.259 -0.0800 -0.0797  0.2004
 2583TIP3   OH2 7754   2.121   1.275   0.193  0.3391  0.2841 -0.1326
 2583TIP3    H1 7755   2.195   1.243   0.142  2.7688  4.0817  0.6218
 2583TIP3    H2 7756   2.058   1.305   0.128  0.8360 -0.1244 -0.8125
 2584TIP3   OH2 7757   4.985   4.236   3.570 -0.9786 -0.6310 -0.3239
 2584TIP3    H1 7758   5.071   4.278   3.575 -1.6540  0.7619 -0.1822
 2584TIP3    H2 7759   5.004   4.147   3.539  0.4612 -0.1708 -0.8249
 2585TIP3   OH2 7760   0.443   2.510   3.187 -0.4211  0.5020 -0.3078
 2585TIP3    H1 7761   0.455   2.430   3.135 -0.2461  1.6151 -2.0912
 2585TIP3    H2 7762   0.406   2.573   3.124  1.0178  2.3105  0.5834
 2586TIP3   OH2 7763   5.664   2.133   2.707  0.2517 -0.3071  0.1275
 2586TIP3    H1 7764   5.731   2.135   2.775  0.6984  0.4293 -0.3325
 2586TIP3    H2 7765   5.707   2.093   2.631 -0.3839 -1.5855  0.4004
 2587TIP3   OH2 7766   4.417   3.192   3.306 -0.2456 -0.0009 -0.1931
 2587TIP3    H1 7767   4.483   3.195   3.237 -0.9683  0.6348 -0.8840
 2587TIP3    H2 7768   4.357   3.122   3.280 -0.5334  0.2562 -0.2302
 2588TIP3   OH2 7769   5.077   3.755   1.140 -0.3718 -0.0421  0.2086
 2588TIP3    H1 7770   5.072   3.697   1.215  0.3596 -0.6623 -0.2134
 2588TIP3    H2 7771   5.075   3.697   1.064  3.4215  0.1453 -0.2281
 2589TIP3   OH2 7772   3.920   4.402   0.845  0.2230  0.1951  0.6295
 2589TIP3    H1 7773   3.878   4.325   0.885  1.0645  0.3921  1.9474
 2589TIP3    H2 7774   3.849   4.466   0.836 -0.8585 -1.1827 -1.9009
 2590TIP3   OH2 7775   5.580   0.832   4.298 -1.1309 -0.7222  0.2571
 2590TIP3    H1 7776   5.489   0.801   4.293 -1.4362  0.3946 -1.8596
 2590TIP3    H2 7777   5.601   0.861   4.210  1.6466 -1.8301  0.4505
 2591TIP3   OH2 7778   0.493   4.333   1.000 -0.0239  0.3355 -0.2111
 2591TIP3    H1 7779   0.454   4.264   0.946  0.3854  0.2679 -0.4249
 2591TIP3    H2 7780   0.566   4.290   1.044 -0.0128  0.5336 -0.0351
 2592TIP3   OH2 7781   2.193   2.298   2.778  0.0881  0.2473 -0.0354
 2592TIP3    H1 7782   2.228   2.342   2.856  2.4186 -2.0691  0.3607
 2592TIP3    H2 7783   2.269   2.256   2.738 -1.6065 -1.4852 -1.6295
 2593TIP3   OH2 7784   3.177   1.430   3.458  0.5195 -0.4006  0.4809
 2593TIP3    H1 7785   3.209   1.344   3.431  0.2230 -0.5876  0.7181
 2593TIP3    H2 7786   3.197   1.435   3.551  0.4146 -0.2685  0.4959
 2594TIP3   OH2 7787   2.314   4.170   4.367 -0.6502  0.0357 -0.0436
 2594TIP3    H1 7788   2.283   4.150   4.278 -0.7928 -0.1800  0.0557
 2594TIP3    H2 7789   2.263   4.113   4.424  0.0278 -0.4191  0.1143
 2595TIP3   OH2 7790   2.042   2.171   1.068 -0.0264  0.0870 -0.3135
 2595TIP3    H1 7791   2.110   2.108   1.091 -0.7598 -0.0491  1.7599
 2595TIP3    H2 7792   1.987   2.125   1.005  0.4811 -0.6667 -0.2214
 2596TIP3   OH2 7793   1.947   0.804   2.123  0.4109  0.6586  0.4291
 2596TIP3    H1 7794   1.966   0.820   2.031 -0.8639  0.1633  0.0645
 2596TIP3    H2 7795   2.033   0.798   2.164  1.0285 -0.2340 -0.9296
 2597TIP3   OH2 7796   2.270   3.821   2.816 -0.3411 -0.0625 -0.2257
 2597TIP3    H1 7797   2.189   3.864   2.843  0.7776  1.4410  0.9759
 2597TIP3    H2 7798   2.319   3.890   2.770  1.0484 -0.3275  0.7941
 2598TIP3   OH2 7799   6.269   3.165   4.196  0.3375  0.7307 -0.2532
 2598TIP3    H1 7800   6.258   3.147   4.103  0.7871  2.5248 -0.6801
 2598TIP3    H2 7801   6.319   3.090   4.229  0.4071  0.2123 -1.5008
 2599TIP3   OH2 7802   0.244   5.587   1.262  0.0495  0.0943  0.0885
 2599TIP3    H1 7803   0.264   5.678   1.285 -0.9750  0.8807 -1.8567
 2599TIP3    H2 7804   0.330   5.547   1.245  0.4210  1.2660 -0.9170
 2600TIP3   OH2 7805   3.258   4.099   1.860 -0.5351 -0.2116 -0.2045
 2600TIP3    H1 7806   3.304   4.157   1.799 -0.0957 -0.8119 -0.4482
 2600TIP3    H2 7807   3.177   4.077   1.815 -0.8376  0.4358  0.0091
 2601TIP3   OH2 7808   4.196   3.114   0.669 -0.4949  0.0414  0.1032
 2601TIP3    H1 7809   4.282   3.142   0.699 -0.2160 -0.2057 -0.4356
 2601TIP3    H2 7810   4.148   3.091   0.749 -0.2921  0.8141  0.4488
 2602TIP3   OH2 7811   5.883   2.485   4.886  0.9048 -0.0376 -0.2155
 2602TIP3    H1 7812   5.883   2.417   4.818 -0.1011 -1.0167  0.7387
 2602TIP3    H2 7813   5.893   2.567   4.837 -1.3846 -0.5699 -1.7180
 2603TIP3   OH2 7814   5.883   1.468   1.752  0.1834  0.1856  0.0090
 2603TIP3    H1 7815   5.929   1.397   1.795 -2.3138 -1.3366  0.3700
 2603TIP3    H2 7816   5.837   1.513   1.823 -1.6950 -0.5957 -0.6455
 2604TIP3   OH2 7817   4.768   2.732   0.963 -0.4392 -0.0216 -0.6388
 2604TIP3    H1 7818   4.839   2.687   0.918  0.5922 -1.2576  2.0315
 2604TIP3    H2 7819   4.811   2.791   1.024 -1.6242 -1.1017  1.3481
 2605TIP3   OH2 7820   5.449   5.490   2.227 -0.2793  0.3995 -0.2906
 2605TIP3    H1 7821   5.529   5.539   2.207  1.0740 -1.9185 -0.9631
 2605TIP3    H2 7822   5.451   5.481   2.323 -0.6555  1.7522 -0.1324
 2606TIP3   OH2 7823   1.310   2.999   0.245 -0.4876  0.5244  0.1771
 2606TIP3    H1 7824   1.283   3.073   0.298 -2.0159  0.4923 -0.5100
 2606TIP3    H2 7825   1.285   2.922   0.297  1.6172  0.4329  1.1519
 2607TIP3   OH2 7826   3.979   5.946   0.134  0.4232  0.1772 -0.1390
 2607TIP3    H1 7827   3.984   5.989   0.049  0.4878 -0.4488 -0.4565
 2607TIP3    H2 7828   3.988   6.017   0.198 -2.6058  1.0875 -0.5726
 2608TIP3   OH2 7829   0.962   0.654   4.369 -0.3526 -0.2256  0.2065
 2608TIP3    H1 7830   0.870   0.668   4.348 -0.5813  1.0961  1.7854
 2608TIP3    H2 7831   1.010   0.688   4.294 -1.1479  0.0694 -0.1754
 2609TIP3   OH2 7832   4.288   2.364   4.899 -0.0311 -0.0038 -0.0731
 2609TIP3    H1 7833   4.269   2.317   4.817  1.2799 -0.2945 -0.2286
 2609TIP3    H2 7834   4.375   2.401   4.886 -0.8241  2.1179  0.2342
 2610TIP3   OH2 7835   0.714   4.762   1.089 -0.1264 -0.0943  0.1636
 2610TIP3    H1 7836   0.664   4.714   1.024  2.4568 -1.4578 -0.9377
 2610TIP3    H2 7837   0.696   4.717   1.172 -1.9206  0.4771  0.1335
 2611TIP3   OH2 7838   0.232   3.175   3.285 -0.1593  0.1710 -0.3088
 2611TIP3    H1 7839   0.139   3.191   3.269 -0.2854  1.1394  1.2591
 2611TIP3    H2 7840   0.277   3.254   3.253  0.1663 -0.3400 -1.1694
 2612TIP3   OH2 7841   4.947   4.921   5.038 -0.4451 -0.3439 -0.3586
 2612TIP3    H1 7842   4.899   4.995   5.000 -0.4172 -1.8234 -3.6068
 2612TIP3    H2 7843   5.039   4.940   5.020 -0.4981 -1.5276 -2.0838
 2613TIP3   OH2 7844   6.294   3.421   3.923  0.5919  0.6279  0.0942
 2613TIP3    H1 7845   6.236   3.497   3.928  0.7902  0.7871  0.0436
 2613TIP3    H2 7846   6.366   3.443   3.983  0.0433 -0.0610  1.0228
 2614TIP3   OH2 7847   3.922   1.333   4.267 -0.0811  0.1079  0.4689
 2614TIP3    H1 7848   4.012   1.324   4.235 -0.3936 -0.5583 -0.2548
 2614TIP3    H2 7849   3.931   1.339   4.362  0.9405  2.9613  0.2963
 2615TIP3   OH2 7850   4.963   3.452   2.840  0.0031 -0.8233  0.5792
 2615TIP3    H1 7851   4.970   3.418   2.929  1.0760 -1.1817  0.3637
 2615TIP3    H2 7852   5.022   3.527   2.838 -2.0148  0.8956  0.9289
 2616TIP3   OH2 7853   1.563   5.691   0.054  0.4404 -0.2445 -0.8144
 2616TIP3    H1 7854   1.503   5.616   0.054 -0.0116  0.0459  1.5358
 2616TIP3    H2 7855   1.641   5.659   0.007  0.4662 -2.3850  0.5533
 2617TIP3   OH2 7856   4.416   4.240   3.670 -0.2707  0.0055  0.1560
 2617TIP3    H1 7857   4.489   4.179   3.683 -0.2624  0.0185  0.1680
 2617TIP3    H2 7858   4.377   4.213   3.587 -0.0221  0.2350 -0.0367
 2618TIP3   OH2 7859   5.234   4.369   1.802 -0.5103 -0.2319 -0.2207
 2618TIP3    H1 7860   5.233   4.399   1.711  1.6840  3.3033  0.6988
 2618TIP3    H2 7861   5.156   4.408   1.841 -0.5246 -0.2864 -0.1944
 2619TIP3   OH2 7862   4.071   1.591   1.223  0.4437  0.3090  0.0207
 2619TIP3    H1 7863   4.070   1.507   1.270 -0.2399  0.6090  0.5627
 2619TIP3    H2 7864   4.135   1.644   1.271 -1.1795  1.0654  1.4843
 2620TIP3   OH2 7865   4.895   3.915   0.345 -0.8088  0.2384  0.3257
 2620TIP3    H1 7866   4.840   3.971   0.400  0.3235 -0.2925  2.0960
 2620TIP3    H2 7867   4.883   3.828   0.382 -0.5497 -0.2644 -0.7516
 2621TIP3   OH2 7868   2.237   5.024   0.058 -0.1290  0.5398  0.3480
 2621TIP3    H1 7869   2.318   5.063   0.091 -0.0814  0.5508  0.2195
 2621TIP3    H2 7870   2.209   4.965   0.127  0.3204  0.0651  0.1341
 2622TIP3   OH2 7871   3.234   3.146   1.987  0.6204 -0.1898 -0.3434
 2622TIP3    H1 7872   3.154   3.099   1.964  0.5226  0.1722 -0.7647
 2622TIP3    H2 7873   3.204   3.223   2.035  0.8355 -1.0396  1.1964
 2623TIP3   OH2 7874   1.331   3.120   4.488  0.6882 -0.1407  0.5079
 2623TIP3    H1 7875   1.305   3.035   4.452 -0.6465 -0.0211  1.1202
 2623TIP3    H2 7876   1.262   3.141   4.552  0.5346  1.7871 -0.2288
 2624TIP3   OH2 7877   3.265   2.083   2.675 -0.1741  0.3836  0.1135
 2624TIP3    H1 7878   3.180   2.040   2.680 -0.1738  0.4711  1.1339
 2624TIP3    H2 7879   3.282   2.092   2.582 -0.6361 -0.9261 -0.1245
 2625TIP3   OH2 7880   6.157   1.535   4.531  0.0572  0.0918 -0.1021
 2625TIP3    H1 7881   6.112   1.505   4.452  1.5969 -1.1171 -0.5913
 2625TIP3    H2 7882   6.151   1.461   4.591 -2.0768  1.4011  1.4177
 2626TIP3   OH2 7883   1.888   5.811   3.686 -0.3146  0.0913  0.5926
 2626TIP3    H1 7884   1.929   5.891   3.720 -0.7997  0.4235  0.4033
 2626TIP3    H2 7885   1.802   5.839   3.655 -0.6666 -0.5830  0.9179
 2627TIP3   OH2 7886   4.155   1.512   2.991 -0.4876  0.4068 -0.1524
 2627TIP3    H1 7887   4.159   1.512   2.895  0.8928 -0.2239 -0.1065
 2627TIP3    H2 7888   4.181   1.424   3.017  2.3288  1.4300  0.8735
 2628TIP3   OH2 7889   1.479   1.553   3.799  0.9455 -0.2238 -0.1066
 2628TIP3    H1 7890   1.512   1.637   3.833  2.0710 -0.6330 -0.1259
 2628TIP3    H2 7891   1.558   1.501   3.786  0.1671 -3.0295  4.2829
 2629TIP3   OH2 7892   6.053   1.851   3.674 -0.1973  0.1690  0.4056
 2629TIP3    H1 7893   6.039   1.756   3.672  2.4430 -0.3465  1.7884
 2629TIP3    H2 7894   6.068   1.871   3.766  0.1208  1.8108  0.0271
 2630TIP3   OH2 7895   6.037   0.396   5.050 -0.2144 -0.2681 -0.8845
 2630TIP3    H1 7896   5.957   0.448   5.045 -0.1341 -0.1632 -1.1289
 2630TIP3    H2 7897   6.011   0.315   5.092 -0.3927 -0.1245 -0.7168
 2631TIP3   OH2 7898   5.000   0.998   0.024  0.0144 -0.1472  0.0177
 2631TIP3    H1 7899   4.913   1.027   0.050  0.1450  0.0968  0.1960
 2631TIP3    H2 7900   4.985   0.929  -0.041 -0.3216 -0.6074  0.5734
 2632TIP3   OH2 7901   5.354   1.740   0.043 -0.8756  0.3375  0.4640
 2632TIP3    H1 7902   5.450   1.736   0.042 -0.8826 -0.3146  1.1826
 2632TIP3    H2 7903   5.326   1.660  -0.003 -1.0410 -1.1821  2.9817
 2633TIP3   OH2 7904   4.137   1.177   5.154  0.1686 -0.1726  0.3172
 2633TIP3    H1 7905   4.197   1.108   5.124  0.5055 -0.4403  1.5536
 2633TIP3    H2 7906   4.073   1.186   5.083  0.7953 -0.9463 -0.3625
 2634TIP3   OH2 7907   0.388   4.312   2.239  0.3061  0.3015 -0.3907
 2634TIP3    H1 7908   0.335   4.372   2.292 -0.4822  0.2076 -1.0493
 2634TIP3    H2 7909   0.387   4.351   2.152 -1.2223 -1.2481 -1.1206
 2635TIP3   OH2 7910   3.874   2.875   0.676  0.2372 -0.1673 -0.8423
 2635TIP3    H1 7911   3.886   2.854   0.769 -0.3089  1.6258 -0.3161
 2635TIP3    H2 7912   3.781   2.856   0.660  0.0057  0.7727 -0.6502
 2636TIP3   OH2 7913   2.589   1.639   1.419 -0.1210  0.3808 -0.2621
 2636TIP3    H1 7914   2.518   1.698   1.393 -0.9834 -0.4389  0.1600
 2636TIP3    H2 7915   2.667   1.676   1.378 -0.8054  1.2521 -0.8241
 2637TIP3   OH2 7916   0.556   5.204   4.281 -0.1079 -0.2118 -0.0749
 2637TIP3    H1 7917   0.646   5.194   4.310 -0.6516  0.1648  1.9171
 2637TIP3    H2 7918   0.559   5.192   4.186  2.2860  1.5407 -0.2889
 2638TIP3   OH2 7919   1.966   0.284   2.701 -0.2003  0.2046 -0.0099
 2638TIP3    H1 7920   1.993   0.361   2.650  0.2953  0.6455  0.8743
 2638TIP3    H2 7921   1.940   0.321   2.786 -1.3894 -0.4658 -0.0612
 2639TIP3   OH2 7922   5.973   1.722   4.465 -0.4851 -0.2175 -0.1342
 2639TIP3    H1 7923   6.047   1.671   4.496  1.7729  1.5629 -2.2228
 2639TIP3    H2 7924   5.897   1.664   4.474  1.1001 -2.0977  2.1174
 2640TIP3   OH2 7925   4.012   5.100   2.242 -0.1043 -0.0389  0.0995
 2640TIP3    H1 7926   4.041   5.026   2.189  0.7340  0.3108  0.0482
 2640TIP3    H2 7927   4.093   5.138   2.277 -0.6567 -0.5545  2.0432
 2641TIP3   OH2 7928   3.817   4.274   3.125  0.0862  0.2034  0.7495
 2641TIP3    H1 7929   3.910   4.293   3.119 -0.3893  2.6475 -0.1266
 2641TIP3    H2 7930   3.785   4.282   3.035 -1.0773  0.0484  1.1306
 2642TIP3   OH2 7931   3.526   3.151   2.029  0.1279 -0.1582  0.1432
 2642TIP3    H1 7932   3.554   3.071   2.073  1.7468 -0.2157 -0.9193
 2642TIP3    H2 7933   3.430   3.147   2.032  0.0633  0.1403  4.0995
 2643TIP3   OH2 7934   2.075   5.702   1.353  0.8203 -0.4690 -0.2050
 2643TIP3    H1 7935   2.137   5.709   1.425  0.3839 -0.6698  0.1952
 2643TIP3    H2 7936   2.005   5.647   1.387  0.3336 -0.0963 -0.5874
 2644TIP3   OH2 7937   1.030   0.598   0.701  0.2796  0.3479  0.2103
 2644TIP3    H1 7938   0.971   0.633   0.768  0.4320  0.1916  0.4280
 2644TIP3    H2 7939   1.013   0.504   0.699 -1.4980  0.6466 -1.7234
 2645TIP3   OH2 7940   4.700   4.020   0.738  0.2868  0.4196 -0.3569
 2645TIP3    H1 7941   4.740   3.937   0.766 -2.5391 -1.2718 -0.9848
 2645TIP3    H2 7942   4.672   4.062   0.820 -1.0197 -0.7791 -0.1576
 2646TIP3   OH2 7943   0.295   2.603   4.123 -0.6055  0.4426 -0.9826
 2646TIP3    H1 7944   0.257   2.516   4.136  0.8114 -0.0932 -0.2582
 2646TIP3    H2 7945   0.291   2.618   4.028 -0.9547 -0.3533 -1.0969
 2647TIP3   OH2 7946   4.404   5.591   4.135 -0.1726  0.3819  0.0606
 2647TIP3    H1 7947   4.472   5.543   4.182 -0.6828  0.1031  0.5172
 2647TIP3    H2 7948   4.381   5.663   4.193  1.1578  1.7016 -0.9487
 2648TIP3   OH2 7949   5.104   3.341   1.212 -0.3162  0.1518  0.5635
 2648TIP3    H1 7950   5.176   3.372   1.157 -1.6470  0.2390 -1.2332
 2648TIP3    H2 7951   5.054   3.283   1.155 -2.3049  1.0025  1.3479
 2649TIP3   OH2 7952   3.442   4.787   2.895  0.7031 -0.6178 -0.0236
 2649TIP3    H1 7953   3.517   4.742   2.854  0.4035 -1.3174  0.1793
 2649TIP3    H2 7954   3.470   4.802   2.985  0.2338 -1.8002  0.3423
 2650TIP3   OH2 7955   5.765   4.971   2.462 -0.6453  0.1935 -0.4288
 2650TIP3    H1 7956   5.825   4.941   2.394 -0.5077  0.1855 -0.3045
 2650TIP3    H2 7957   5.710   5.036   2.419 -0.3435  0.4287 -0.4632
 2651TIP3   OH2 7958   1.044   2.218   3.260 -0.1680  0.4207 -0.1442
 2651TIP3    H1 7959   1.115   2.256   3.209  0.8511  1.0888  1.6611
 2651TIP3    H2 7960   0.967   2.270   3.238 -0.0561 -0.0901 -1.8727
 2652TIP3   OH2 7961   0.119   4.826   3.793 -0.6830 -0.3965  0.4259
 2652TIP3    H1 7962   0.093   4.918   3.789 -0.1685 -0.2381  0.6070
 2652TIP3    H2 7963   0.049   4.783   3.841  0.0671  0.2836  2.1951
 2653TIP3   OH2 7964   2.430   3.490   0.933 -0.4075  0.3447 -0.2343
 2653TIP3    H1 7965   2.483   3.564   0.902  0.1574  0.0327 -0.0354
 2653TIP3    H2 7966   2.459   3.477   1.024 -1.1051  0.4088  0.0065
 2654TIP3   OH2 7967   3.180   3.098   4.971  0.1090  0.3087  0.0571
 2654TIP3    H1 7968   3.195   3.120   5.063 -0.9376  0.5033  0.1944
 2654TIP3    H2 7969   3.107   3.155   4.944  0.2502  0.0883 -0.8217
 2655TIP3   OH2 7970   4.558   4.917   1.122 -0.4190 -0.2214  0.0345
 2655TIP3    H1 7971   4.467   4.944   1.137 -0.6803 -1.5835  1.0664
 2655TIP3    H2 7972   4.608   4.957   1.193 -0.9056 -2.7744  1.9514
 2656TIP3   OH2 7973   3.483   4.120   3.657 -0.0669 -0.4170  0.2871
 2656TIP3    H1 7974   3.458   4.030   3.676  1.1915 -0.5475  1.4379
 2656TIP3    H2 7975   3.572   4.114   3.624 -0.0809  0.3961  0.0743
 2657TIP3   OH2 7976   0.093   0.600   1.717 -0.2547 -0.6852  0.3948
 2657TIP3    H1 7977   0.082   0.677   1.773  0.3543  1.3905 -2.1739
 2657TIP3    H2 7978   0.165   0.551   1.758  2.1226  2.2245  0.0030
 2658TIP3   OH2 7979   1.541   1.493   0.805  0.3650  0.1843 -0.4983
 2658TIP3    H1 7980   1.488   1.525   0.878  0.2966  1.2004 -0.9648
 2658TIP3    H2 7981   1.631   1.492   0.838  0.2487 -0.0675 -0.1809
 2659TIP3   OH2 7982   2.980   1.876   4.038 -0.2648  0.0384  0.1784
 2659TIP3    H1 7983   3.037   1.951   4.052 -2.3272  1.7958 -0.3529
 2659TIP3    H2 7984   3.039   1.805   4.013  1.5626  2.1299 -1.8533
 2660TIP3   OH2 7985   4.693   1.951   0.124  0.0147  0.5344 -0.2694
 2660TIP3    H1 7986   4.609   1.996   0.114  0.6255  1.5334 -1.1133
 2660TIP3    H2 7987   4.758   2.015   0.096  0.9876 -0.6005 -0.6839
 2661TIP3   OH2 7988   6.254   0.456   3.416 -0.5000  0.2809  0.2355
 2661TIP3    H1 7989   6.317   0.441   3.346  1.1259  1.3439  1.3957
 2661TIP3    H2 7990   6.214   0.540   3.395  1.2633  1.4737  1.4206
 2662TIP3   OH2 7991   0.047   5.873   1.925 -0.3021  0.1368  0.1020
 2662TIP3    H1 7992   0.033   5.958   1.885 -1.5098 -0.2833 -0.3870
 2662TIP3    H2 7993   0.057   5.892   2.019 -0.0044  0.8536 -0.0659
 2663TIP3   OH2 7994   1.455   0.117   3.867  0.1333  0.0907  0.2550
 2663TIP3    H1 7995   1.419   0.030   3.882 -0.6055  0.5123  1.0325
 2663TIP3    H2 7996   1.545   0.111   3.898  0.2857 -0.5571 -0.2855
 2664TIP3   OH2 7997   0.810   4.742   4.621 -0.3161  0.2767 -0.0146
 2664TIP3    H1 7998   0.729   4.739   4.570 -0.3937  0.3339  0.1046
 2664TIP3    H2 7999   0.823   4.652   4.651 -0.4907  0.3240  0.2068
 2665TIP3   OH2 8000   4.856   5.053   4.160  0.3320  0.0800  0.1199
 2665TIP3    H1 8001   4.922   4.998   4.203 -1.2055 -0.1146  2.3951
 2665TIP3    H2 8002   4.791   4.991   4.127  0.1899  0.3842 -0.1778
 2666TIP3   OH2 8003   4.067   0.629   3.046 -0.5380  0.4899  0.1998
 2666TIP3    H1 8004   4.090   0.613   3.137 -0.6871 -0.0299  0.1438
 2666TIP3    H2 8005   3.974   0.651   3.048 -0.9912 -1.2665 -0.0168
 2667TIP3   OH2 8006   6.339   0.496   0.597  0.3085  0.3779  0.7997
 2667TIP3    H1 8007   6.334   0.423   0.659  0.0212 -0.4038 -0.1091
 2667TIP3    H2 8008   6.257   0.544   0.610 -0.0769 -0.1990  0.5334
 2668TIP3   OH2 8009   3.847   4.479   2.572  0.4086 -0.7595 -0.1458
 2668TIP3    H1 8010   3.764   4.459   2.531  0.5304 -1.9191  0.1308
 2668TIP3    H2 8011   3.913   4.443   2.513  0.6806 -0.4787 -0.0171
 2669TIP3   OH2 8012   1.048   3.342   4.006 -0.0536 -0.2280  0.0194
 2669TIP3    H1 8013   1.124   3.297   4.044  0.3849  0.4852  0.0145
 2669TIP3    H2 8014   0.979   3.332   4.071 -0.0395 -1.1209 -0.0970
 2670TIP3   OH2 8015   3.067   5.462   4.155  0.3398 -0.5309 -0.2907
 2670TIP3    H1 8016   2.998   5.501   4.101  1.9425  0.8887 -1.4250
 2670TIP3    H2 8017   3.124   5.417   4.092  1.8329  0.5139  0.2704
 2671TIP3   OH2 8018   1.862   1.016   3.602 -0.5832 -0.4751  0.3027
 2671TIP3    H1 8019   1.808   1.095   3.607 -1.2181 -0.9702  3.0348
 2671TIP3    H2 8020   1.951   1.047   3.619 -0.7373 -0.2353  0.7061
 2672TIP3   OH2 8021   5.318   4.611   2.707  0.2972  0.6682  0.0804
 2672TIP3    H1 8022   5.392   4.551   2.715  0.6971  0.9513 -1.2967
 2672TIP3    H2 8023   5.242   4.554   2.696  0.3940  0.3914  0.7831
 2673TIP3   OH2 8024   3.062   5.089   2.912  0.0762  0.4127 -0.5001
 2673TIP3    H1 8025   3.034   5.000   2.934  2.7978 -0.5052 -0.3141
 2673TIP3    H2 8026   3.048   5.139   2.993 -0.2807 -0.1911 -0.1817
 2674TIP3   OH2 8027   3.335   1.832   0.496 -0.0686  0.1474  0.3723
 2674TIP3    H1 8028   3.259   1.847   0.440 -0.6501  2.2387  1.6330
 2674TIP3    H2 8029   3.313   1.755   0.548 -0.9200  0.1810  0.0636
 2675TIP3   OH2 8030   4.545   3.210   4.580 -0.0833 -0.1360 -0.4173
 2675TIP3    H1 8031   4.470   3.227   4.522 -1.1641  0.1251  1.0047
 2675TIP3    H2 8032   4.549   3.287   4.637  0.1425 -0.9616  0.7057
 2676TIP3   OH2 8033   1.158   0.312   1.259  0.2230  0.0717  1.0794
 2676TIP3    H1 8034   1.253   0.322   1.255  0.4812 -1.8657  1.3530
 2676TIP3    H2 8035   1.124   0.400   1.243  2.0336  0.6866  0.3396
 2677TIP3   OH2 8036   2.864   1.379   0.929  0.0667 -0.5328  0.2521
 2677TIP3    H1 8037   2.827   1.298   0.893  0.0693  0.6082 -2.5420
 2677TIP3    H2 8038   2.930   1.406   0.865  0.5271  1.3487  1.4524
 2678TIP3   OH2 8039   6.329   4.446   1.652 -0.0765  0.3096  0.3467
 2678TIP3    H1 8040   6.243   4.465   1.690  0.3810  2.4986  0.4285
 2678TIP3    H2 8041   6.326   4.353   1.631 -2.9312  0.5442 -0.7999
 2679TIP3   OH2 8042   0.199   1.984   2.536  0.0450  0.2057 -0.1891
 2679TIP3    H1 8043   0.108   1.985   2.507  0.1967  1.8422 -0.7030
 2679TIP3    H2 8044   0.216   2.074   2.565  1.4473 -0.1210  0.0679
 2680TIP3   OH2 8045   5.251   2.558   2.144 -0.5423 -0.3518 -1.0517
 2680TIP3    H1 8046   5.161   2.531   2.125 -0.2166 -0.6471 -2.2066
 2680TIP3    H2 8047   5.295   2.478   2.172 -0.9529  0.0302  0.8583
 2681TIP3   OH2 8048   1.056   2.656   1.092  0.0507 -0.3569 -0.4455
 2681TIP3    H1 8049   1.096   2.588   1.037  1.3608 -1.0281  1.2419
 2681TIP3    H2 8050   1.060   2.735   1.039  1.1348 -1.0051 -1.3891
 2682TIP3   OH2 8051   2.150   1.931   1.140  0.1454 -0.1880  0.0005
 2682TIP3    H1 8052   2.235   1.899   1.170  0.9084  0.1863 -1.6531
 2682TIP3    H2 8053   2.134   1.883   1.059 -1.4370 -0.5454  0.4926
 2683TIP3   OH2 8054   0.382   4.893   4.800  0.4093 -0.1021 -0.4269
 2683TIP3    H1 8055   0.417   4.909   4.712  0.9969  1.5872  0.0743
 2683TIP3    H2 8056   0.289   4.877   4.786  0.1024  2.0449 -1.2566
 2684TIP3   OH2 8057   1.034   4.982   1.011 -0.0735  0.8343 -0.1318
 2684TIP3    H1 8058   1.104   4.923   0.983 -0.7550 -1.1690  2.0804
 2684TIP3    H2 8059   0.965   4.972   0.944  0.4459  0.3402 -0.5983
 2685TIP3   OH2 8060   3.614   4.265   0.311  0.5124  0.0474 -0.1021
 2685TIP3    H1 8061   3.673   4.315   0.368 -0.3555  1.8590 -0.7056
 2685TIP3    H2 8062   3.600   4.183   0.357  0.5766  1.0829  1.8882
 2686TIP3   OH2 8063   3.444   5.399   0.680  0.1271 -0.2563  0.9071
 2686TIP3    H1 8064   3.526   5.402   0.631  0.7211 -2.0961  1.6911
 2686TIP3    H2 8065   3.376   5.383   0.614  0.3800  1.1695  0.2675
 2687TIP3   OH2 8066   1.780   4.511   3.218 -0.1632  0.1571  0.4085
 2687TIP3    H1 8067   1.797   4.506   3.124  0.8367 -1.5594  0.6395
 2687TIP3    H2 8068   1.742   4.598   3.231 -1.4615 -0.0049 -1.7481
 2688TIP3   OH2 8069   6.195   4.068   4.615  0.5571 -0.2769  0.5214
 2688TIP3    H1 8070   6.112   4.034   4.649 -0.2408  0.4229 -0.6398
 2688TIP3    H2 8071   6.177   4.086   4.522  1.8955  0.2527  0.3456
 2689TIP3   OH2 8072   3.795   2.143   0.889 -0.0944  0.3668 -0.6171
 2689TIP3    H1 8073   3.753   2.088   0.955 -0.8102  0.9237 -0.6040
 2689TIP3    H2 8074   3.828   2.218   0.938 -0.0635  0.4760 -0.8041
 2690TIP3   OH2 8075   0.752   1.244   3.738  0.3015  0.2825 -0.2295
 2690TIP3    H1 8076   0.748   1.272   3.647  0.2897 -1.3169 -0.7522
 2690TIP3    H2 8077   0.835   1.197   3.745 -0.2049 -0.5580  0.2847
 2691TIP3   OH2 8078   5.808   3.738   5.030 -0.1594  0.3815 -0.3220
 2691TIP3    H1 8079   5.861   3.747   4.951 -1.2219  0.6118 -1.0434
 2691TIP3    H2 8080   5.867   3.758   5.102  0.8298  0.1901 -1.0568
 2692TIP3   OH2 8081   2.281   2.543   4.373  0.0805  0.1096 -0.3591
 2692TIP3    H1 8082   2.321   2.607   4.314 -0.7203 -0.4313 -1.5425
 2692TIP3    H2 8083   2.332   2.548   4.453  0.2670  1.9786 -0.5416
 2693TIP3   OH2 8084   3.825   2.887   3.301  0.1129 -0.2127 -0.0424
 2693TIP3    H1 8085   3.813   2.945   3.377 -0.7946  1.1780 -1.1901
 2693TIP3    H2 8086   3.793   2.802   3.331 -1.3535  0.5884  0.7855
 2694TIP3   OH2 8087   4.255   4.120   4.964 -0.2417  0.3796 -0.2687
 2694TIP3    H1 8088   4.270   4.052   4.898 -1.6729  0.4497 -0.6929
 2694TIP3    H2 8089   4.281   4.078   5.046  0.2103 -0.1993 -0.6900
 2695TIP3   OH2 8090   0.558   3.799   5.194  0.3573  1.1645 -0.0409
 2695TIP3    H1 8091   0.469   3.772   5.214  0.4511  0.9861  0.1424
 2695TIP3    H2 8092   0.551   3.847   5.111  0.0410  1.4493  0.1459
 2696TIP3   OH2 8093   1.601   0.801   2.917 -0.1705  0.5040  0.2952
 2696TIP3    H1 8094   1.604   0.839   2.829 -0.9526  0.9919  0.4753
 2696TIP3    H2 8095   1.637   0.869   2.974  1.2303 -0.1553  0.2655
 2697TIP3   OH2 8096   3.593   0.881   2.104 -0.9078  0.3109  0.0875
 2697TIP3    H1 8097   3.514   0.860   2.155 -1.5442 -0.4668 -1.1566
 2697TIP3    H2 8098   3.606   0.975   2.118 -0.9203  0.0930  1.8354
 2698TIP3   OH2 8099   3.773   5.311   3.584 -0.4873 -0.2730 -0.2368
 2698TIP3    H1 8100   3.812   5.390   3.621 -1.3158  0.5801 -1.1215
 2698TIP3    H2 8101   3.752   5.257   3.660 -0.9051  0.8457  0.4630
 2699TIP3   OH2 8102   2.742   4.394   4.218  0.3532 -0.1548 -0.2691
 2699TIP3    H1 8103   2.651   4.415   4.239 -0.0515 -1.2577 -0.8505
 2699TIP3    H2 8104   2.768   4.331   4.285  0.6389  0.0062 -0.2238
 2700TIP3   OH2 8105   5.841   0.573   4.488 -0.1854  0.6552 -0.1554
 2700TIP3    H1 8106   5.931   0.577   4.522 -0.1480 -1.6816  0.1820
 2700TIP3    H2 8107   5.791   0.531   4.558 -1.0302 -0.2493 -1.2703
 2701TIP3   OH2 8108   5.982   3.462   0.445  0.4365 -0.1761  0.1366
 2701TIP3    H1 8109   5.900   3.478   0.493  1.0751  1.0128  0.8902
 2701TIP3    H2 8110   6.050   3.500   0.501  1.7764 -2.8246  0.4784
 2702TIP3   OH2 8111   0.083   4.029   0.431  0.6420 -0.1617 -0.5088
 2702TIP3    H1 8112   0.069   4.103   0.372  1.0143  0.2868 -0.0459
 2702TIP3    H2 8113   0.010   3.970   0.414  0.2173  0.4199 -0.7299
 2703TIP3   OH2 8114   5.784   0.738   1.547 -0.4158 -0.2611  0.1191
 2703TIP3    H1 8115   5.814   0.653   1.513  0.0020 -0.6156  1.3094
 2703TIP3    H2 8116   5.828   0.747   1.632 -2.5208 -0.1210  1.2826
 2704TIP3   OH2 8117   4.425   5.452   3.881  0.7438 -0.7026 -0.1796
 2704TIP3    H1 8118   4.367   5.471   3.954  1.8171  0.0095  0.5138
 2704TIP3    H2 8119   4.497   5.403   3.920  1.1612 -0.6142 -0.8233
 2705TIP3   OH2 8120   4.287   5.805   2.612 -0.2039 -0.1346 -0.6191
 2705TIP3    H1 8121   4.366   5.758   2.584  0.7080  0.3082  1.1041
 2705TIP3    H2 8122   4.265   5.766   2.697 -2.4337 -0.9040 -1.4751
 2706TIP3   OH2 8123   0.674   4.611   3.840  0.3393  0.3728 -0.1008
 2706TIP3    H1 8124   0.646   4.594   3.751 -1.9050  2.1215  0.2128
 2706TIP3    H2 8125   0.634   4.540   3.891 -2.7069  2.1367  0.1565
 2707TIP3   OH2 8126   5.650   5.827   4.201 -0.6197  0.1153  0.7642
 2707TIP3    H1 8127   5.662   5.801   4.110 -0.9507  0.7449  0.5327
 2707TIP3    H2 8128   5.556   5.824   4.215 -0.6971  1.4002  0.6460
 2708TIP3   OH2 8129   0.568   0.619   4.187  0.0398  0.1910 -0.2236
 2708TIP3    H1 8130   0.631   0.691   4.198  1.7393 -1.4279  1.4714
 2708TIP3    H2 8131   0.530   0.607   4.273  0.3455 -1.3798 -0.2786
 2709TIP3   OH2 8132   4.552   0.744   3.285  0.2691 -0.2468 -0.2775
 2709TIP3    H1 8133   4.634   0.781   3.317 -0.0990 -2.1032  3.3463
 2709TIP3    H2 8134   4.577   0.659   3.247  0.1721 -0.2998 -0.2249
 2710TIP3   OH2 8135   3.587   1.343   2.394  0.4317  0.1202 -0.4169
 2710TIP3    H1 8136   3.586   1.405   2.321  0.4456 -0.6415 -1.0751
 2710TIP3    H2 8137   3.495   1.332   2.417  0.3841 -0.0712 -0.6943
 2711TIP3   OH2 8138   1.716   3.885   1.698 -0.4110  0.3964 -0.2035
 2711TIP3    H1 8139   1.630   3.915   1.728  0.3414  0.5863  1.9363
 2711TIP3    H2 8140   1.757   3.964   1.662 -0.4327  0.7493  0.5287
 2712TIP3   OH2 8141   4.569   5.768   4.359  0.4972 -0.0101  0.0426
 2712TIP3    H1 8142   4.609   5.694   4.314 -0.3765  0.4871 -1.6253
 2712TIP3    H2 8143   4.502   5.729   4.415  2.0777 -0.6958  1.5396
 2713TIP3   OH2 8144   2.164   5.225   1.763  0.0008  0.2383  0.5945
 2713TIP3    H1 8145   2.229   5.243   1.830 -0.4917  1.6434  0.7247
 2713TIP3    H2 8146   2.215   5.214   1.683  0.3913  2.4439  0.4719
 2714TIP3   OH2 8147   4.155   4.079   1.891 -0.4590 -0.1011 -0.0600
 2714TIP3    H1 8148   4.237   4.104   1.847 -1.2237  0.5763 -1.1369
 2714TIP3    H2 8149   4.086   4.122   1.840 -1.3341  2.4220  2.9208
 2715TIP3   OH2 8150   4.934   5.066   0.299  0.4106 -0.3278 -0.1835
 2715TIP3    H1 8151   4.899   5.084   0.212  0.3621  1.1130  0.1066
 2715TIP3    H2 8152   4.978   4.982   0.290  0.0908 -0.3752 -1.5086
 2716TIP3   OH2 8153   3.028   2.983   1.652  0.1712  0.3000  0.0055
 2716TIP3    H1 8154   3.096   2.926   1.615 -0.2268  0.4552 -1.0098
 2716TIP3    H2 8155   2.996   3.033   1.577 -0.3135  1.0088  0.6712
 2717TIP3   OH2 8156   1.138   3.753   1.800  0.2958  0.5594 -0.2768
 2717TIP3    H1 8157   1.142   3.676   1.745  0.3612  0.8793 -0.7255
 2717TIP3    H2 8158   1.218   3.802   1.779 -0.4381  1.4602 -1.0690
 2718TIP3   OH2 8159   1.531   0.308   1.503 -0.2300 -0.3098  0.1591
 2718TIP3    H1 8160   1.510   0.332   1.594 -0.3512  0.0293  0.0446
 2718TIP3    H2 8161   1.513   0.214   1.498  1.2931 -0.6745  0.9177
 2719TIP3   OH2 8162   5.440   0.568   4.248 -0.0033  0.3217  0.4219
 2719TIP3    H1 8163   5.423   0.628   4.176  0.1520 -0.2986 -0.1431
 2719TIP3    H2 8164   5.531   0.542   4.238  0.5396  1.5243  1.8449
 2720TIP3   OH2 8165   0.560   0.178   0.558 -0.5783 -0.0842  0.0927
 2720TIP3    H1 8166   0.565   0.248   0.623  0.3344 -1.3757  1.4850
 2720TIP3    H2 8167   0.509   0.215   0.486 -0.3915  1.8852  0.9172
 2721TIP3   OH2 8168   3.912   0.985   1.153  0.2862  0.3251 -0.1621
 2721TIP3    H1 8169   3.853   1.056   1.178 -0.5570 -0.4901  0.1937
 2721TIP3    H2 8170   3.928   0.999   1.060 -0.5472  0.4974 -0.2871
 2722TIP3   OH2 8171   1.561   3.111   0.204 -0.1380 -0.8396  0.5104
 2722TIP3    H1 8172   1.470   3.103   0.232  0.4092 -0.1051  2.7033
 2722TIP3    H2 8173   1.580   3.027   0.160 -2.1249 -0.5809 -0.9846
 2723TIP3   OH2 8174   2.444   4.086   2.982 -0.9330 -0.3805 -0.2006
 2723TIP3    H1 8175   2.418   4.160   3.037  0.1491 -0.8023  0.9475
 2723TIP3    H2 8176   2.454   4.013   3.044  0.8451 -0.7437 -0.8619
 2724TIP3   OH2 8177   2.042   5.883   1.829 -0.3259  0.5737  0.3479
 2724TIP3    H1 8178   2.072   5.973   1.847  0.1542  0.1926  1.5650
 2724TIP3    H2 8179   2.049   5.838   1.913  3.7613 -1.8415 -0.9829
 2725TIP3   OH2 8180   5.445   5.094   4.934  0.2795  0.1740  0.0599
 2725TIP3    H1 8181   5.421   5.187   4.944 -1.3741 -0.0148 -1.5404
 2725TIP3    H2 8182   5.385   5.048   4.993  0.7850  0.0901  0.5081
 2726TIP3   OH2 8183   1.434   3.555   0.497  0.0291  0.1878 -0.0235
 2726TIP3    H1 8184   1.498   3.617   0.532  2.6009 -0.5078 -3.0369
 2726TIP3    H2 8185   1.472   3.469   0.514 -0.4366 -0.2761 -1.2000
 2727TIP3   OH2 8186   5.809   4.795   1.188  0.0756  0.4294 -0.1143
 2727TIP3    H1 8187   5.749   4.767   1.257 -0.4432  0.9487 -0.3494
 2727TIP3    H2 8188   5.856   4.715   1.164 -2.1531 -0.5472 -1.5413
 2728TIP3   OH2 8189   4.589   0.732   4.017  0.9189  0.1128 -0.5884
 2728TIP3    H1 8190   4.674   0.715   3.978  0.4364 -1.5679 -0.9763
 2728TIP3    H2 8191   4.529   0.674   3.970 -0.3845  0.9773 -0.0567
 2729TIP3   OH2 8192   3.798   1.925   4.817 -0.4365  0.8911 -0.4985
 2729TIP3    H1 8193   3.891   1.943   4.826 -0.4573  0.9889 -0.4700
 2729TIP3    H2 8194   3.768   1.903   4.905 -0.3337  0.3348 -0.6010
 2730TIP3   OH2 8195   3.827   0.543   4.052 -0.2883 -0.5058 -0.5746
 2730TIP3    H1 8196   3.799   0.581   4.135  1.3866 -1.2042  0.3494
 2730TIP3    H2 8197   3.753   0.488   4.024 -0.8288 -0.3378  0.4979
 2731TIP3   OH2 8198   5.692   4.782   5.027  0.4783  0.1410 -0.0372
 2731TIP3    H1 8199   5.618   4.783   5.089 -0.6573 -0.2252 -1.3331
 2731TIP3    H2 8200   5.702   4.873   5.000  0.2053  0.1286 -0.1853
 2732TIP3   OH2 8201   1.380   3.970   1.789 -0.1086 -0.0750  0.2030
 2732TIP3    H1 8202   1.311   4.022   1.748  0.0564 -1.0706 -1.4256
 2732TIP3    H2 8203   1.445   4.034   1.817 -1.1614  0.7895  0.7247
 2733TIP3   OH2 8204   0.222   4.822   1.386  0.4165  0.4232 -0.0026
 2733TIP3    H1 8205   0.264   4.793   1.467 -0.8923  0.4257  0.7141
 2733TIP3    H2 8206   0.187   4.741   1.347  1.4032  0.3654 -0.7994
 2734TIP3   OH2 8207   2.566   2.415   4.061 -0.4789 -0.1497 -0.1244
 2734TIP3    H1 8208   2.553   2.342   4.122  3.9235 -1.0013  0.1749
 2734TIP3    H2 8209   2.553   2.493   4.114  1.1859 -0.8658  1.4379
 2735TIP3   OH2 8210   0.137   4.241   3.393  0.0203  0.4841 -0.1873
 2735TIP3    H1 8211   0.112   4.161   3.439  0.7236 -0.1598 -0.8898
 2735TIP3    H2 8212   0.152   4.213   3.303  1.4735  1.1507 -0.1901
 2736TIP3   OH2 8213   0.102   1.410   1.860  0.1346  0.5475  0.2733
 2736TIP3    H1 8214   0.045   1.429   1.935 -2.1718 -0.4412 -1.1075
 2736TIP3    H2 8215   0.176   1.363   1.897 -1.6655 -1.2539  1.8303
 2737TIP3   OH2 8216   1.131   2.835   0.376  0.2081 -0.6673  0.5920
 2737TIP3    H1 8217   1.050   2.876   0.344 -0.1822 -1.6395  0.2972
 2737TIP3    H2 8218   1.156   2.774   0.306  2.0888  0.7330 -0.0657
 2738TIP3   OH2 8219   2.797   3.063   0.799  0.2115 -0.1666 -0.3110
 2738TIP3    H1 8220   2.703   3.072   0.785 -0.0205 -1.2617  0.4966
 2738TIP3    H2 8221   2.815   2.970   0.788  1.1328 -0.0354 -0.0324
 2739TIP3   OH2 8222   1.514   1.620   3.384 -0.2305 -0.4388  0.1174
 2739TIP3    H1 8223   1.509   1.596   3.291  0.6056  1.5445 -0.4990
 2739TIP3    H2 8224   1.474   1.546   3.430  1.4145 -2.5628 -1.6321
 2740TIP3   OH2 8225   3.108   2.598   3.684 -0.0063 -0.0116 -0.0441
 2740TIP3    H1 8226   3.110   2.577   3.591  2.0287 -0.3028  0.0045
 2740TIP3    H2 8227   3.069   2.685   3.688  0.0647  0.0911 -1.2015
 2741TIP3   OH2 8228   1.694   2.496   3.230 -0.0488 -0.0529  0.1225
 2741TIP3    H1 8229   1.666   2.568   3.286 -1.6493  1.4932 -2.4304
 2741TIP3    H2 8230   1.677   2.417   3.281  0.6566  1.2657  2.5767
 2742TIP3   OH2 8231   5.841   2.311   4.681  0.3514  0.5234  0.4709
 2742TIP3    H1 8232   5.902   2.268   4.622 -1.0362  2.2773 -2.4437
 2742TIP3    H2 8233   5.791   2.239   4.720 -1.9212 -0.8695 -4.2123
 2743TIP3   OH2 8234   1.315   2.269   4.033 -0.3805  0.1844  0.1950
 2743TIP3    H1 8235   1.385   2.320   3.993  0.0563 -1.7354 -1.6879
 2743TIP3    H2 8236   1.315   2.295   4.125  2.4058  0.6855  0.1270
 2744TIP3   OH2 8237   1.163   5.464   2.394  0.7553 -0.2572  0.9296
 2744TIP3    H1 8238   1.100   5.497   2.330 -0.2258 -1.5357  1.1965
 2744TIP3    H2 8239   1.237   5.525   2.388  0.7788 -0.3976 -1.5448
 2745TIP3   OH2 8240   4.104   5.032   2.755  0.0513 -0.1429  0.1513
 2745TIP3    H1 8241   4.135   4.950   2.717  0.0774  0.4907 -1.2764
 2745TIP3    H2 8242   4.110   5.095   2.683  1.7394  1.5533  1.6744
 2746TIP3   OH2 8243   0.399   0.974   0.812 -0.4056  0.4243 -0.2141
 2746TIP3    H1 8244   0.363   1.060   0.836  1.0977  0.9751  0.1244
 2746TIP3    H2 8245   0.428   0.985   0.722 -0.0307  0.3289 -0.1047
 2747TIP3   OH2 8246   3.155   0.363   1.026  0.0097 -0.0449  0.0869
 2747TIP3    H1 8247   3.137   0.373   0.932 -0.5001  3.7970  0.4188
 2747TIP3    H2 8248   3.074   0.327   1.062 -0.4136  0.0097 -0.7817
 2748TIP3   OH2 8249   4.158   5.507   3.074  1.0306 -0.4782 -0.1035
 2748TIP3    H1 8250   4.147   5.432   3.016 -2.4506 -0.5439  0.4878
 2748TIP3    H2 8251   4.251   5.505   3.098  1.5403 -3.1910 -1.9116
 2749TIP3   OH2 8252   2.774   3.231   2.259  0.3674  0.2046  0.1596
 2749TIP3    H1 8253   2.795   3.325   2.252 -0.5251  0.2926 -2.2157
 2749TIP3    H2 8254   2.838   3.197   2.322  1.9630  2.0466 -0.3628
 2750TIP3   OH2 8255   0.785   3.137   3.453 -0.3949 -0.5538 -0.1401
 2750TIP3    H1 8256   0.721   3.154   3.521 -0.2226 -0.8553  0.1024
 2750TIP3    H2 8257   0.734   3.133   3.372 -0.5327  0.3293 -0.1074
 2751TIP3   OH2 8258   3.404   3.918   0.268 -0.5393 -0.4398  0.1045
 2751TIP3    H1 8259   3.348   3.889   0.196 -1.6443  1.3375  0.1977
 2751TIP3    H2 8260   3.357   3.991   0.307  0.3957 -0.8820  2.1795
 2752TIP3   OH2 8261   5.894   2.752   4.748 -0.0288  0.0512 -0.1682
 2752TIP3    H1 8262   5.907   2.736   4.655  0.5199 -1.4843  0.1412
 2752TIP3    H2 8263   5.801   2.773   4.756 -0.5789 -1.9496 -0.8186
 2753TIP3   OH2 8264   0.805   2.770   2.379 -0.1079  0.8193 -0.8269
 2753TIP3    H1 8265   0.745   2.823   2.326 -0.2915  1.2679 -0.1737
 2753TIP3    H2 8266   0.752   2.696   2.409 -0.0087  0.5741 -1.2367
 2754TIP3   OH2 8267   5.946   5.479   4.791 -0.7304 -0.1551  0.2191
 2754TIP3    H1 8268   5.894   5.500   4.713 -1.3276  1.0758  0.9237
 2754TIP3    H2 8269   5.884   5.485   4.864 -0.5790 -2.9028  0.6945
 2755TIP3   OH2 8270   2.994   4.471   1.818 -0.2084 -0.2930 -0.5330
 2755TIP3    H1 8271   2.969   4.379   1.809  0.4047 -0.6176  0.8657
 2755TIP3    H2 8272   2.926   4.519   1.770 -1.5556 -1.3610  0.2211
 2756TIP3   OH2 8273   6.055   4.441   3.034  0.2100 -0.1517 -0.0301
 2756TIP3    H1 8274   6.053   4.387   2.955  0.6462  0.8299 -0.7369
 2756TIP3    H2 8275   5.969   4.482   3.036  0.5006  0.4974 -0.4943
 2757TIP3   OH2 8276   1.543   0.761   0.227  0.1439  0.0931  0.2487
 2757TIP3    H1 8277   1.491   0.762   0.308 -1.0514  1.0111 -0.5103
 2757TIP3    H2 8278   1.614   0.823   0.244 -0.4584  0.7637  0.3761
 2758TIP3   OH2 8279   3.855   4.294   0.137  0.5364  0.2584 -0.0132
 2758TIP3    H1 8280   3.784   4.270   0.196  0.2165 -1.9349 -1.1854
 2758TIP3    H2 8281   3.829   4.379   0.102 -1.4468 -0.3859 -0.2568
 2759TIP3   OH2 8282   3.693   3.336   2.520  0.4835  0.3932  0.0874
 2759TIP3    H1 8283   3.663   3.245   2.526 -0.8485  0.5659 -2.4994
 2759TIP3    H2 8284   3.614   3.386   2.499  1.7532  1.5102 -2.5027
 2760TIP3   OH2 8285   3.809   1.620   1.149 -0.1587  0.9517 -0.4455
 2760TIP3    H1 8286   3.772   1.665   1.225 -0.3681  0.5698 -0.3181
 2760TIP3    H2 8287   3.893   1.587   1.179 -0.7816 -0.2844  0.0176
 2761TIP3   OH2 8288   5.396   4.271   3.458 -0.1823 -0.0508  0.2933
 2761TIP3    H1 8289   5.427   4.343   3.404 -0.1454  0.2990  0.7689
 2761TIP3    H2 8290   5.359   4.208   3.396 -1.0670  0.7958 -0.0627
 2762TIP3   OH2 8291   4.586   0.556   4.757 -1.0606  0.1155 -0.8165
 2762TIP3    H1 8292   4.631   0.552   4.673  0.1713 -1.5238 -0.1215
 2762TIP3    H2 8293   4.547   0.644   4.759  2.3190  1.8052 -1.3657
 2763TIP3   OH2 8294   1.323   1.516   1.347  0.3060  0.3529 -0.3021
 2763TIP3    H1 8295   1.284   1.596   1.381  0.3610  0.5689 -0.7356
 2763TIP3    H2 8296   1.407   1.509   1.393  0.5155  0.8047 -0.6016
 2764TIP3   OH2 8297   4.446   0.948   2.434  0.1095 -0.2314 -0.0545
 2764TIP3    H1 8298   4.509   0.975   2.500 -1.6046  0.9826  1.1692
 2764TIP3    H2 8299   4.427   1.027   2.384 -0.7382 -0.4796 -0.1459
 2765TIP3   OH2 8300   3.921   0.457   1.338  0.2850  0.9046  0.2645
 2765TIP3    H1 8301   4.014   0.433   1.335 -0.1640 -1.1658  0.9417
 2765TIP3    H2 8302   3.886   0.424   1.256  0.0643  1.3486  0.1778
 2766TIP3   OH2 8303   5.774   5.558   3.279  0.2555 -0.5180  0.1480
 2766TIP3    H1 8304   5.842   5.507   3.322  0.1635 -1.5363 -0.8557
 2766TIP3    H2 8305   5.719   5.591   3.350  1.9952  0.6520  1.0012
 2767TIP3   OH2 8306   1.960   1.478   2.127  0.3840  0.1080  0.0040
 2767TIP3    H1 8307   1.987   1.527   2.205 -0.8734 -0.4025  0.7828
 2767TIP3    H2 8308   1.905   1.408   2.160  1.3687 -1.2831 -1.1816
 2768TIP3   OH2 8309   1.125   5.434   3.661  0.4672 -0.0056  0.4293
 2768TIP3    H1 8310   1.077   5.516   3.657  1.6567  0.6942 -0.2642
 2768TIP3    H2 8311   1.059   5.367   3.677 -0.7080  0.9191 -0.4105
 2769TIP3   OH2 8312   2.876   0.713   3.944  0.3491 -0.0046 -0.4463
 2769TIP3    H1 8313   2.960   0.757   3.927 -0.4105  0.8320 -2.2798
 2769TIP3    H2 8314   2.811   0.782   3.938 -0.7741 -1.1616 -2.3060
 2770TIP3   OH2 8315   3.651   2.589   3.957 -0.9273  0.3811  0.6494
 2770TIP3    H1 8316   3.562   2.560   3.978 -1.0824  0.6817  0.4027
 2770TIP3    H2 8317   3.670   2.550   3.872 -0.1568 -1.1425  1.4645
 2771TIP3   OH2 8318   2.288   5.388   3.769 -0.2182 -0.1433 -0.3522
 2771TIP3    H1 8319   2.253   5.341   3.694  0.6077  1.5720 -1.9205
 2771TIP3    H2 8320   2.334   5.322   3.820 -1.8086 -1.5714 -0.6864
 2772TIP3   OH2 8321   5.733   2.884   3.977  0.1598  0.2427 -0.3199
 2772TIP3    H1 8322   5.720   2.873   4.072  0.9902 -0.3262 -0.2634
 2772TIP3    H2 8323   5.811   2.939   3.971  0.6647 -0.5074 -0.6789
 2773TIP3   OH2 8324   3.763   3.137   4.764  0.0152 -0.1772  0.0856
 2773TIP3    H1 8325   3.693   3.134   4.699  0.8104 -1.7185 -0.7454
 2773TIP3    H2 8326   3.758   3.053   4.809  0.5148  0.2202  0.9234
 2774TIP3   OH2 8327   5.007   4.640   2.128 -0.2325  0.3699  0.0105
 2774TIP3    H1 8328   5.093   4.643   2.168  0.3972 -2.0446 -0.9664
 2774TIP3    H2 8329   5.023   4.656   2.035 -1.1113  1.7535  0.0716
 2775TIP3   OH2 8330   2.126   4.429   1.284 -0.2523 -0.2015  0.4724
 2775TIP3    H1 8331   2.163   4.490   1.220 -2.9380 -0.2788 -1.3196
 2775TIP3    H2 8332   2.071   4.483   1.340 -0.8077 -0.6506  0.3635
 2776TIP3   OH2 8333   2.643   5.516   0.900  0.4070 -0.0565  0.3582
 2776TIP3    H1 8334   2.708   5.580   0.929 -0.3147  0.2349  1.4027
 2776TIP3    H2 8335   2.642   5.450   0.969 -1.1821  0.5298  0.9488
 2777TIP3   OH2 8336   3.930   4.010   3.773  0.8799  0.4161 -0.0732
 2777TIP3    H1 8337   3.939   3.921   3.807 -0.8304  1.0643  2.3943
 2777TIP3    H2 8338   4.020   4.041   3.763  1.4869 -1.1322  0.3291
 2778TIP3   OH2 8339   5.432   0.988   4.685 -0.2855  0.0678  0.0273
 2778TIP3    H1 8340   5.482   1.058   4.641  1.6556 -0.6280  0.9960
 2778TIP3    H2 8341   5.484   0.909   4.671 -2.6191 -1.3426 -1.3499
 2779TIP3   OH2 8342   0.751   0.839   1.445  0.6019  0.2800 -0.3944
 2779TIP3    H1 8343   0.728   0.920   1.490  1.6901  0.5545 -0.3063
 2779TIP3    H2 8344   0.700   0.771   1.490  1.9569  0.4784  1.5711
 2780TIP3   OH2 8345   4.114   0.791   0.248  0.3827  0.2291 -0.2968
 2780TIP3    H1 8346   4.183   0.725   0.243  1.0517  0.8354  0.6085
 2780TIP3    H2 8347   4.159   0.871   0.276 -0.7447  0.5302  0.7502
 2781TIP3   OH2 8348   3.023   5.429   0.281  0.3103  0.3976 -0.0941
 2781TIP3    H1 8349   3.084   5.367   0.321 -0.6528 -0.1557  0.5672
 2781TIP3    H2 8350   3.079   5.497   0.243  1.3533 -0.4695 -0.1465
 2782TIP3   OH2 8351   5.346   0.463   1.387 -0.1844 -0.0404  0.5904
 2782TIP3    H1 8352   5.278   0.447   1.451  1.0417 -0.2745  1.8916
 2782TIP3    H2 8353   5.400   0.532   1.426  1.2578 -1.0017  0.3780
 2783TIP3   OH2 8354   2.197   2.976  -0.031  0.1547 -0.0390 -0.2888
 2783TIP3    H1 8355   2.209   2.896   0.019 -0.5940  0.3930  0.6210
 2783TIP3    H2 8356   2.139   3.030   0.023 -1.1776  0.2270 -1.8760
 2784TIP3   OH2 8357   3.064   1.239   4.186  1.0187  0.1187 -0.4195
 2784TIP3    H1 8358   3.011   1.176   4.137  0.8337 -0.1835  0.1457
 2784TIP3    H2 8359   3.113   1.185   4.248 -0.4199  0.6302  1.2642
 2785TIP3   OH2 8360   5.225   1.957   1.008 -0.1700  0.1445  0.1673
 2785TIP3    H1 8361   5.229   2.002   0.923 -0.4412 -0.0276  0.0593
 2785TIP3    H2 8362   5.174   1.877   0.990 -1.0825  0.5881  0.7015
 2786TIP3   OH2 8363   6.036   1.077   2.701 -0.3102  0.2240  0.3329
 2786TIP3    H1 8364   5.970   1.141   2.727 -0.0045  0.3185  0.8959
 2786TIP3    H2 8365   6.075   1.049   2.783 -0.2094 -0.4404  0.0667
 2787TIP3   OH2 8366   1.397   1.673   4.079 -0.5132  0.6122  0.8283
 2787TIP3    H1 8367   1.434   1.586   4.094  0.5637  0.9986  0.5307
 2787TIP3    H2 8368   1.306   1.657   4.054  0.1767 -0.5930 -1.1795
 2788TIP3   OH2 8369   0.862   4.354   1.928  0.1488 -0.2431  0.4445
 2788TIP3    H1 8370   0.799   4.319   1.864  0.6610  1.0137 -0.8175
 2788TIP3    H2 8371   0.939   4.298   1.919 -0.3308 -1.0241  1.0985
 2789TIP3   OH2 8372   4.140   4.568   1.910 -0.4851  0.3781 -0.1418
 2789TIP3    H1 8373   4.179   4.516   1.840  1.4293 -0.5881  1.5203
 2789TIP3    H2 8374   4.071   4.512   1.946 -0.0389 -0.0306  0.0904
 2790TIP3   OH2 8375   5.460   0.314   0.069 -0.3695  0.1334 -0.2149
 2790TIP3    H1 8376   5.369   0.318   0.098 -0.5548 -0.4440 -0.6805
 2790TIP3    H2 8377   5.490   0.404   0.071 -0.5201  0.1695  1.2830
 2791TIP3   OH2 8378   0.057   2.616   3.883  0.0117  0.3957 -0.2611
 2791TIP3    H1 8379   0.151   2.624   3.867  0.1229  2.6787  1.0639
 2791TIP3    H2 8380   0.023   2.705   3.869 -2.2274 -0.6450 -2.0531
 2792TIP3   OH2 8381   2.265   0.855   0.987  0.4351 -0.3067  0.0743
 2792TIP3    H1 8382   2.182   0.810   0.974  0.3987 -0.3076  0.2981
 2792TIP3    H2 8383   2.331   0.797   0.949  0.0858  0.9451 -2.7394
 2793TIP3   OH2 8384   2.711   3.310   0.451 -0.1281 -0.4480  0.0362
 2793TIP3    H1 8385   2.642   3.249   0.425 -0.5948 -0.2689  0.8369
 2793TIP3    H2 8386   2.667   3.375   0.506  0.5331  0.1020 -0.0683
 2794TIP3   OH2 8387   5.617   4.388   3.807 -0.2208  0.8176  0.6138
 2794TIP3    H1 8388   5.656   4.347   3.730  1.3836 -1.3489  2.4430
 2794TIP3    H2 8389   5.569   4.463   3.773 -0.2867 -0.5158 -2.5665
 2795TIP3   OH2 8390   1.726   2.215   4.236 -0.8120 -0.0984 -0.3243
 2795TIP3    H1 8391   1.808   2.175   4.266 -0.6717  0.9499  0.7816
 2795TIP3    H2 8392   1.731   2.306   4.266 -2.5306 -0.0940  0.0737
 2796TIP3   OH2 8393   5.751   3.513   1.095  1.0085  0.0521  0.7391
 2796TIP3    H1 8394   5.834   3.546   1.061 -0.1814  0.2683 -2.1728
 2796TIP3    H2 8395   5.724   3.578   1.160  1.8896  1.3528 -0.1561
 2797TIP3   OH2 8396   3.679   2.389   2.135 -0.5580  0.3581  0.1891
 2797TIP3    H1 8397   3.603   2.446   2.118  0.3908  1.9752  1.1083
 2797TIP3    H2 8398   3.673   2.369   2.228 -0.8329 -1.0268 -0.1126
 2798TIP3   OH2 8399   5.964   0.602   2.460  0.1581  0.1381  0.1601
 2798TIP3    H1 8400   5.957   0.585   2.554 -0.7587  0.5768  0.1860
 2798TIP3    H2 8401   5.991   0.693   2.454 -0.8294  0.4327  0.0050
 2799TIP3   OH2 8402   1.133   5.000   5.112  0.1687  0.1713 -0.3114
 2799TIP3    H1 8403   1.059   5.046   5.072 -0.9340 -1.6378 -0.4109
 2799TIP3    H2 8404   1.096   4.921   5.150  2.2526 -1.6839 -1.8469
 2800TIP3   OH2 8405   5.582   3.115   4.496 -0.2172 -0.0592  0.8578
 2800TIP3    H1 8406   5.562   3.028   4.460  1.8460 -0.2501  0.0237
 2800TIP3    H2 8407   5.615   3.165   4.421  1.0106  0.6201  1.8144
 2801TIP3   OH2 8408   0.069   4.232   2.226 -0.4615 -0.0280 -0.4706
 2801TIP3    H1 8409   0.056   4.292   2.299  0.2395 -0.4557  0.0163
 2801TIP3    H2 8410   0.107   4.287   2.157 -0.1052  0.1529 -0.1359
 2802TIP3   OH2 8411   0.428   4.844   0.358 -0.1290  0.0580  0.5699
 2802TIP3    H1 8412   0.510   4.796   0.345 -0.0057  0.1664  0.9368
 2802TIP3    H2 8413   0.446   4.932   0.326 -0.6384 -0.3659 -0.9775
 2803TIP3   OH2 8414   2.547   4.757   0.886 -0.4449  0.1400  0.4117
 2803TIP3    H1 8415   2.620   4.816   0.870 -1.5313  1.0948 -1.2650
 2803TIP3    H2 8416   2.551   4.739   0.980  0.8779  1.5685  0.6628
 2804TIP3   OH2 8417   1.576   1.229   4.277 -0.1942  0.1415 -0.0100
 2804TIP3    H1 8418   1.544   1.145   4.243  1.3685 -0.6869  0.4490
 2804TIP3    H2 8419   1.591   1.282   4.199  1.6878 -1.1178 -0.5938
 2805TIP3   OH2 8420   4.539   0.167   3.714  0.3488  0.8153 -0.1811
 2805TIP3    H1 8421   4.486   0.150   3.792 -0.1132  2.1779 -0.1824
 2805TIP3    H2 8422   4.522   0.259   3.693  1.2123  0.7254 -1.3285
 2806TIP3   OH2 8423   6.341   3.096   0.535  0.3474  0.2932  0.2328
 2806TIP3    H1 8424   6.333   3.169   0.596 -1.4480  0.9119 -0.6899
 2806TIP3    H2 8425   6.318   3.133   0.450  0.6672 -1.0599 -0.4724
 2807TIP3   OH2 8426   2.411   1.955   1.547 -0.3789  0.3554 -0.2558
 2807TIP3    H1 8427   2.381   1.866   1.530  1.6979 -0.3310 -0.6644
 2807TIP3    H2 8428   2.491   1.963   1.494  0.9815  1.5080  1.8568
 2808TIP3   OH2 8429   2.740   4.882   4.268  0.3135  0.3600 -0.1078
 2808TIP3    H1 8430   2.729   4.887   4.173  1.0583  2.0348 -0.1280
 2808TIP3    H2 8431   2.661   4.837   4.299  0.5632 -1.2199 -1.5903
 2809TIP3   OH2 8432   4.068   2.129   1.869 -0.2374  0.4063  0.5743
 2809TIP3    H1 8433   4.085   2.036   1.885 -0.5508 -0.0680 -1.4786
 2809TIP3    H2 8434   4.017   2.157   1.945  2.5840 -0.1993  2.8565
 2810TIP3   OH2 8435   2.538   5.490   2.314 -0.0519  0.4163 -0.6211
 2810TIP3    H1 8436   2.469   5.547   2.279 -0.1107 -0.2665 -1.6592
 2810TIP3    H2 8437   2.552   5.523   2.403 -1.1144  1.1133 -0.6789
 2811TIP3   OH2 8438   2.729   1.164   4.373  0.0521  0.6174 -0.3264
 2811TIP3    H1 8439   2.745   1.259   4.367  0.6510  0.4873 -0.9746
 2811TIP3    H2 8440   2.671   1.145   4.299  0.2890  0.4105 -0.4595
 2812TIP3   OH2 8441   2.196   0.232   4.037  0.1873 -0.3162  0.0342
 2812TIP3    H1 8442   2.210   0.137   4.037  0.7993 -0.2508 -1.3882
 2812TIP3    H2 8443   2.280   0.269   4.064 -0.6533 -0.1806  2.7878
 2813TIP3   OH2 8444   3.455   5.239   4.973 -0.5683  0.5486  0.1234
 2813TIP3    H1 8445   3.385   5.304   4.971 -0.6301  0.4666 -0.5126
 2813TIP3    H2 8446   3.502   5.252   4.891  0.2563  0.7006  0.6056
 2814TIP3   OH2 8447   4.866   5.935   0.121 -0.2889 -0.7954 -0.0786
 2814TIP3    H1 8448   4.789   5.993   0.120 -0.9076 -1.4389  2.6435
 2814TIP3    H2 8449   4.933   5.984   0.074 -2.0768  0.1658 -1.7690
 2815TIP3   OH2 8450   5.151   3.242   0.147 -0.2869  0.5114 -0.4171
 2815TIP3    H1 8451   5.148   3.253   0.052 -0.6399  0.7073 -0.3867
 2815TIP3    H2 8452   5.060   3.253   0.175  0.0875  2.4688  0.1556
 2816TIP3   OH2 8453   0.825   2.124   1.498 -0.0849 -0.5380 -0.0864
 2816TIP3    H1 8454   0.768   2.049   1.487  1.8002 -2.4327  2.0671
 2816TIP3    H2 8455   0.907   2.098   1.458  0.7332  0.1605  1.0671
 2817TIP3   OH2 8456   6.171   3.665   1.288  0.0884 -0.0314 -0.5321
 2817TIP3    H1 8457   6.132   3.581   1.266  0.1837 -0.2211  0.0203
 2817TIP3    H2 8458   6.145   3.723   1.216  2.9665 -1.3758 -2.8627
 2818TIP3   OH2 8459   5.275   4.844   3.594  0.3881 -0.0234 -0.1023
 2818TIP3    H1 8460   5.321   4.823   3.675  0.6678  1.5667  0.1982
 2818TIP3    H2 8461   5.182   4.842   3.618  0.5099  1.9955  0.7277
 2819TIP3   OH2 8462   0.010   0.380   0.877  0.5246 -0.1073  0.3625
 2819TIP3    H1 8463  -0.062   0.387   0.940 -1.1506  2.8875 -1.5970
 2819TIP3    H2 8464   0.082   0.430   0.916  0.3452 -0.2746  0.9133
 2820TIP3   OH2 8465   1.147   5.682   4.512  0.3613  0.1584  0.4918
 2820TIP3    H1 8466   1.140   5.629   4.591  0.0013 -0.0073  0.3534
 2820TIP3    H2 8467   1.241   5.690   4.496  0.4307 -1.3381 -0.0782
 2821TIP3   OH2 8468   1.719   5.926   3.890  0.8119 -0.2876  0.1972
 2821TIP3    H1 8469   1.664   5.990   3.845 -1.1478 -0.9612  1.5037
 2821TIP3    H2 8470   1.659   5.856   3.915  2.3401 -1.2458  1.3870
 2822TIP3   OH2 8471   2.060   3.527   2.528 -0.4134 -0.5938 -0.0446
 2822TIP3    H1 8472   2.058   3.537   2.623  1.8204 -0.8951  0.0834
 2822TIP3    H2 8473   2.071   3.433   2.514  0.4184 -0.4285 -0.5532
 2823TIP3   OH2 8474   0.712   2.899   0.612  0.0311  1.3369 -0.4523
 2823TIP3    H1 8475   0.627   2.913   0.571 -0.9445 -0.9851  0.5631
 2823TIP3    H2 8476   0.776   2.923   0.545 -1.4288  1.8932 -1.7011
 2824TIP3   OH2 8477   5.707   5.369   3.074  0.3320  0.4643 -0.5347
 2824TIP3    H1 8478   5.681   5.399   3.161  1.6295 -0.1565  0.0885
 2824TIP3    H2 8479   5.742   5.282   3.088 -1.3459 -0.5117 -2.0031
 2825TIP3   OH2 8480   1.261   4.338   0.516  0.2400 -0.3754 -0.0809
 2825TIP3    H1 8481   1.231   4.308   0.430 -0.0921 -1.0023  0.2428
 2825TIP3    H2 8482   1.345   4.380   0.499  0.5684 -1.2146 -0.6099
 2826TIP3   OH2 8483   2.702   0.808   1.253  0.3599 -0.3160 -0.4677
 2826TIP3    H1 8484   2.674   0.790   1.163  0.4393  0.3498 -0.6332
 2826TIP3    H2 8485   2.766   0.740   1.273  1.7890  0.6440 -1.6005
 2827TIP3   OH2 8486   4.474   2.182   0.103  0.4023  0.2471  0.1500
 2827TIP3    H1 8487   4.474   2.231   0.021  1.0471 -0.3742 -0.2240
 2827TIP3    H2 8488   4.486   2.249   0.170  2.3791  0.5219 -0.4243
 2828TIP3   OH2 8489   4.866   5.065   4.504  0.0515 -0.2270  0.1118
 2828TIP3    H1 8490   4.899   5.153   4.487  1.0496 -0.2022  1.8871
 2828TIP3    H2 8491   4.895   5.014   4.428  0.9263  0.6135 -0.1470
 2829TIP3   OH2 8492   3.200   3.339   4.517 -0.5125  0.5767  0.3432
 2829TIP3    H1 8493   3.247   3.280   4.577  2.6720  1.7178 -0.8374
 2829TIP3    H2 8494   3.241   3.323   4.432 -1.6464  2.3839 -0.5818
 2830TIP3   OH2 8495   4.196   3.264   3.624 -0.3228  0.0032 -0.0430
 2830TIP3    H1 8496   4.117   3.307   3.656  0.5308  0.7739  1.1115
 2830TIP3    H2 8497   4.264   3.289   3.686  0.4410 -2.1823  0.1004
 2831TIP3   OH2 8498   6.171   1.859   3.927 -0.4652  0.0839 -0.4856
 2831TIP3    H1 8499   6.223   1.939   3.920 -0.1398 -0.1945 -1.6338
 2831TIP3    H2 8500   6.228   1.797   3.972 -0.8547  0.5861  0.7403
 2832TIP3   OH2 8501   0.182   2.868   4.764  0.3979 -0.3445  0.6172
 2832TIP3    H1 8502   0.110   2.848   4.823 -0.6264 -1.1147 -0.8273
 2832TIP3    H2 8503   0.158   2.951   4.722  0.2032 -0.7273 -0.0516
 2833TIP3   OH2 8504   3.857   0.266   4.531 -0.6343 -0.4707 -0.1020
 2833TIP3    H1 8505   3.812   0.298   4.609  0.0364  0.6896 -0.1609
 2833TIP3    H2 8506   3.901   0.186   4.560 -1.2593 -0.6356  0.4180
 2834TIP3   OH2 8507   1.402   5.637   2.387  0.8374  0.2026  0.1533
 2834TIP3    H1 8508   1.454   5.579   2.443  0.1812 -0.9512 -0.3772
 2834TIP3    H2 8509   1.466   5.675   2.326  1.4145  0.7653  1.0944
 2835TIP3   OH2 8510   1.329   0.490   1.739  0.0447  0.1649  0.1642
 2835TIP3    H1 8511   1.296   0.448   1.660 -0.2656 -0.8669  0.8300
 2835TIP3    H2 8512   1.390   0.557   1.707 -0.4285  0.0759 -0.9553
 2836TIP3   OH2 8513   0.231   2.990   5.099 -0.0018 -0.0618  1.0765
 2836TIP3    H1 8514   0.178   2.911   5.088 -0.1496  0.1362  0.2533
 2836TIP3    H2 8515   0.174   3.061   5.068 -0.1131  0.4576  2.4343
 2837TIP3   OH2 8516   1.170   0.611   2.848  0.7136  0.2618 -0.3992
 2837TIP3    H1 8517   1.178   0.529   2.897 -0.0796  0.4586  0.0778
 2837TIP3    H2 8518   1.160   0.583   2.757  3.5253 -0.0763 -0.6811
 2838TIP3   OH2 8519   3.279   3.909   0.560 -0.1780  0.2648 -0.4922
 2838TIP3    H1 8520   3.214   3.869   0.618  0.6341 -0.4093 -0.0153
 2838TIP3    H2 8521   3.282   4.000   0.587 -0.9515  0.3129 -0.5451
 2839TIP3   OH2 8522   2.698   3.847   4.705 -0.0560  0.0721  0.0931
 2839TIP3    H1 8523   2.729   3.760   4.678 -1.9106 -0.4476 -0.5536
 2839TIP3    H2 8524   2.635   3.830   4.775  2.6996  1.2548  3.0842
 2840TIP3   OH2 8525   3.253   3.381   4.219 -0.3984  0.1701  0.0006
 2840TIP3    H1 8526   3.288   3.467   4.197  0.7161 -0.5543 -1.1694
 2840TIP3    H2 8527   3.164   3.382   4.185  0.3503  0.0906 -2.0746
 2841TIP3   OH2 8528   3.127   5.994   3.948  0.3468 -0.4726 -0.0463
 2841TIP3    H1 8529   3.070   5.942   3.892  0.0032 -0.0003 -0.1401
 2841TIP3    H2 8530   3.190   5.931   3.983  0.0887 -0.9061 -0.3516
 2842TIP3   OH2 8531   2.321   1.625   4.621 -0.5910  0.0750 -0.2708
 2842TIP3    H1 8532   2.380   1.572   4.676 -0.2883  0.5504 -0.1327
 2842TIP3    H2 8533   2.302   1.702   4.674 -1.6824 -0.2656 -0.1470
 2843TIP3   OH2 8534   3.635   2.775   2.432 -0.3570  0.3343  0.1427
 2843TIP3    H1 8535   3.634   2.679   2.436  0.0437  0.2623 -1.0732
 2843TIP3    H2 8536   3.547   2.799   2.403 -0.0541  0.2361 -0.9093
 2844TIP3   OH2 8537   3.908   3.819   1.988  0.2467 -0.3818  0.4323
 2844TIP3    H1 8538   3.904   3.736   2.035 -0.6088  0.4319  1.8518
 2844TIP3    H2 8539   3.849   3.807   1.913  0.4195 -1.1775  0.4237
 2845TIP3   OH2 8540   5.573   0.656   0.163  0.4121 -0.2014 -0.8389
 2845TIP3    H1 8541   5.647   0.606   0.197  1.2711  1.6128  0.0869
 2845TIP3    H2 8542   5.608   0.705   0.089  0.1146  0.5783 -0.4724
 2846TIP3   OH2 8543   0.664   5.931   2.489 -0.4645 -0.3296 -0.5333
 2846TIP3    H1 8544   0.598   5.987   2.449  0.5800  0.8009 -0.7420
 2846TIP3    H2 8545   0.735   5.991   2.513 -0.9665 -0.9061  2.9969
 2847TIP3   OH2 8546   5.547   3.374   2.479  0.4980  0.6819 -0.3768
 2847TIP3    H1 8547   5.569   3.288   2.514 -1.5312 -0.1954 -1.1254
 2847TIP3    H2 8548   5.576   3.435   2.546  0.4079 -0.6977  0.9681
 2848TIP3   OH2 8549   0.855   3.313   3.776  0.3390  0.8922 -0.7446
 2848TIP3    H1 8550   0.831   3.320   3.868 -0.2484  2.1795 -0.9652
 2848TIP3    H2 8551   0.778   3.347   3.729  1.2412  1.7822 -1.6272
 2849TIP3   OH2 8552   0.796   5.052   1.136  0.3205  0.3693 -0.0448
 2849TIP3    H1 8553   0.887   5.029   1.118  0.5821  2.4202 -1.6864
 2849TIP3    H2 8554   0.748   4.969   1.125  1.9935 -0.8621  1.3775
 2850TIP3   OH2 8555   5.290   2.758   4.283  0.4281  0.7912 -0.0977
 2850TIP3    H1 8556   5.370   2.757   4.337 -0.5802  1.4858  1.4811
 2850TIP3    H2 8557   5.306   2.826   4.218  0.5203  2.1099  1.2427
 2851TIP3   OH2 8558   5.472   0.385   2.823  0.2481  0.1876  0.1383
 2851TIP3    H1 8559   5.436   0.473   2.813 -0.3849  0.0386  1.0177
 2851TIP3    H2 8560   5.517   0.368   2.740  1.0317  1.6315  0.2401
 2852TIP3   OH2 8561   5.539   3.068   1.335 -0.2540 -0.2037 -0.4550
 2852TIP3    H1 8562   5.581   3.134   1.280 -1.8234  0.5616 -0.8121
 2852TIP3    H2 8563   5.445   3.081   1.320 -0.7483 -0.1942  2.1574
 2853TIP3   OH2 8564   0.081   5.712   4.989  0.0548 -0.2377  0.0167
 2853TIP3    H1 8565   0.145   5.750   4.929  1.1058 -0.6817  0.8216
 2853TIP3    H2 8566   0.005   5.692   4.934  0.4921  0.5565 -0.9065
 2854TIP3   OH2 8567   1.200   1.183   2.594 -0.4185 -0.1634 -0.5459
 2854TIP3    H1 8568   1.274   1.147   2.644 -0.7255 -2.0608 -1.4036
 2854TIP3    H2 8569   1.154   1.107   2.560 -0.3727  1.0192 -3.5547
 2855TIP3   OH2 8570   2.224   3.159   2.673 -0.1119 -1.3037 -0.0048
 2855TIP3    H1 8571   2.171   3.095   2.722  0.8162 -1.8938  0.2559
 2855TIP3    H2 8572   2.292   3.186   2.735 -0.1540 -0.4859 -0.3064
 2856TIP3   OH2 8573   4.802   0.461   1.500  0.3555 -0.0799  0.3573
 2856TIP3    H1 8574   4.799   0.505   1.415  0.4704  0.1229  0.4604
 2856TIP3    H2 8575   4.775   0.528   1.563  0.5939 -0.1383  0.5208
 2857TIP3   OH2 8576   2.628   0.990   1.456 -0.2151 -0.3238 -0.1642
 2857TIP3    H1 8577   2.720   0.997   1.481  0.1546  0.2436 -1.6123
 2857TIP3    H2 8578   2.628   0.943   1.373 -1.3504 -1.4387  0.4177
 2858TIP3   OH2 8579   6.171   5.057   4.186  0.0387  0.0470  0.2481
 2858TIP3    H1 8580   6.244   4.997   4.169 -0.5443 -0.4322 -0.6703
 2858TIP3    H2 8581   6.208   5.144   4.174  0.5549 -0.1780  0.1878
 2859TIP3   OH2 8582   3.538   2.766   1.154 -0.3174  0.6586 -0.6183
 2859TIP3    H1 8583   3.517   2.813   1.074 -1.9051  0.7592 -0.1942
 2859TIP3    H2 8584   3.569   2.833   1.214 -1.1586  0.9405 -0.4885
 2860TIP3   OH2 8585   4.908   0.846   4.317  0.0816 -0.5826 -0.7374
 2860TIP3    H1 8586   4.934   0.767   4.271 -2.3171 -1.6432 -0.4294
 2860TIP3    H2 8587   4.941   0.834   4.406 -0.2419 -1.2368 -0.7032
 2861TIP3   OH2 8588   1.486   1.860   4.638 -0.2138  0.4371 -0.4031
 2861TIP3    H1 8589   1.469   1.838   4.547 -0.2766  1.5756 -0.6842
 2861TIP3    H2 8590   1.525   1.948   4.634  0.6484  0.1216  0.5993
 2862TIP3   OH2 8591   5.270   2.214   0.182 -0.4279 -0.1857  0.3416
 2862TIP3    H1 8592   5.256   2.305   0.158  0.8580 -0.2126 -0.5667
 2862TIP3    H2 8593   5.221   2.203   0.264 -2.4437  0.7112 -0.6541
 2863TIP3   OH2 8594   2.125   4.880   0.250  0.1606 -0.5627 -0.1807
 2863TIP3    H1 8595   2.061   4.822   0.291  1.2203 -1.9799 -0.4485
 2863TIP3    H2 8596   2.120   4.961   0.300 -0.9174 -1.0869  0.6087
 2864TIP3   OH2 8597   4.593   4.921   4.350  0.2757  0.4326 -0.2175
 2864TIP3    H1 8598   4.582   4.844   4.295  1.6139  1.1792 -1.6083
 2864TIP3    H2 8599   4.658   4.894   4.416 -0.4297 -0.0884  0.2784
 2865TIP3   OH2 8600   0.879   2.542   0.749  0.0482  0.1290  0.7715
 2865TIP3    H1 8601   0.963   2.545   0.702 -0.3955  1.2370  0.0048
 2865TIP3    H2 8602   0.813   2.548   0.680 -0.7064 -1.5672  1.2905
 2866TIP3   OH2 8603   5.662   0.927   3.605  0.0123  0.1608  0.8537
 2866TIP3    H1 8604   5.681   0.979   3.683 -0.0156  0.6798  0.5207
 2866TIP3    H2 8605   5.748   0.907   3.568  0.0219  2.5824 -0.7015
 2867TIP3   OH2 8606   3.268   1.297   2.435  0.3425  0.2634 -0.1297
 2867TIP3    H1 8607   3.205   1.355   2.394  0.7186  0.0895 -0.9828
 2867TIP3    H2 8608   3.282   1.227   2.370  0.3533 -0.4483  0.6246
 2868TIP3   OH2 8609   5.520   1.263   2.578 -0.6162  0.1562  0.4802
 2868TIP3    H1 8610   5.531   1.223   2.492 -0.2565  0.1751  0.5155
 2868TIP3    H2 8611   5.425   1.272   2.589 -0.8938 -2.7984  1.4493
 2869TIP3   OH2 8612   0.137   4.135   5.053 -0.1333 -0.2772  0.4738
 2869TIP3    H1 8613   0.106   4.190   4.981  1.0616 -0.1959 -0.0081
 2869TIP3    H2 8614   0.172   4.057   5.009 -1.4774 -1.2735  1.1253
 2870TIP3   OH2 8615   3.911   5.503   0.928  0.6728 -0.2037 -0.4457
 2870TIP3    H1 8616   3.970   5.428   0.926 -1.6569 -2.2265  1.4415
 2870TIP3    H2 8617   3.966   5.577   0.901  3.7568 -2.0993  0.1676
 2871TIP3   OH2 8618   4.916   0.714   0.254 -0.0303 -0.6844 -0.7845
 2871TIP3    H1 8619   4.877   0.628   0.272 -2.5889  0.8154  1.7646
 2871TIP3    H2 8620   4.869   0.745   0.177 -0.7903 -0.6720 -0.3291
 2872TIP3   OH2 8621   1.764   4.152   0.489 -0.2134 -0.2679  0.2792
 2872TIP3    H1 8622   1.715   4.230   0.462 -0.4006 -0.0595  1.2021
 2872TIP3    H2 8623   1.830   4.185   0.549 -0.6083 -0.8827  1.0557
 2873TIP3   OH2 8624   1.530   0.138   0.407 -0.1240  0.7191 -0.3497
 2873TIP3    H1 8625   1.514   0.230   0.426 -1.3604  0.7379 -1.3746
 2873TIP3    H2 8626   1.604   0.138   0.346  1.7329  0.8281  1.7712
 2874TIP3   OH2 8627   3.716   5.531   2.221 -0.1239 -0.2413  0.3779
 2874TIP3    H1 8628   3.673   5.566   2.143 -0.0257 -2.4353 -0.7462
 2874TIP3    H2 8629   3.645   5.518   2.284 -0.5986 -0.6699 -0.2324
 2875TIP3   OH2 8630   4.766   4.838   0.582 -0.6458  0.4160  1.1254
 2875TIP3    H1 8631   4.846   4.860   0.630 -0.3433 -0.2777  0.9486
 2875TIP3    H2 8632   4.797   4.809   0.496 -1.2657  3.6498 -0.3379
 2876TIP3   OH2 8633   3.851   2.340   5.205  0.4040 -0.3686 -0.1681
 2876TIP3    H1 8634   3.758   2.324   5.217  0.4097 -0.0605  0.2988
 2876TIP3    H2 8635   3.867   2.322   5.112  0.0465 -1.2246 -0.0709
 2877TIP3   OH2 8636   5.050   4.939   3.744  0.6041 -0.0411  0.1613
 2877TIP3    H1 8637   5.099   4.914   3.822 -1.5193  0.7925  1.8817
 2877TIP3    H2 8638   4.977   4.992   3.778 -2.0394 -1.9774 -2.0689
 2878TIP3   OH2 8639   5.174   4.257   1.097  0.0244 -0.6060 -0.0863
 2878TIP3    H1 8640   5.087   4.257   1.057  0.4875 -0.2368 -1.1377
 2878TIP3    H2 8641   5.226   4.316   1.041  0.4138  0.8828  1.7426
 2879TIP3   OH2 8642   3.176   4.976   4.849  0.2014 -0.1598 -0.3514
 2879TIP3    H1 8643   3.251   5.004   4.797  0.2738 -0.2073 -0.2732
 2879TIP3    H2 8644   3.186   4.881   4.856  1.3429  0.0441  1.5146
 2880TIP3   OH2 8645   2.574   1.892   2.490 -0.8203  0.0994  0.4081
 2880TIP3    H1 8646   2.650   1.835   2.483  0.3041  1.5123  0.6667
 2880TIP3    H2 8647   2.528   1.861   2.568 -0.7742 -1.0542 -0.0082
 2881TIP3   OH2 8648   3.552   0.177   4.215 -0.2497 -0.7292 -0.5440
 2881TIP3    H1 8649   3.465   0.138   4.215 -0.1017 -1.0662 -0.3435
 2881TIP3    H2 8650   3.610   0.106   4.191  0.1481 -0.9469  0.9258
 2882TIP3   OH2 8651   0.412   4.988   3.264 -0.2938 -0.3902 -0.4436
 2882TIP3    H1 8652   0.344   4.921   3.261  0.1656 -0.9595  0.7268
 2882TIP3    H2 8653   0.417   5.012   3.357 -0.5910  1.4472 -0.8689
 2883TIP3   OH2 8654   3.926   1.760   2.765  0.3142  0.1870  0.0666
 2883TIP3    H1 8655   3.962   1.676   2.737  0.3171  0.0667  0.4248
 2883TIP3    H2 8656   3.949   1.767   2.857 -3.5464 -1.5834  1.3755
 2884TIP3   OH2 8657   5.986   5.257   1.829 -0.8522  0.0997 -0.1640
 2884TIP3    H1 8658   5.989   5.231   1.737 -1.5079 -1.8956  0.3277
 2884TIP3    H2 8659   5.912   5.209   1.865  0.2848 -0.3340  1.7350
 2885TIP3   OH2 8660   5.966   4.556   2.211  0.0329  0.1143 -0.4860
 2885TIP3    H1 8661   5.914   4.476   2.216 -1.1224  0.7914 -1.1051
 2885TIP3    H2 8662   6.053   4.526   2.184  0.1449 -1.1009  1.0873
 2886TIP3   OH2 8663   1.474   5.494   4.202  0.3269  0.2039  0.4291
 2886TIP3    H1 8664   1.423   5.436   4.258  1.0900  0.6954  1.6739
 2886TIP3    H2 8665   1.563   5.489   4.236  0.8185  0.5266 -0.7491
 2887TIP3   OH2 8666   4.132   2.890   1.915  0.0956  0.0355  0.9484
 2887TIP3    H1 8667   4.105   2.867   2.004  2.5992 -1.0057  1.5287
 2887TIP3    H2 8668   4.198   2.958   1.927  0.0637  0.2786 -0.1558
 2888TIP3   OH2 8669   5.540   3.988   1.104 -0.9370  0.1926  0.2161
 2888TIP3    H1 8670   5.503   4.026   1.025 -1.5878  2.4150  1.4950
 2888TIP3    H2 8671   5.464   3.950   1.150 -0.8197  0.2806  0.4851
 2889TIP3   OH2 8672   3.228   2.809   2.883 -0.5109  0.4788  0.5999
 2889TIP3    H1 8673   3.308   2.756   2.878 -1.1168 -0.3619 -1.0236
 2889TIP3    H2 8674   3.230   2.848   2.970  0.6410 -1.1609  1.3559
 2890TIP3   OH2 8675   4.388   0.702   0.620  0.2911 -0.8219 -0.0278
 2890TIP3    H1 8676   4.334   0.758   0.565 -0.1034 -1.2331 -0.0672
 2890TIP3    H2 8677   4.458   0.671   0.562  2.7757  2.5494  0.8375
 2891TIP3   OH2 8678   2.726   4.845   1.363  0.1749 -0.0887 -0.0576
 2891TIP3    H1 8679   2.732   4.781   1.292 -0.6743 -0.0936 -0.1433
 2891TIP3    H2 8680   2.745   4.796   1.443 -0.6554 -0.4955 -0.1019
 2892TIP3   OH2 8681   4.765   3.165   3.417 -0.4051  0.0808  0.2626
 2892TIP3    H1 8682   4.676   3.187   3.444 -0.0273  1.0036  0.8048
 2892TIP3    H2 8683   4.788   3.233   3.353 -0.4095 -0.6845 -0.5721
 2893TIP3   OH2 8684   5.736   5.997   0.088 -0.2803 -0.4967 -0.4762
 2893TIP3    H1 8685   5.792   6.011   0.164 -1.5553  0.0984  0.3935
 2893TIP3    H2 8686   5.747   5.904   0.068 -0.0532 -0.7112  0.5553
 2894TIP3   OH2 8687   1.897   1.921   2.776  0.7208  0.4229  0.2981
 2894TIP3    H1 8688   1.922   1.869   2.852 -0.2502 -0.6906 -0.1152
 2894TIP3    H2 8689   1.941   2.005   2.789  0.7101  0.2003  1.9930
 2895TIP3   OH2 8690   4.656   4.098   3.898  0.2790  0.1902  0.3382
 2895TIP3    H1 8691   4.598   4.028   3.928  1.2405 -1.0585 -0.6367
 2895TIP3    H2 8692   4.642   4.103   3.804 -1.5960  3.0528  0.6203
 2896TIP3   OH2 8693   5.061   2.781   4.788  0.4299 -0.0891 -0.3981
 2896TIP3    H1 8694   5.016   2.799   4.871 -0.8632  0.7369 -1.2508
 2896TIP3    H2 8695   5.147   2.822   4.799  0.2693  0.0386  0.5214
 2897TIP3   OH2 8696   2.624   5.735   2.919 -0.3529  0.2024  0.1056
 2897TIP3    H1 8697   2.566   5.701   2.987  0.7873 -1.4117  0.3051
 2897TIP3    H2 8698   2.686   5.665   2.902  0.0107  0.9308 -1.9176
 2898TIP3   OH2 8699   5.611   1.359   3.984 -0.5042  0.4802 -0.3036
 2898TIP3    H1 8700   5.589   1.429   3.923  1.4258 -0.5488 -2.3486
 2898TIP3    H2 8701   5.707   1.353   3.981 -0.2976  0.3555  2.9072
 2899TIP3   OH2 8702   2.229   2.885   1.009  0.6959 -0.3860  0.5443
 2899TIP3    H1 8703   2.245   2.940   0.932 -1.8883  0.7489  0.6964
 2899TIP3    H2 8704   2.271   2.802   0.989  1.8478  0.5535 -1.1683
 2900TIP3   OH2 8705   6.026   3.351   3.193 -0.2440  0.0164 -0.3974
 2900TIP3    H1 8706   6.038   3.380   3.103  0.9979  1.7882  0.2925
 2900TIP3    H2 8707   5.967   3.416   3.232 -0.0303 -0.2084  0.3261
 2901TIP3   OH2 8708   2.715   1.490   1.125  0.2858 -0.2230 -0.0893
 2901TIP3    H1 8709   2.779   1.460   1.061  0.3226  1.9602 -1.1585
 2901TIP3    H2 8710   2.763   1.550   1.182 -0.3647 -0.0168  0.2604
 2902TIP3   OH2 8711   0.507   0.253   1.928 -0.0672 -0.3924  0.4798
 2902TIP3    H1 8712   0.454   0.246   2.007 -0.5792  0.7855  0.2624
 2902TIP3    H2 8713   0.508   0.347   1.908  1.6448 -0.4541  0.1644
 2903TIP3   OH2 8714   4.807   2.059   4.909 -0.5824  0.3614 -0.6353
 2903TIP3    H1 8715   4.714   2.075   4.893 -0.2935  3.0638 -0.1210
 2903TIP3    H2 8716   4.852   2.119   4.849  0.7530  1.0118  0.9495
 2904TIP3   OH2 8717   4.258   0.682   3.671  0.0360  0.1317 -0.5670
 2904TIP3    H1 8718   4.271   0.675   3.576 -3.3073 -1.8934 -1.0413
 2904TIP3    H2 8719   4.190   0.749   3.681 -0.8132 -0.8209  0.2301
 2905TIP3   OH2 8720   5.526   3.397   0.179  0.0687 -0.2528  0.0606
 2905TIP3    H1 8721   5.547   3.490   0.187  1.2418 -0.3949 -1.1268
 2905TIP3    H2 8722   5.569   3.357   0.254 -0.0382  0.0995  0.3154
 2906TIP3   OH2 8723   0.351   1.209   3.392 -0.1264  0.6424 -0.9257
 2906TIP3    H1 8724   0.381   1.120   3.412 -0.8585  0.5857 -0.0303
 2906TIP3    H2 8725   0.422   1.247   3.340  1.2090  0.2896  0.5722
 2907TIP3   OH2 8726   4.728   5.436   3.251 -0.1232 -0.2463 -0.1938
 2907TIP3    H1 8727   4.723   5.497   3.325 -0.6089 -0.7585  0.2001
 2907TIP3    H2 8728   4.778   5.362   3.284  0.3384 -0.1281 -0.6271
 2908TIP3   OH2 8729   0.737   2.290   3.432  0.1355 -0.0508 -0.7138
 2908TIP3    H1 8730   0.747   2.310   3.339  0.9282 -0.1258 -0.6504
 2908TIP3    H2 8731   0.681   2.212   3.434  1.4612 -1.0386 -1.2098
 2909TIP3   OH2 8732   3.865   4.640   4.004  0.1926  0.2961 -0.1827
 2909TIP3    H1 8733   3.953   4.676   3.989  1.0923 -2.0818 -1.0540
 2909TIP3    H2 8734   3.820   4.650   3.920  0.7866 -1.3516 -0.7442
 2910TIP3   OH2 8735   5.140   5.668   3.044 -0.3573 -0.3083 -0.0177
 2910TIP3    H1 8736   5.087   5.627   3.112 -0.2913 -1.7808 -0.8157
 2910TIP3    H2 8737   5.081   5.674   2.968 -0.1898  0.5771 -0.0925
 2911TIP3   OH2 8738   0.565   2.518   4.098  0.6223 -0.1706  0.4939
 2911TIP3    H1 8739   0.490   2.553   4.147  1.1922  0.6868  0.7719
 2911TIP3    H2 8740   0.605   2.595   4.057 -0.5000 -0.9515 -2.3289
 2912TIP3   OH2 8741   3.520   5.749   2.331  0.0019 -0.2117  0.1572
 2912TIP3    H1 8742   3.500   5.842   2.344 -0.1234 -0.1956 -0.1260
 2912TIP3    H2 8743   3.522   5.739   2.236 -1.4498 -0.8048  0.1605
 2913TIP3   OH2 8744   3.233   4.683   4.787  0.5194 -0.3932 -0.0768
 2913TIP3    H1 8745   3.192   4.610   4.833  1.0119 -1.1357 -0.8031
 2913TIP3    H2 8746   3.324   4.657   4.776  0.6067  0.1550 -0.7050
 2914TIP3   OH2 8747   2.373   1.980   0.937 -0.0501  0.1328  0.3106
 2914TIP3    H1 8748   2.310   1.910   0.921  1.0863 -0.9438  0.4297
 2914TIP3    H2 8749   2.370   2.032   0.857 -2.6568  1.4253  1.1311
 2915TIP3   OH2 8750   3.469   3.135   3.270 -0.2599  0.1039 -0.2271
 2915TIP3    H1 8751   3.525   3.132   3.347  1.0131  0.9324 -1.0634
 2915TIP3    H2 8752   3.380   3.142   3.304  0.1810 -0.7365  1.1429
 2916TIP3   OH2 8753   3.741   2.229   3.593  0.1218  0.2395 -0.2639
 2916TIP3    H1 8754   3.827   2.209   3.630 -0.4040  0.1633  0.9710
 2916TIP3    H2 8755   3.742   2.188   3.506  0.6263 -1.4786  0.5021
 2917TIP3   OH2 8756   6.305   1.355   5.112 -0.6061  0.2088  0.1602
 2917TIP3    H1 8757   6.218   1.350   5.071 -1.0747  1.6669  0.8924
 2917TIP3    H2 8758   6.287   1.372   5.204  0.4569  0.5257  0.3267
 2918TIP3   OH2 8759   5.511   2.278   4.209  0.3858  0.2585 -0.5055
 2918TIP3    H1 8760   5.606   2.264   4.217  0.1346 -2.9103 -1.7270
 2918TIP3    H2 8761   5.497   2.287   4.115 -0.6549 -0.8418 -0.4742
 2919TIP3   OH2 8762   3.527   5.925   5.115  1.0767  0.0676 -0.2443
 2919TIP3    H1 8763   3.443   5.914   5.071  1.4345  1.3301 -1.3139
 2919TIP3    H2 8764   3.506   5.933   5.208  0.1746 -1.2272 -0.3196
 2920TIP3   OH2 8765   3.960   5.471   0.411  0.1362 -0.2465  0.0945
 2920TIP3    H1 8766   3.946   5.561   0.439  0.6430 -0.3704  0.7904
 2920TIP3    H2 8767   3.957   5.420   0.492  1.6089 -0.6304 -0.0672
 2921TIP3   OH2 8768   4.916   1.129   1.870 -0.0054  0.2458  0.1432
 2921TIP3    H1 8769   4.905   1.133   1.775 -2.3577 -1.2363  0.2553
 2921TIP3    H2 8770   4.875   1.208   1.903  0.4401  0.5566 -0.0372
 2922TIP3   OH2 8771   2.463   3.441   3.202 -0.2977  0.3513  0.0958
 2922TIP3    H1 8772   2.483   3.396   3.284 -1.8288  1.2651  1.0328
 2922TIP3    H2 8773   2.517   3.519   3.202 -0.6211  0.5775  0.4675
 2923TIP3   OH2 8774   6.317   2.902   3.848 -0.1085 -0.9167  0.3981
 2923TIP3    H1 8775   6.242   2.887   3.791  0.7315 -1.2732 -0.6484
 2923TIP3    H2 8776   6.351   2.987   3.822 -0.6879 -0.3169  1.5191
 2924TIP3   OH2 8777   4.323   4.942   3.565 -0.2422 -0.0621  0.4705
 2924TIP3    H1 8778   4.285   4.857   3.543  0.3067  0.1603 -1.6131
 2924TIP3    H2 8779   4.271   5.005   3.514 -0.2676  0.7868  1.5269
 2925TIP3   OH2 8780   3.464   1.808   2.919 -0.3690  0.4983 -0.5084
 2925TIP3    H1 8781   3.390   1.748   2.932 -0.8524  1.0725 -0.5688
 2925TIP3    H2 8782   3.503   1.818   3.005  1.2290 -1.7816 -0.8441
 2926TIP3   OH2 8783   0.787   3.849   3.391  0.3565  0.4409 -0.1043
 2926TIP3    H1 8784   0.783   3.909   3.317  1.1634 -0.0067 -0.5225
 2926TIP3    H2 8785   0.880   3.845   3.413  0.5886 -2.0524 -1.2411
 2927TIP3   OH2 8786   2.814   1.711   1.298 -0.1454  0.9365  0.1744
 2927TIP3    H1 8787   2.820   1.777   1.228  0.8812 -0.1239 -0.7771
 2927TIP3    H2 8788   2.904   1.697   1.325 -0.2831 -0.4941 -0.0444
 2928TIP3   OH2 8789   1.008   1.229   0.858 -0.1692 -0.0308  0.1088
 2928TIP3    H1 8790   0.999   1.233   0.762 -1.2063 -1.0058  0.1477
 2928TIP3    H2 8791   1.102   1.231   0.873  0.0236 -0.4333 -0.9654
 2929TIP3   OH2 8792   4.177   3.259   3.999 -0.4176  0.4379 -0.4116
 2929TIP3    H1 8793   4.107   3.299   4.052  1.0090  0.1958  1.8090
 2929TIP3    H2 8794   4.158   3.166   4.001  0.3241  0.2928  0.8290
 2930TIP3   OH2 8795   4.597   2.843   2.320 -0.0530  0.3224 -0.5726
 2930TIP3    H1 8796   4.662   2.841   2.250  1.8064 -3.1638  0.9843
 2930TIP3    H2 8797   4.523   2.792   2.285  0.0220  0.2831 -0.6733
 2931TIP3   OH2 8798   2.450   0.611   1.215 -0.1012  0.5404 -0.0650
 2931TIP3    H1 8799   2.507   0.672   1.169 -0.9306 -0.6002 -2.7580
 2931TIP3    H2 8800   2.369   0.660   1.231 -0.1881  0.6464 -0.7995
 2932TIP3   OH2 8801   5.648   4.050   4.125  0.2780 -0.0149 -0.1868
 2932TIP3    H1 8802   5.588   4.034   4.052 -0.4105  0.5103  0.2451
 2932TIP3    H2 8803   5.647   3.968   4.175 -0.7526  0.2612  0.2759
 2933TIP3   OH2 8804   4.216   1.335   2.769 -0.1265  0.3025 -0.2325
 2933TIP3    H1 8805   4.304   1.303   2.747 -0.6859 -0.8913 -0.7768
 2933TIP3    H2 8806   4.201   1.304   2.858  0.1120  0.7428 -0.0386
 2934TIP3   OH2 8807   4.859   4.497   4.758  0.0676  0.0103 -0.9481
 2934TIP3    H1 8808   4.789   4.459   4.811 -0.5994 -0.2080 -1.9492
 2934TIP3    H2 8809   4.854   4.591   4.775  0.9897 -0.1958  0.6721
 2935TIP3   OH2 8810   5.592   4.603   0.725 -0.0554  0.2086 -0.5335
 2935TIP3    H1 8811   5.513   4.642   0.689 -0.2629 -0.8908 -1.3508
 2935TIP3    H2 8812   5.647   4.677   0.750 -0.8166  0.9902 -1.1295
 2936TIP3   OH2 8813   5.253   1.279   2.565  0.0717 -0.0535  0.9904
 2936TIP3    H1 8814   5.213   1.291   2.479  2.8441 -0.1851 -0.4351
 2936TIP3    H2 8815   5.183   1.244   2.619 -1.7928  0.0618 -1.1800
 2937TIP3   OH2 8816   1.478   1.977   0.743 -0.1041  0.1214  0.1940
 2937TIP3    H1 8817   1.542   2.048   0.749 -0.2611  0.2360  0.5189
 2937TIP3    H2 8818   1.421   2.003   0.670 -1.6762  1.5975  1.8121
 2938TIP3   OH2 8819   2.800   0.087   3.799  0.2594 -0.2299 -0.2053
 2938TIP3    H1 8820   2.818   0.135   3.880 -1.1933 -0.6260  0.3820
 2938TIP3    H2 8821   2.709   0.057   3.808 -0.3511  0.6834 -2.4608
 2939TIP3   OH2 8822   4.592   0.654   4.290 -0.1566  0.1417 -0.2495
 2939TIP3    H1 8823   4.597   0.719   4.219 -0.5327 -0.5023 -0.8818
 2939TIP3    H2 8824   4.507   0.613   4.279 -0.3667  0.2816  0.8167
 2940TIP3   OH2 8825   5.900   4.534   4.652  0.1293 -0.8754  0.6924
 2940TIP3    H1 8826   5.960   4.514   4.724  1.0615 -0.1903  0.1318
 2940TIP3    H2 8827   5.836   4.595   4.690  0.7324 -0.3627  0.9023
 2941TIP3   OH2 8828   5.243   2.362   4.420 -0.2065 -0.5277  0.6651
 2941TIP3    H1 8829   5.223   2.445   4.463  0.3518 -0.4855  0.8621
 2941TIP3    H2 8830   5.305   2.319   4.480  0.5955 -0.4636 -0.0989
 2942TIP3   OH2 8831   3.727   1.508   4.487  0.6095  0.0659 -0.1587
 2942TIP3    H1 8832   3.700   1.515   4.396  0.3649  1.1828 -0.0157
 2942TIP3    H2 8833   3.688   1.585   4.530  0.5773 -0.5263  0.9200
 2943TIP3   OH2 8834   4.883   0.050   4.591  0.2418 -0.6427 -0.4179
 2943TIP3    H1 8835   4.944  -0.024   4.604  0.1718 -0.4894  0.8957
 2943TIP3    H2 8836   4.903   0.081   4.503  1.0108 -1.5682 -0.5958
 2944TIP3   OH2 8837   5.102   5.122   4.862  0.1469  0.3873 -0.1209
 2944TIP3    H1 8838   5.072   5.092   4.776 -1.5090 -0.2627  0.6659
 2944TIP3    H2 8839   5.194   5.146   4.847  0.1329 -0.4838 -1.8747
 2945TIP3   OH2 8840   3.280   2.927   3.139  0.0826  0.8152  0.4678
 2945TIP3    H1 8841   3.194   2.955   3.171 -0.2726 -1.0966  1.3596
 2945TIP3    H2 8842   3.306   2.995   3.077 -2.0777  1.4664  0.1825
 2946TIP3   OH2 8843   6.061   5.838   1.099 -0.0695  0.6788  0.1598
 2946TIP3    H1 8844   6.079   5.789   1.019  0.4327  0.1562  0.5847
 2946TIP3    H2 8845   6.030   5.772   1.162 -1.7194  1.2759  0.0203
 2947TIP3   OH2 8846   0.957   1.121   4.798  1.0206  0.0262 -0.2056
 2947TIP3    H1 8847   1.038   1.170   4.812  0.0132  1.2114  2.0247
 2947TIP3    H2 8848   0.892   1.188   4.774  0.2249 -0.5837  0.1836
 2948TIP3   OH2 8849   1.456   3.900   1.495 -0.0708 -0.3901 -1.0109
 2948TIP3    H1 8850   1.457   3.887   1.400  0.1499  0.6453 -1.1643
 2948TIP3    H2 8851   1.498   3.822   1.531  1.5883  0.0578 -1.8801
 2949TIP3   OH2 8852   5.134   4.728   0.425  0.0377 -0.0990  0.1662
 2949TIP3    H1 8853   5.077   4.805   0.426  2.3453  1.7765  1.7949
 2949TIP3    H2 8854   5.097   4.671   0.492 -0.6253  0.5001  0.3328
 2950TIP3   OH2 8855   2.199   5.873   2.831 -0.2204  0.5616 -0.4372
 2950TIP3    H1 8856   2.199   5.793   2.779  1.0806  0.3285 -0.1088
 2950TIP3    H2 8857   2.171   5.941   2.770 -0.3030  0.0263 -1.0069
 2951TIP3   OH2 8858   5.031   4.639   4.497  0.1121 -0.1408  0.4702
 2951TIP3    H1 8859   5.123   4.664   4.511  0.3616  0.2903 -1.6342
 2951TIP3    H2 8860   5.017   4.567   4.558  1.8563 -0.2273  0.8339
 2952TIP3   OH2 8861   0.586   3.245   2.531 -0.1128  0.0467  0.0685
 2952TIP3    H1 8862   0.594   3.184   2.458  1.4375  0.2640  0.0357
 2952TIP3    H2 8863   0.673   3.284   2.540 -0.5384  0.7456  1.4066
 2953TIP3   OH2 8864   2.166   5.704   4.809  0.4698 -0.3101 -0.2603
 2953TIP3    H1 8865   2.193   5.646   4.738  0.9876  0.1160 -0.4250
 2953TIP3    H2 8866   2.101   5.763   4.769 -0.9165 -1.4799  0.1930
 2954TIP3   OH2 8867   3.665   3.059   2.492 -0.3253 -0.0721 -0.6404
 2954TIP3    H1 8868   3.640   3.066   2.400  0.1251 -1.0194 -0.8462
 2954TIP3    H2 8869   3.669   2.965   2.509 -2.1889  0.0568  0.8530
 2955TIP3   OH2 8870   5.193   0.440   0.533  0.0291 -0.2210  0.5078
 2955TIP3    H1 8871   5.207   0.526   0.571  1.2223 -1.4479  3.1374
 2955TIP3    H2 8872   5.098   0.430   0.528 -0.1227  1.2659 -0.0043
 2956TIP3   OH2 8873   1.592   3.220   1.821 -0.1039 -0.3547  0.3794
 2956TIP3    H1 8874   1.616   3.307   1.790  0.1269  0.5252  2.8210
 2956TIP3    H2 8875   1.560   3.175   1.743 -0.8467  2.1098 -0.8487
 2957TIP3   OH2 8876   4.426   3.080   1.427  0.1829 -0.5521  0.3480
 2957TIP3    H1 8877   4.375   3.080   1.508 -1.3774 -1.8830 -0.5683
 2957TIP3    H2 8878   4.409   3.166   1.388 -2.1610 -1.2729 -0.3575
 2958TIP3   OH2 8879   5.826   5.801   4.396  0.2664  0.0708  0.0436
 2958TIP3    H1 8880   5.757   5.832   4.338 -2.5086  1.1699  3.5478
 2958TIP3    H2 8881   5.802   5.712   4.419 -0.8610  0.8610  2.2403
 2959TIP3   OH2 8882   2.251   5.253   2.455  0.3658  0.4131  0.0001
 2959TIP3    H1 8883   2.222   5.176   2.505 -0.3413  0.8368  0.2629
 2959TIP3    H2 8884   2.343   5.236   2.436  0.2531 -0.4378  0.1705
 2960TIP3   OH2 8885   2.583   0.555   2.629 -0.1733 -0.2365  0.2757
 2960TIP3    H1 8886   2.542   0.528   2.711 -0.1749  1.2480  0.7866
 2960TIP3    H2 8887   2.671   0.583   2.655 -0.4937  1.1283 -0.0704
 2961TIP3   OH2 8888   6.166   5.684   2.894 -0.0944 -0.6400  1.0282
 2961TIP3    H1 8889   6.230   5.723   2.835 -0.0189 -1.2820  0.6763
 2961TIP3    H2 8890   6.140   5.755   2.952  0.6755 -0.2891  0.9464
 2962TIP3   OH2 8891   1.480   4.429   5.020  0.1554  0.4170  0.2050
 2962TIP3    H1 8892   1.573   4.429   5.042 -0.1246  1.3421  1.5241
 2962TIP3    H2 8893   1.462   4.340   4.990  2.0143  0.8870 -2.6945
 2963TIP3   OH2 8894   4.432   2.119   2.763 -0.4326  0.0138  0.0737
 2963TIP3    H1 8895   4.411   2.202   2.719 -2.3080 -0.4564  0.0326
 2963TIP3    H2 8896   4.407   2.052   2.700  1.4077 -0.6408 -0.0385
 2964TIP3   OH2 8897   6.344   0.963   4.267 -0.6998 -0.2320 -0.1484
 2964TIP3    H1 8898   6.368   1.044   4.314 -1.8594 -0.4152  0.8049
 2964TIP3    H2 8899   6.281   0.992   4.201 -0.4376 -0.2333 -0.3998
 2965TIP3   OH2 8900   5.613   2.164   1.329  1.0122  0.5907  0.3353
 2965TIP3    H1 8901   5.521   2.151   1.306  0.9545  1.8187 -0.2147
 2965TIP3    H2 8902   5.618   2.143   1.422  0.5778 -1.2865 -0.0120
 2966TIP3   OH2 8903   1.722   1.376   3.362 -0.2406 -0.3205 -0.7927
 2966TIP3    H1 8904   1.680   1.398   3.279  0.3823  1.1699 -0.7569
 2966TIP3    H2 8905   1.784   1.448   3.377 -1.5644  0.4076  1.8281
 2967TIP3   OH2 8906   0.082   0.059   1.644  0.2287 -0.4712 -0.3394
 2967TIP3    H1 8907   0.043   0.076   1.730  1.4416 -0.2556  0.1798
 2967TIP3    H2 8908   0.007   0.061   1.584 -0.8891 -2.1925  0.8898
 2968TIP3   OH2 8909   6.241   0.204   4.343 -0.6761  0.5807 -0.2877
 2968TIP3    H1 8910   6.160   0.233   4.386  0.5758  0.6992  2.1633
 2968TIP3    H2 8911   6.262   0.121   4.384  1.2512  1.2979  0.2577
 2969TIP3   OH2 8912   3.497   5.455   2.809  0.0011  0.4224  0.2301
 2969TIP3    H1 8913   3.588   5.448   2.780  0.2786  1.2067  0.8902
 2969TIP3    H2 8914   3.477   5.549   2.803 -1.4328  0.0604 -1.8737
 2970TIP3   OH2 8915   3.829   0.459   2.051  0.4864 -0.3984 -0.3781
 2970TIP3    H1 8916   3.812   0.550   2.074 -0.6670 -1.1548  2.0670
 2970TIP3    H2 8917   3.874   0.464   1.967  0.3390  2.4036 -0.3881
 2971TIP3   OH2 8918   0.456   2.723   0.296 -0.0918 -0.0042  0.1935
 2971TIP3    H1 8919   0.394   2.756   0.361 -0.3022  1.0289 -0.5118
 2971TIP3    H2 8920   0.414   2.738   0.212  1.2210  1.0159 -0.3202
 2972TIP3   OH2 8921   0.205   4.451   0.683  0.2182  0.4254  0.6052
 2972TIP3    H1 8922   0.226   4.490   0.768  1.3698  1.8327 -0.2658
 2972TIP3    H2 8923   0.133   4.391   0.701 -1.8634  3.1398  2.0270
 2973TIP3   OH2 8924   0.112   2.010   2.143 -0.4183 -0.1614 -0.1670
 2973TIP3    H1 8925   0.159   1.971   2.216 -0.4836  0.7134  0.3493
 2973TIP3    H2 8926   0.096   2.100   2.169 -0.3102  0.2114 -1.3270
 2974TIP3   OH2 8927   4.865   3.783   0.812  0.0319  0.4775 -0.4683
 2974TIP3    H1 8928   4.853   3.817   0.901 -1.4279  0.2261 -0.5438
 2974TIP3    H2 8929   4.959   3.771   0.803  0.5262  3.2728  0.0219
 2975TIP3   OH2 8930   0.057   0.417   0.121 -0.3165 -0.4256 -0.3916
 2975TIP3    H1 8931   0.144   0.452   0.103 -0.6545 -0.2088 -1.7406
 2975TIP3    H2 8932   0.024   0.390   0.035 -3.2609  3.4619 -0.7733
 2976TIP3   OH2 8933   4.057   3.138   2.748 -0.0309 -0.3192 -0.4571
 2976TIP3    H1 8934   4.022   3.157   2.661 -0.4397  0.1150 -0.2056
 2976TIP3    H2 8935   4.134   3.194   2.755  0.3781 -0.8318 -0.7817
 2977TIP3   OH2 8936   4.301   4.035   2.806 -0.4167 -0.1551  0.2600
 2977TIP3    H1 8937   4.343   4.078   2.732  0.0999 -1.4730 -0.2450
 2977TIP3    H2 8938   4.298   4.102   2.875  0.3233  0.6793 -0.5005
 2978TIP3   OH2 8939   2.496   2.171   2.013  0.4878  0.4011 -0.0778
 2978TIP3    H1 8940   2.571   2.115   1.995 -0.4355 -1.3627  1.2828
 2978TIP3    H2 8941   2.440   2.119   2.071 -2.0638  1.4311 -1.4528
 2979TIP3   OH2 8942   5.843   2.175   1.840 -0.2109  0.4496  0.1781
 2979TIP3    H1 8943   5.910   2.128   1.889 -0.9365  0.7198  1.4642
 2979TIP3    H2 8944   5.883   2.260   1.821  0.0529  0.3649  0.3485
 2980TIP3   OH2 8945   0.981   1.004   1.107 -0.7486 -0.2671  0.2481
 2980TIP3    H1 8946   1.030   1.080   1.074 -2.1779  1.5693  2.0569
 2980TIP3    H2 8947   0.905   0.997   1.048 -0.1739 -0.8912 -0.4425
 2981TIP3   OH2 8948   5.798   1.110   1.627  0.0386  0.2262  0.7651
 2981TIP3    H1 8949   5.892   1.131   1.627 -0.2565  1.8101  2.8236
 2981TIP3    H2 8950   5.781   1.076   1.714 -1.0461 -1.6577 -0.1164
 2982TIP3   OH2 8951   5.002   1.807   4.592  0.1506 -0.0743  0.4803
 2982TIP3    H1 8952   5.007   1.879   4.654  0.4710 -1.2432  1.8847
 2982TIP3    H2 8953   5.078   1.752   4.614  1.0429  0.1250 -1.8380
 2983TIP3   OH2 8954   2.976   0.665   3.311 -0.0280  0.1715  0.2932
 2983TIP3    H1 8955   3.016   0.624   3.234  0.1938 -1.6034  1.2856
 2983TIP3    H2 8956   3.031   0.741   3.329  1.4561 -0.8121  0.1488
 2984TIP3   OH2 8957   1.970   0.047   2.428 -0.3085  0.1904  0.0897
 2984TIP3    H1 8958   1.927   0.132   2.414  0.9348  0.6694 -1.1411
 2984TIP3    H2 8959   2.064   0.068   2.433 -0.0157 -1.0557  0.2583
 2985TIP3   OH2 8960   0.834   0.528   1.365 -0.1828  0.1206  0.3746
 2985TIP3    H1 8961   0.760   0.542   1.424  0.1712  1.0204  0.6203
 2985TIP3    H2 8962   0.896   0.597   1.387  0.5364 -0.3449 -0.1453
 2986TIP3   OH2 8963   1.881   3.589   4.582  0.1769 -0.7537  0.4954
 2986TIP3    H1 8964   1.853   3.671   4.623 -0.7058 -0.3494 -0.8506
 2986TIP3    H2 8965   1.805   3.531   4.593 -0.6964 -0.1445 -1.8493
 2987TIP3   OH2 8966   4.583   2.250   1.984 -0.4146  0.0899 -0.3572
 2987TIP3    H1 8967   4.667   2.261   1.940  0.0836  1.2045  0.8028
 2987TIP3    H2 8968   4.545   2.172   1.944  1.7675 -1.2372  0.0070
 2988TIP3   OH2 8969   3.214   3.671   0.397  0.0429 -0.3796 -0.1199
 2988TIP3    H1 8970   3.130   3.698   0.359 -0.1167  0.1903  0.6372
 2988TIP3    H2 8971   3.241   3.744   0.452  1.4145 -0.2290 -0.9217
 2989TIP3   OH2 8972   3.837   0.777   2.577  0.0333  0.5536 -0.6940
 2989TIP3    H1 8973   3.894   0.835   2.627  1.4860  0.0810 -1.7336
 2989TIP3    H2 8974   3.819   0.825   2.496  0.8945 -0.2556 -1.3787
 2990TIP3   OH2 8975   5.440   3.738   4.786  0.2047  0.1833 -0.2616
 2990TIP3    H1 8976   5.469   3.800   4.854 -0.1957 -0.8138  0.8598
 2990TIP3    H2 8977   5.379   3.680   4.831  0.4404 -0.9304 -1.3171
 2991TIP3   OH2 8978   0.065   1.095   1.792  0.2751 -0.1677  0.8381
 2991TIP3    H1 8979   0.158   1.103   1.809  0.8916 -0.3847 -1.9372
 2991TIP3    H2 8980   0.058   1.027   1.724 -1.9893 -0.7914  1.5797
 2992TIP3   OH2 8981   3.114   4.854   1.725 -0.3807  0.1618  0.1473
 2992TIP3    H1 8982   3.119   4.939   1.769 -2.7584  0.0704  0.7250
 2992TIP3    H2 8983   3.158   4.794   1.786 -1.0212  0.5486  1.0263
 2993TIP3   OH2 8984   0.481   4.042   3.183  0.0012 -0.6384 -0.6074
 2993TIP3    H1 8985   0.504   4.016   3.094  1.9278 -2.1639  0.2723
 2993TIP3    H2 8986   0.428   3.970   3.217 -0.4364 -0.2186 -0.3728
 2994TIP3   OH2 8987   6.053   2.117   3.186 -0.5206 -0.5050 -0.1250
 2994TIP3    H1 8988   6.013   2.032   3.205 -0.7212 -1.1003 -2.8194
 2994TIP3    H2 8989   5.978   2.174   3.168 -0.3238 -0.5380 -1.1073
 2995TIP3   OH2 8990   0.099   2.287   0.617  0.2637  0.6131  0.1883
 2995TIP3    H1 8991   0.075   2.376   0.643  0.5862  1.1299 -1.1809
 2995TIP3    H2 8992   0.071   2.281   0.525 -1.1427 -1.2267  0.6750
 2996TIP3   OH2 8993   3.045   4.300   1.100 -0.4497  0.4174  0.7810
 2996TIP3    H1 8994   3.048   4.215   1.142  0.4016  0.3551  0.6138
 2996TIP3    H2 8995   3.025   4.280   1.008  0.1309  0.3627  0.6631
 2997TIP3   OH2 8996   3.267   2.352   2.807  0.6022 -0.3383  0.0637
 2997TIP3    H1 8997   3.296   2.423   2.750 -2.6899  0.3452 -0.9878
 2997TIP3    H2 8998   3.236   2.284   2.747 -0.5941 -0.6892  1.0424
 2998TIP3   OH2 8999   3.515   0.416   3.531 -0.0572  0.0669  0.8318
 2998TIP3    H1 9000   3.506   0.325   3.561  1.5293 -0.3649  0.1186
 2998TIP3    H2 9001   3.535   0.465   3.611 -0.3454 -0.3020  1.1379
 2999TIP3   OH2 9002   0.201   4.209   2.581 -0.4507 -0.3449  0.4087
 2999TIP3    H1 9003   0.264   4.141   2.609  0.6102 -0.5241 -2.1865
 2999TIP3    H2 9004   0.118   4.162   2.573 -0.0518 -1.0138  0.0824
 3000TIP3   OH2 9005   0.226   4.213   4.088 -0.1465  0.0463  0.8335
 3000TIP3    H1 9006   0.169   4.260   4.148 -0.7451  0.5346 -0.0903
 3000TIP3    H2 9007   0.297   4.274   4.068 -0.1600  0.0303  0.7340
 3001TIP3   OH2 9008   5.128   2.850   0.820  0.1620  0.5243 -0.3421
 3001TIP3    H1 9009   5.078   2.850   0.901 -0.7183 -1.6550 -0.8162
 3001TIP3    H2 9010   5.198   2.914   0.834 -1.3744  1.9447  1.2079
 3002TIP3   OH2 9011   0.420   0.471   1.058 -0.5010 -0.0641 -0.3255
 3002TIP3    H1 9012   0.354   0.511   1.115  1.6889  2.4601  0.6583
 3002TIP3    H2 9013   0.443   0.540   0.996  0.3801 -1.2576 -1.3706
 3003TIP3   OH2 9014   4.032   0.376   1.058 -0.2277 -0.6470  0.4204
 3003TIP3    H1 9015   4.013   0.442   0.992 -0.9621 -0.2856  0.9725
 3003TIP3    H2 9016   4.106   0.327   1.023  1.0882  1.1745  0.4651
 3004TIP3   OH2 9017   1.896   0.172   2.056  0.2261  1.0570 -0.3495
 3004TIP3    H1 9018   1.853   0.149   1.973 -2.1562 -1.7802  1.4494
 3004TIP3    H2 9019   1.985   0.138   2.047 -0.2374  0.0696 -1.4885
 3005TIP3   OH2 9020   4.000   0.191   3.391 -0.3132  0.1139 -0.5067
 3005TIP3    H1 9021   3.967   0.252   3.325 -0.2409 -0.8506 -1.4733
 3005TIP3    H2 9022   3.952   0.110   3.374  0.4659 -0.4593 -0.0497
 3006TIP3   OH2 9023   4.737   2.293   3.456 -0.5913 -0.3153 -0.5528
 3006TIP3    H1 9024   4.760   2.331   3.541  0.9927  0.4977 -1.2989
 3006TIP3    H2 9025   4.686   2.215   3.477 -1.9365  0.9261  1.0906
 3007TIP3   OH2 9026   2.298   2.195   4.758  0.2638  1.1750 -0.0348
 3007TIP3    H1 9027   2.348   2.250   4.819  0.9247  0.5804 -0.0369
 3007TIP3    H2 9028   2.359   2.173   4.689  0.5986 -1.0985  0.8915
 3008TIP3   OH2 9029   4.501   4.219   1.396  0.5027 -0.0885  0.4800
 3008TIP3    H1 9030   4.522   4.273   1.320 -2.1952  0.8855  0.3428
 3008TIP3    H2 9031   4.496   4.130   1.361 -0.7617  0.3557 -0.5232
 3009TIP3   OH2 9032   3.819   3.699   2.784 -0.0958  0.2416 -0.5283
 3009TIP3    H1 9033   3.767   3.725   2.861  0.2174 -0.2514 -0.1469
 3009TIP3    H2 9034   3.903   3.742   2.796  0.1999 -0.4103 -0.2272
 3010TIP3   OH2 9035   4.650   4.732   3.643 -0.5251  0.6083  0.0876
 3010TIP3    H1 9036   4.616   4.754   3.730 -3.9528 -0.4272 -0.8230
 3010TIP3    H2 9037   4.745   4.747   3.650 -0.7343  1.2761  3.7264
 3011TIP3   OH2 9038   6.007   0.877   0.913  0.1214 -0.1021 -0.2744
 3011TIP3    H1 9039   5.967   0.947   0.963  1.3201  1.0468 -0.8588
 3011TIP3    H2 9040   5.933   0.832   0.872 -0.7174  0.3271  0.7211
 3012TIP3   OH2 9041   5.335   1.814   0.658 -0.2965  0.0198 -0.4981
 3012TIP3    H1 9042   5.240   1.813   0.669 -0.2724  1.2022 -0.0174
 3012TIP3    H2 9043   5.353   1.900   0.620  0.5292 -0.4556 -1.2155
 3013TIP3   OH2 9044   2.384   3.890   4.006  0.1350  0.0276  0.1294
 3013TIP3    H1 9045   2.355   3.803   3.978 -1.9368  0.0889  1.7398
 3013TIP3    H2 9046   2.432   3.926   3.932 -0.8687 -1.6419 -1.4005
 3014TIP3   OH2 9047   5.923   4.053   2.549  0.6515 -0.3430 -0.0153
 3014TIP3    H1 9048   5.934   4.148   2.555  1.2433 -0.4157  0.0713
 3014TIP3    H2 9049   5.872   4.030   2.627 -2.5657  0.3360 -1.7233
 3015TIP3   OH2 9050   4.144   0.327   1.664 -0.2788  0.2050 -0.5607
 3015TIP3    H1 9051   4.058   0.352   1.698  1.2242  1.2534  2.8982
 3015TIP3    H2 9052   4.178   0.266   1.729  2.5431  1.7299 -0.4597
 3016TIP3   OH2 9053   1.878   2.674   1.372 -0.0649  0.1581  0.1565
 3016TIP3    H1 9054   1.880   2.578   1.376  1.8642  0.1833  1.0753
 3016TIP3    H2 9055   1.971   2.699   1.372 -0.5484  2.0387  0.1049
 3017TIP3   OH2 9056   2.464   5.795   0.125 -0.1575  0.0424 -0.0647
 3017TIP3    H1 9057   2.528   5.850   0.169 -0.3558 -0.4322  0.8457
 3017TIP3    H2 9058   2.463   5.826   0.034 -0.3992  1.6657  0.4584
 3018TIP3   OH2 9059   1.946   3.218   1.078  0.2882 -0.4326  0.3127
 3018TIP3    H1 9060   1.858   3.251   1.094  1.0429  2.2247 -0.5483
 3018TIP3    H2 9061   1.996   3.243   1.155  0.5808 -0.8781  0.2740
 3019TIP3   OH2 9062   0.865   1.217   2.929  0.6847  0.0139 -0.2876
 3019TIP3    H1 9063   0.896   1.302   2.959  0.7930  0.5073 -1.7117
 3019TIP3    H2 9064   0.917   1.154   2.978  0.3366  0.7463  1.0722
 3020TIP3   OH2 9065   1.102   2.716   3.563  0.1811 -0.4743 -0.3803
 3020TIP3    H1 9066   1.065   2.690   3.478 -1.2932  0.1054  0.0545
 3020TIP3    H2 9067   1.030   2.703   3.625  1.5455 -1.8903  0.9817
 3021TIP3   OH2 9068   5.190   3.807   3.131  0.1927  0.3567  0.1109
 3021TIP3    H1 9069   5.095   3.818   3.127  0.1920  0.2249 -0.2542
 3021TIP3    H2 9070   5.219   3.878   3.189 -0.0056  1.1935 -0.7775
 3022TIP3   OH2 9071   4.696   0.519   4.524  0.5130  1.0810  0.8658
 3022TIP3    H1 9072   4.731   0.436   4.491 -2.9550 -0.3462  0.3865
 3022TIP3    H2 9073   4.680   0.570   4.445 -0.9613  0.5965  0.8254
 3023TIP3   OH2 9074   2.027   0.855   3.028  0.4077 -0.0683  0.7883
 3023TIP3    H1 9075   2.030   0.856   2.932  0.8176  0.4506  0.8010
 3023TIP3    H2 9076   2.075   0.776   3.052 -1.5250 -1.3882  0.5262
 3024TIP3   OH2 9077   3.055   1.384   4.803  0.2262 -0.5791 -0.2284
 3024TIP3    H1 9078   3.129   1.326   4.812  0.3379 -0.5176 -0.7098
 3024TIP3    H2 9079   3.010   1.354   4.724  1.0518  0.8050 -1.2877
 3025TIP3   OH2 9080   1.898   3.420   3.705  0.2082 -0.2294 -0.3899
 3025TIP3    H1 9081   1.820   3.380   3.667 -0.2488  0.5434 -0.2870
 3025TIP3    H2 9082   1.962   3.419   3.634 -0.1827 -0.0709 -0.7490
 3026TIP3   OH2 9083   5.978   3.045   3.991  0.0515 -0.4221 -0.2906
 3026TIP3    H1 9084   6.042   3.084   3.930  0.1852 -0.7499 -0.3647
 3026TIP3    H2 9085   6.030   2.985   4.045  0.0218  0.2606  0.4997
 3027TIP3   OH2 9086   5.355   3.617   3.221  0.2908  0.0972  0.1256
 3027TIP3    H1 9087   5.296   3.680   3.180  2.2620  2.2956  0.4535
 3027TIP3    H2 9088   5.343   3.631   3.315  0.2644 -0.5151  0.2164
 3028TIP3   OH2 9089   4.515   4.475   3.777  0.4918 -0.2250  0.2069
 3028TIP3    H1 9090   4.460   4.410   3.734  0.7053 -0.9486  1.0174
 3028TIP3    H2 9091   4.582   4.496   3.712  0.2050 -0.5211 -0.1905
 3029TIP3   OH2 9092   4.176   3.581   3.268  0.3269  0.4732 -0.2265
 3029TIP3    H1 9093   4.267   3.563   3.292  0.4940  1.1133 -0.3690
 3029TIP3    H2 9094   4.130   3.499   3.287  1.0067  0.0026 -0.5569
 3030TIP3   OH2 9095   4.202   5.676   4.662  0.2531  0.2541  0.1164
 3030TIP3    H1 9096   4.276   5.648   4.608  0.6947 -0.7809  1.2185
 3030TIP3    H2 9097   4.213   5.771   4.670  2.9640 -0.1210  2.3234
 3031TIP3   OH2 9098   0.080   5.038   4.982  0.5418 -0.3184  0.5804
 3031TIP3    H1 9099  -0.014   5.019   4.980  0.7687 -1.7884 -2.4778
 3031TIP3    H2 9100   0.114   4.983   5.052 -0.6657 -1.1582  0.5461
 3032TIP3   OH2 9101   5.359   3.280   3.816  0.1080  0.2260  0.1627
 3032TIP3    H1 9102   5.379   3.319   3.731  0.2347  2.2207  1.0636
 3032TIP3    H2 9103   5.423   3.209   3.825  2.6437  2.3867  0.1919
 3033TIP3   OH2 9104   1.112   4.005   3.228 -0.5379 -0.8415  0.2610
 3033TIP3    H1 9105   1.018   4.021   3.233 -0.2795  0.7187  0.7100
 3033TIP3    H2 9106   1.129   3.988   3.135 -0.9477  1.2775 -0.2487
 3034TIP3   OH2 9107   3.822   2.469   1.473  0.4323  0.4429 -0.2006
 3034TIP3    H1 9108   3.918   2.468   1.476  0.4227  0.5694  1.1922
 3034TIP3    H2 9109   3.801   2.539   1.412  1.1995 -0.7362 -1.8983
 3035TIP3   OH2 9110   5.995   4.603   2.499  0.3481  0.4180 -0.7360
 3035TIP3    H1 9111   5.984   4.567   2.411  1.0582 -2.4837  0.2389
 3035TIP3    H2 9112   6.090   4.610   2.511  0.4989 -2.5830  0.8851
 3036TIP3   OH2 9113   2.842   2.435   4.254 -0.0998 -0.3184 -0.1328
 3036TIP3    H1 9114   2.780   2.509   4.251 -0.5519 -0.6887 -0.0305
 3036TIP3    H2 9115   2.879   2.432   4.166 -1.8303 -1.4368 -0.8818
 3037TIP3   OH2 9116   1.154   3.464   4.794  0.1057 -0.1099 -0.4563
 3037TIP3    H1 9117   1.112   3.474   4.879 -0.3897 -0.4314 -0.6558
 3037TIP3    H2 9118   1.133   3.544   4.746 -1.8833 -1.0272 -1.2211
 3038TIP3   OH2 9119   2.708   0.749   0.621  0.4767  0.0360  0.2397
 3038TIP3    H1 9120   2.627   0.729   0.668  0.1092 -0.1130 -0.4466
 3038TIP3    H2 9121   2.739   0.664   0.589  0.0246  0.2791 -0.8959
 3039TIP3   OH2 9122   5.630   3.090   5.001 -0.1345  0.2555  0.6018
 3039TIP3    H1 9123   5.612   3.155   5.069  0.1346  0.5089  0.4320
 3039TIP3    H2 9124   5.655   3.141   4.924  0.2204 -0.0497  0.5114
 3040TIP3   OH2 9125   5.833   3.003   2.926 -0.3288  0.0476  0.3891
 3040TIP3    H1 9126   5.745   3.027   2.956 -0.4046  1.1344 -0.6517
 3040TIP3    H2 9127   5.841   3.043   2.840  0.5868 -1.4321 -0.2468
 3041TIP3   OH2 9128   5.813   2.096   4.000  0.8944 -0.2428  0.1662
 3041TIP3    H1 9129   5.875   2.154   3.957  0.7003  0.0167  0.2328
 3041TIP3    H2 9130   5.763   2.057   3.928  0.7625 -0.0279  0.1397
 3042TIP3   OH2 9131   3.876   3.792   0.119 -0.5833 -0.0389  0.1383
 3042TIP3    H1 9132   3.847   3.797   0.028 -1.1102 -0.5803  0.2669
 3042TIP3    H2 9133   3.795   3.789   0.170 -0.4903 -4.2563  0.3726
 3043TIP3   OH2 9134   1.289   0.821   0.037  0.0163 -0.6294 -0.3299
 3043TIP3    H1 9135   1.264   0.729   0.027  0.0685 -0.6572 -0.2060
 3043TIP3    H2 9136   1.289   0.855  -0.052  0.7952 -0.9629 -0.4730
 3044TIP3   OH2 9137   2.301   3.769   4.783 -0.2544 -0.8782  0.3486
 3044TIP3    H1 9138   2.295   3.712   4.706  2.1148 -1.8597  0.8228
 3044TIP3    H2 9139   2.382   3.742   4.827 -0.1806  1.4339  1.7742
 3045TIP3   OH2 9140   6.198   0.662   1.545 -0.5689  0.4707 -0.0168
 3045TIP3    H1 9141   6.196   0.745   1.593 -0.3352  0.6934 -0.3994
 3045TIP3    H2 9142   6.268   0.612   1.587 -2.0799 -0.3841  1.6335
 3046TIP3   OH2 9143   5.532   4.501   1.063 -0.3964 -0.7602 -1.1187
 3046TIP3    H1 9144   5.560   4.453   0.985  0.0931  0.2637 -1.5990
 3046TIP3    H2 9145   5.582   4.583   1.060 -0.8596 -0.4176 -0.0810
 3047TIP3   OH2 9146   1.522   5.456   1.345 -0.1917 -0.2996  0.2823
 3047TIP3    H1 9147   1.498   5.397   1.416 -0.4612  1.2033  1.4980
 3047TIP3    H2 9148   1.558   5.534   1.389 -1.2272  1.0691 -1.1651
 3048TIP3   OH2 9149   0.949   1.889   4.497  0.3606 -0.5144  0.2525
 3048TIP3    H1 9150   1.039   1.855   4.504  0.0928 -1.1963  0.5416
 3048TIP3    H2 9151   0.958   1.983   4.507  0.9483 -0.6629  1.2657
 3049TIP3   OH2 9152   0.397   2.934   3.701 -1.1090  0.1622 -0.1364
 3049TIP3    H1 9153   0.467   2.905   3.643  0.7292  0.2844  1.8742
 3049TIP3    H2 9154   0.330   2.970   3.642 -0.2061 -1.3800 -2.2271
 3050TIP3   OH2 9155   3.103   1.125   0.659 -0.4860  0.8001 -0.4178
 3050TIP3    H1 9156   3.171   1.126   0.592  0.2599 -0.9606  0.2638
 3050TIP3    H2 9157   3.047   1.051   0.636 -0.6137  0.5908  0.5104
 3051TIP3   OH2 9158   1.232   4.268   0.247  0.0552  0.1691 -0.3963
 3051TIP3    H1 9159   1.229   4.179   0.211 -1.7863  0.9384 -2.3384
 3051TIP3    H2 9160   1.286   4.317   0.185  0.8081  0.5244  0.5067
 3052TIP3   OH2 9161   5.342   5.029   1.659 -0.4186  0.0635  0.5199
 3052TIP3    H1 9162   5.270   5.018   1.720 -0.0847  0.3221  0.9690
 3052TIP3    H2 9163   5.350   5.124   1.649  0.4268  0.0800  1.1740
 3053TIP3   OH2 9164   1.594   1.501   5.198  0.4834  0.2580  0.2248
 3053TIP3    H1 9165   1.571   1.513   5.106 -0.1772  2.2169  0.5899
 3053TIP3    H2 9166   1.539   1.564   5.245  2.8248  1.3761  1.6778
 3054TIP3   OH2 9167   2.182   3.568   4.287  0.0001 -0.5849 -0.6848
 3054TIP3    H1 9168   2.190   3.651   4.239  3.9000 -0.6330 -0.4264
 3054TIP3    H2 9169   2.184   3.501   4.219  1.4624 -0.5321 -0.7275
 3055TIP3   OH2 9170   2.337   2.351   1.780  0.1024 -0.2647  0.9144
 3055TIP3    H1 9171   2.339   2.256   1.767  0.0786 -0.3118  1.2549
 3055TIP3    H2 9172   2.318   2.387   1.693 -0.1735 -0.5874  0.8398
 3056TIP3   OH2 9173   0.194   3.905   3.409  0.0352  0.2687  0.0195
 3056TIP3    H1 9174   0.175   3.962   3.335 -0.3210  0.4082  0.2149
 3056TIP3    H2 9175   0.244   3.832   3.372  0.0588  0.4550 -0.3146
 3057TIP3   OH2 9176   5.161   3.131   2.776  0.0090  0.1780 -0.4534
 3057TIP3    H1 9177   5.135   3.171   2.693 -1.2234 -0.8260 -0.5860
 3057TIP3    H2 9178   5.254   3.151   2.784  0.1931  0.1736 -2.1635
 3058TIP3   OH2 9179   1.309   4.941   1.723  0.6179 -0.0211  0.1209
 3058TIP3    H1 9180   1.307   4.918   1.816  1.7504  0.6339  0.3403
 3058TIP3    H2 9181   1.376   4.884   1.686  1.9697  1.4124  0.2536
 3059TIP3   OH2 9182   5.630   0.720   1.287 -0.0840  0.4480 -0.0007
 3059TIP3    H1 9183   5.544   0.728   1.246 -0.0236  2.0514  0.1096
 3059TIP3    H2 9184   5.656   0.811   1.305  2.7277  0.2285 -2.2621
 3060TIP3   OH2 9185   3.076   1.445   2.957 -0.0596  0.1578  0.2490
 3060TIP3    H1 9186   3.043   1.408   2.875 -1.5420  1.2344  0.3153
 3060TIP3    H2 9187   3.000   1.448   3.014 -0.3056  3.8314  0.0276
 3061TIP3   OH2 9188   0.313   4.494   4.107 -0.0604 -0.5929 -0.3226
 3061TIP3    H1 9189   0.329   4.469   4.198  0.8014 -1.0126 -0.5882
 3061TIP3    H2 9190   0.318   4.590   4.108  0.7318 -0.6340 -0.0728
 3062TIP3   OH2 9191   0.314   1.689   4.654 -0.0795 -0.3974 -0.5403
 3062TIP3    H1 9192   0.365   1.758   4.697  0.6595 -1.1334 -0.1998
 3062TIP3    H2 9193   0.265   1.647   4.726 -2.4654  1.3233 -1.0645
 3063TIP3   OH2 9194   3.791   2.295   2.596 -0.3208 -0.5769  0.2487
 3063TIP3    H1 9195   3.803   2.221   2.656 -0.0250  0.5231  1.6070
 3063TIP3    H2 9196   3.777   2.254   2.510 -1.6086 -2.2246  1.1816
 3064TIP3   OH2 9197   2.214   5.882   3.704  0.2246 -0.2975 -0.4391
 3064TIP3    H1 9198   2.200   5.803   3.651 -2.0126  1.0735 -2.0554
 3064TIP3    H2 9199   2.201   5.954   3.644  1.1427  1.3645  1.2478
 3065TIP3   OH2 9200   1.867   5.628   3.442 -0.2384 -0.3767 -0.0682
 3065TIP3    H1 9201   1.943   5.640   3.499  0.7820  0.4032 -1.5417
 3065TIP3    H2 9202   1.834   5.716   3.427  1.0336 -0.2465 -2.6281
 3066TIP3   OH2 9203   6.133   0.379   4.739  0.0658 -0.0037 -0.0529
 3066TIP3    H1 9204   6.130   0.404   4.831 -1.9653  0.8943 -0.3117
 3066TIP3    H2 9205   6.145   0.461   4.691 -0.9894 -0.1922 -0.6685
 3067TIP3   OH2 9206   2.996   4.503   1.288  0.0996  0.1072 -0.2465
 3067TIP3    H1 9207   3.011   4.428   1.230 -1.6301 -1.3248  1.0629
 3067TIP3    H2 9208   3.011   4.469   1.376 -1.0204  1.2305  0.4042
 3068TIP3   OH2 9209   1.552   3.643   4.845 -0.1815  0.3044  0.1839
 3068TIP3    H1 9210   1.485   3.577   4.863  1.4330 -1.2839  0.5398
 3068TIP3    H2 9211   1.583   3.670   4.932  0.6249 -0.0129  0.0001
 3069TIP3   OH2 9212   2.942   0.676   4.931 -0.4277 -0.2351 -0.0408
 3069TIP3    H1 9213   2.959   0.764   4.899  0.3624  0.1211  1.3005
 3069TIP3    H2 9214   2.849   0.662   4.915 -0.4255  0.5972 -0.8274
 3070TIP3   OH2 9215   3.729   1.063   2.516  0.8586 -0.3274  0.2943
 3070TIP3    H1 9216   3.798   1.106   2.466  0.7797 -0.1812  0.3129
 3070TIP3    H2 9217   3.752   1.078   2.607  1.5240 -1.3982  0.3259
 3071TIP3   OH2 9218   5.770   2.213   4.293  0.4295 -0.1466  0.0723
 3071TIP3    H1 9219   5.752   2.154   4.366  1.2065 -0.4104  0.0632
 3071TIP3    H2 9220   5.796   2.155   4.221  0.0605  0.1355 -0.2960
 3072TIP3   OH2 9221   1.916   4.526   0.149  0.1667  0.3212 -0.2309
 3072TIP3    H1 9222   1.993   4.511   0.202 -0.3124  2.2092  1.1098
 3072TIP3    H2 9223   1.869   4.443   0.149 -0.8791  0.6909  4.1697
 3073TIP3   OH2 9224   0.660   1.417   3.940 -0.6281 -0.4294  0.0821
 3073TIP3    H1 9225   0.705   1.360   3.879 -0.0313  0.1571 -0.0413
 3073TIP3    H2 9226   0.656   1.502   3.895  0.5413  0.2317  1.1474
 3074TIP3   OH2 9227   5.057   3.530   3.465 -0.1277  0.1032 -0.3177
 3074TIP3    H1 9228   5.073   3.480   3.545  1.1197  0.0719 -0.5606
 3074TIP3    H2 9229   5.116   3.605   3.472 -2.0251  1.6496  0.0830
 3075TIP3   OH2 9230   1.016   3.878   2.599 -0.1831 -0.2833 -0.8804
 3075TIP3    H1 9231   0.927   3.885   2.634 -0.1390  0.6152 -0.9141
 3075TIP3    H2 9232   1.064   3.830   2.666 -0.3732  0.4417 -0.2073
 3076TIP3   OH2 9233   2.283   1.341   1.620  0.6492 -0.1091  0.3643
 3076TIP3    H1 9234   2.361   1.301   1.582  0.8163 -1.9512  2.4510
 3076TIP3    H2 9235   2.316   1.393   1.694 -0.0916 -1.6006  1.8084
 3077TIP3   OH2 9236   1.086   2.496   0.294  0.6060 -0.1262  0.6106
 3077TIP3    H1 9237   1.013   2.551   0.325  1.4366 -0.1453  2.8059
 3077TIP3    H2 9238   1.161   2.555   0.293  0.9840 -0.6065  0.3872
 3078TIP3   OH2 9239   2.949   2.701   4.901 -0.4627 -0.3364  0.5843
 3078TIP3    H1 9240   3.029   2.672   4.858 -1.5364 -1.0349 -1.0003
 3078TIP3    H2 9241   2.940   2.644   4.977  0.9902  0.3478  1.3207
 3079TIP3   OH2 9242   0.714   5.295   1.035 -0.7299  0.8398 -0.0421
 3079TIP3    H1 9243   0.657   5.257   0.969  1.7853 -0.0520 -1.8452
 3079TIP3    H2 9244   0.761   5.221   1.072 -0.3224  1.5966  1.0191
 3080TIP3   OH2 9245   6.205   3.416   5.025  0.3679  0.0488 -0.1386
 3080TIP3    H1 9246   6.147   3.487   5.052  0.2883 -0.0689  0.0014
 3080TIP3    H2 9247   6.291   3.441   5.058  0.2192 -0.2365  0.5008
 3081TIP3   OH2 9248   3.055   0.439   2.312 -0.9676  0.2901  0.0932
 3081TIP3    H1 9249   2.987   0.486   2.264 -2.1231 -3.1486 -2.0002
 3081TIP3    H2 9250   3.008   0.392   2.381 -0.4014 -0.4484 -0.0081
 3082TIP3   OH2 9251   6.133   5.800   1.934 -0.1634 -0.0821  0.2457
 3082TIP3    H1 9252   6.126   5.805   1.839 -1.6350 -0.7520  0.2968
 3082TIP3    H2 9253   6.227   5.808   1.951  0.2635 -1.1985 -1.3355
 3083TIP3   OH2 9254   5.962   0.294   1.741 -0.6561  0.6644 -0.5378
 3083TIP3    H1 9255   5.921   0.327   1.821 -0.8757  4.0612 -1.9006
 3083TIP3    H2 9256   6.056   0.294   1.760 -0.7412  0.9605 -0.1121
 3084TIP3   OH2 9257   3.641   3.755   0.244 -0.5140 -1.1814 -0.5165
 3084TIP3    H1 9258   3.569   3.818   0.252  1.4379  0.9948  1.9163
 3084TIP3    H2 9259   3.631   3.698   0.321  0.6630 -0.4340  0.2211
 3085TIP3   OH2 9260   1.376   4.378   2.724 -0.3589 -0.3090 -0.1559
 3085TIP3    H1 9261   1.383   4.455   2.668  0.5760 -1.6045 -1.9066
 3085TIP3    H2 9262   1.428   4.399   2.801  0.2197  0.6533 -0.7891
 3086TIP3   OH2 9263   0.437   3.583   3.865  0.7427 -0.3352 -0.0727
 3086TIP3    H1 9264   0.391   3.667   3.867 -0.2490 -0.8429 -0.6455
 3086TIP3    H2 9265   0.464   3.569   3.956 -0.9415 -0.3790  0.4579
 3087TIP3   OH2 9266   0.022   2.794   0.423  0.2583 -0.1999 -0.7137
 3087TIP3    H1 9267   0.007   2.888   0.410  0.9249 -0.2851 -2.3394
 3087TIP3    H2 9268   0.089   2.771   0.359  1.9762 -1.3162  1.3530
 3088TIP3   OH2 9269   1.646   4.983   3.992  0.0324 -0.0856 -0.5597
 3088TIP3    H1 9270   1.733   4.949   4.014 -0.0039  0.3878  0.3918
 3088TIP3    H2 9271   1.595   4.970   4.072 -0.1141  1.7663 -0.3112
 3089TIP3   OH2 9272   0.495   2.319   1.291  0.3135 -0.3584  0.7554
 3089TIP3    H1 9273   0.455   2.406   1.285  0.6188 -0.2471  0.2577
 3089TIP3    H2 9274   0.479   2.291   1.381 -0.4448 -0.1035  0.7059
 3090TIP3   OH2 9275   1.108   4.420   4.835  0.2094  0.4127  0.0942
 3090TIP3    H1 9276   1.065   4.493   4.880 -0.4284 -0.4101  0.8656
 3090TIP3    H2 9277   1.126   4.453   4.747 -2.2245  0.7618 -0.3447
 3091TIP3   OH2 9278   1.596   2.255   2.194 -0.3378 -0.6152 -0.1889
 3091TIP3    H1 9279   1.514   2.208   2.205 -1.5034  1.2754 -0.3865
 3091TIP3    H2 9280   1.636   2.217   2.115 -0.6176 -2.0809  0.3584
 3092TIP3   OH2 9281   1.319   2.610   3.883  0.2218  0.1729 -0.1979
 3092TIP3    H1 9282   1.287   2.692   3.847 -1.3083  0.4318  1.6016
 3092TIP3    H2 9283   1.253   2.545   3.858 -0.2121  0.1202  1.0178
 3093TIP3   OH2 9284   6.268   4.867   3.551  0.0705  0.2586  0.0496
 3093TIP3    H1 9285   6.352   4.911   3.566  1.0726 -1.6187  0.2865
 3093TIP3    H2 9286   6.237   4.902   3.467  1.5150  0.4105 -0.4551
 3094TIP3   OH2 9287   2.963   1.049   5.041 -0.3247 -1.0191  0.0140
 3094TIP3    H1 9288   2.917   1.065   4.959 -1.7923  1.1197  1.1574
 3094TIP3    H2 9289   2.893   1.033   5.105  0.2057  3.1489  1.9854
 3095TIP3   OH2 9290   3.502   5.420   1.937 -0.1272  0.4087  0.2509
 3095TIP3    H1 9291   3.522   5.348   1.997 -0.2136 -0.6671 -0.9696
 3095TIP3    H2 9292   3.426   5.389   1.888  0.9178  0.5576 -1.5283
 3096TIP3   OH2 9293   5.937   0.505   2.717 -0.1541  0.5796  0.3653
 3096TIP3    H1 9294   5.914   0.414   2.732 -0.9480  0.7875  0.4770
 3096TIP3    H2 9295   5.906   0.551   2.795 -0.7972  1.1038 -0.1847
 3097TIP3   OH2 9296   0.392   2.139   4.730  0.2195  0.1634 -0.1470
 3097TIP3    H1 9297   0.320   2.146   4.792  0.1048  0.0538 -0.2653
 3097TIP3    H2 9298   0.392   2.223   4.683 -0.8466 -0.4198 -1.2360
 3098TIP3   OH2 9299   5.811   5.574   4.566 -0.1712  0.3023  0.2707
 3098TIP3    H1 9300   5.718   5.552   4.567  0.0273 -0.5467  0.7877
 3098TIP3    H2 9301   5.818   5.651   4.622 -0.4693 -0.0375  0.7861
 3099TIP3   OH2 9302   4.570   2.690   2.670  0.3475  0.1812  0.3017
 3099TIP3    H1 9303   4.612   2.774   2.648  1.7858 -0.2194  1.3708
 3099TIP3    H2 9304   4.639   2.625   2.656  0.0278 -0.5331  1.8993
 3100TIP3   OH2 9305   0.051   0.103   4.908 -0.7438 -0.5101  0.1073
 3100TIP3    H1 9306  -0.031   0.063   4.878 -0.5502  0.4851 -1.9112
 3100TIP3    H2 9307   0.061   0.072   4.998 -3.9080  0.2264  0.8483
 3101TIP3   OH2 9308   1.407   1.796   1.458 -0.2994  0.6309  0.2023
 3101TIP3    H1 9309   1.476   1.860   1.437  0.8522  0.4372  2.9999
 3101TIP3    H2 9310   1.335   1.849   1.493  0.3307  0.5363  1.7286
 3102TIP3   OH2 9311   3.554   1.145   4.866  0.5452 -0.4260 -0.0168
 3102TIP3    H1 9312   3.551   1.204   4.791 -0.1656 -1.7095 -1.0256
 3102TIP3    H2 9313   3.602   1.194   4.933  1.3213  0.6863 -1.3457
 3103TIP3   OH2 9314   4.397   0.075   0.974  0.5761 -0.4042  0.5098
 3103TIP3    H1 9315   4.340   0.030   1.037  2.2223 -2.1500  0.8727
 3103TIP3    H2 9316   4.459   0.007   0.946  2.4723  1.3711  0.1557
 3104TIP3   OH2 9317   5.495   2.782   1.976 -0.1466  0.0901 -0.4618
 3104TIP3    H1 9318   5.575   2.793   1.925 -0.6384 -0.4943 -1.3870
 3104TIP3    H2 9319   5.525   2.743   2.059  0.3686 -1.8381 -1.4850
 3105TIP3   OH2 9320   3.053   0.687   1.767  0.1183  0.1117 -0.0779
 3105TIP3    H1 9321   3.016   0.773   1.745 -0.2523  0.0496  0.2961
 3105TIP3    H2 9322   2.982   0.625   1.749 -0.1340  0.0364  1.0904
 3106TIP3   OH2 9323   1.261   2.469   4.218 -0.3727  0.3213 -0.1689
 3106TIP3    H1 9324   1.285   2.430   4.302  0.2550  4.3049  1.7880
 3106TIP3    H2 9325   1.165   2.465   4.217 -0.5071  1.4403  1.5771
 3107TIP3   OH2 9326   2.749   2.265   4.646  0.0869 -0.1672  0.0110
 3107TIP3    H1 9327   2.796   2.348   4.639 -1.5031  0.7944  0.1929
 3107TIP3    H2 9328   2.805   2.210   4.699  0.6307  1.2259  0.9396
 3108TIP3   OH2 9329   4.334   4.429   1.796 -0.4314  0.7498 -0.1702
 3108TIP3    H1 9330   4.329   4.469   1.710  2.5735 -2.2796 -2.0437
 3108TIP3    H2 9331   4.404   4.477   1.841 -0.7707  1.2171 -0.1455
 3109TIP3   OH2 9332   4.609   0.375   2.318  0.0187  0.0904 -0.1377
 3109TIP3    H1 9333   4.657   0.448   2.279  1.5239 -1.1027 -0.6168
 3109TIP3    H2 9334   4.537   0.417   2.365  1.8889  2.0316  1.1843
 3110TIP3   OH2 9335   0.781   3.592   2.726 -0.1975  0.0963 -0.1928
 3110TIP3    H1 9336   0.741   3.678   2.713 -1.4771 -0.6805 -1.8466
 3110TIP3    H2 9337   0.852   3.590   2.661  0.1930  0.0867  0.2266
 3111TIP3   OH2 9338   3.026   2.185   4.161 -0.1328  0.5794  0.3498
 3111TIP3    H1 9339   2.946   2.215   4.118 -0.8828  1.2337  2.0788
 3111TIP3    H2 9340   3.079   2.264   4.173  1.3893 -0.0112 -1.8444
 3112TIP3   OH2 9341   0.833   4.979   0.826 -0.1302  0.0236 -1.0528
 3112TIP3    H1 9342   0.757   5.000   0.881  0.8670  1.1330 -0.0360
 3112TIP3    H2 9343   0.802   4.909   0.768 -2.9481  2.5265 -2.8956
 3113TIP3   OH2 9344   0.526   4.695   2.205 -0.0591 -0.0936 -0.2091
 3113TIP3    H1 9345   0.584   4.706   2.130 -0.0947  0.7891 -0.1122
 3113TIP3    H2 9346   0.544   4.770   2.261 -1.6111  0.4439 -0.3924
 3114TIP3   OH2 9347   0.429   5.250   3.129 -0.5795 -0.0590  0.1201
 3114TIP3    H1 9348   0.519   5.247   3.096 -0.1570 -0.7880  1.2843
 3114TIP3    H2 9349   0.415   5.165   3.170 -1.4732  0.3857  0.7851
 3115TIP3   OH2 9350   2.659   5.430   0.253  0.0336  0.1456  0.3552
 3115TIP3    H1 9351   2.723   5.470   0.311 -0.4964  0.4729  0.7143
 3115TIP3    H2 9352   2.574   5.461   0.285 -0.4267 -1.5937  0.9204
 3116TIP3   OH2 9353   0.281   2.745   1.842  0.0303 -0.0491 -0.2429
 3116TIP3    H1 9354   0.222   2.750   1.917  0.7298 -2.0267  0.4968
 3116TIP3    H2 9355   0.363   2.713   1.878  1.2342  1.4877 -1.4561
 3117TIP3   OH2 9356   4.565   1.736   2.371  0.3882  0.2090 -0.1531
 3117TIP3    H1 9357   4.541   1.828   2.379  2.5708  0.7265  1.7576
 3117TIP3    H2 9358   4.532   1.695   2.451 -1.2702 -0.9158 -1.3469
 3118TIP3   OH2 9359   2.391   0.338   4.777  0.1236  0.0907  0.5570
 3118TIP3    H1 9360   2.330   0.271   4.808 -1.1794  1.8712  2.1224
 3118TIP3    H2 9361   2.344   0.383   4.706 -0.1057  0.9351  1.2184
 3119TIP3   OH2 9362   4.969   0.727   1.760  0.2190 -0.1273  0.5382
 3119TIP3    H1 9363   4.886   0.765   1.788 -0.7696 -1.5502 -0.3261
 3119TIP3    H2 9364   4.994   0.779   1.683  1.0693  1.4207  1.7986
 3120TIP3   OH2 9365   2.074   3.267   2.480  0.1572 -0.3135 -0.0123
 3120TIP3    H1 9366   2.099   3.233   2.394  0.6588  0.2828 -0.1128
 3120TIP3    H2 9367   2.148   3.245   2.537 -0.7527 -1.9278  0.6139
 3121TIP3   OH2 9368   3.145   1.884   0.304 -0.2712  0.1529 -0.1973
 3121TIP3    H1 9369   3.121   1.818   0.239 -0.6389  0.2485 -0.1599
 3121TIP3    H2 9370   3.204   1.944   0.258  0.3388 -0.3838 -0.1412
 3122TIP3   OH2 9371   5.234   3.486   3.950 -0.0534 -0.0553 -0.8349
 3122TIP3    H1 9372   5.291   3.420   3.910  1.0239  0.3151  0.0668
 3122TIP3    H2 9373   5.150   3.476   3.903  0.2462 -1.6877 -1.0813
 3123TIP3   OH2 9374   6.231   0.372   1.777 -0.2664  0.6443  0.3692
 3123TIP3    H1 9375   6.296   0.434   1.743  0.6755 -0.3651  0.2691
 3123TIP3    H2 9376   6.201   0.411   1.859 -2.0783  2.8049 -1.1899
 3124TIP3   OH2 9377   2.198   4.534   2.825  0.7325 -0.3509  0.4671
 3124TIP3    H1 9378   2.207   4.515   2.732 -2.4275 -1.5302  0.2655
 3124TIP3    H2 9379   2.275   4.494   2.866  1.2439 -1.4164 -1.4464
 3125TIP3   OH2 9380   4.518   5.691   2.501 -0.2998  0.0411  0.1381
 3125TIP3    H1 9381   4.569   5.682   2.421 -0.9293  1.0030 -0.3853
 3125TIP3    H2 9382   4.583   5.717   2.567  0.2558 -0.9610  0.0105
 3126TIP3   OH2 9383   2.794   4.058   2.241 -0.8627 -0.0564 -0.0567
 3126TIP3    H1 9384   2.706   4.086   2.218 -0.8083  0.3866  0.2531
 3126TIP3    H2 9385   2.800   4.072   2.335 -0.5866 -0.4386 -0.0162
 3127TIP3   OH2 9386   4.626   5.251   0.734 -0.1202 -0.1687 -0.3790
 3127TIP3    H1 9387   4.700   5.312   0.740 -0.6703  0.5634 -0.7483
 3127TIP3    H2 9388   4.576   5.267   0.814 -2.7085  3.2286 -2.3521
 3128TIP3   OH2 9389   2.886   5.492   4.377  0.0766 -0.4292 -0.3737
 3128TIP3    H1 9390   2.942   5.463   4.305  0.6633  0.7794 -0.4192
 3128TIP3    H2 9391   2.896   5.425   4.444  2.3789  0.2602  0.0299
 3129TIP3   OH2 9392   0.389   1.060   4.351  0.0324 -0.4252 -0.1294
 3129TIP3    H1 9393   0.412   1.148   4.380 -1.0604 -0.2387  0.2304
 3129TIP3    H2 9394   0.388   1.065   4.256 -1.4970  0.3848 -0.1045
 3130TIP3   OH2 9395   6.170   5.698   0.174  0.6541 -0.4653 -0.3059
 3130TIP3    H1 9396   6.194   5.749   0.252  1.1946  1.4801 -1.6601
 3130TIP3    H2 9397   6.252   5.661   0.143  0.0853 -3.5291  1.4552
 3131TIP3   OH2 9398   6.353   3.112   4.740  0.2058  0.1455 -0.1292
 3131TIP3    H1 9399   6.411   3.141   4.811 -0.0024 -0.5056  0.3131
 3131TIP3    H2 9400   6.268   3.149   4.763  0.1221 -0.1269  0.0033
 3132TIP3   OH2 9401   3.760   4.776   1.816 -0.1577  0.5366  0.3196
 3132TIP3    H1 9402   3.724   4.852   1.862 -0.2145 -0.3011  1.7017
 3132TIP3    H2 9403   3.688   4.713   1.812  0.2995 -0.0098  0.4781
 3133TIP3   OH2 9404   0.055   0.621   4.196 -0.7106  0.2532  0.1980
 3133TIP3    H1 9405   0.037   0.527   4.191  0.3235  0.0120  0.6756
 3133TIP3    H2 9406  -0.019   0.662   4.153 -0.6652 -0.8405 -0.9838
 3134TIP3   OH2 9407   4.479   2.123   0.638  0.5464  0.4176 -0.7046
 3134TIP3    H1 9408   4.535   2.155   0.568  0.4195  0.8167 -0.6291
 3134TIP3    H2 9409   4.390   2.127   0.602  0.5664 -0.2440 -0.8364
 3135TIP3   OH2 9410   0.509   4.317   3.184 -0.1889 -0.0736 -0.6819
 3135TIP3    H1 9411   0.488   4.225   3.173  0.3898 -0.5611  1.6506
 3135TIP3    H2 9412   0.584   4.318   3.244 -1.8818  1.8851  1.6567
 3136TIP3   OH2 9413   0.298   4.585   1.150 -0.2494 -0.1660  0.6549
 3136TIP3    H1 9414   0.268   4.569   1.239 -0.2111 -1.1675  0.5004
 3136TIP3    H2 9415   0.350   4.508   1.127  1.6791  1.0929  0.5673
 3137TIP3   OH2 9416   5.939   1.664   3.441 -0.3068  0.0873 -0.2180
 3137TIP3    H1 9417   5.903   1.656   3.353  0.1670 -0.0243 -0.4060
 3137TIP3    H2 9418   5.985   1.748   3.441  0.4419 -0.3110 -0.3588
 3138TIP3   OH2 9419   0.601   0.011   4.776  0.0045 -0.1258 -0.1645
 3138TIP3    H1 9420   0.695  -0.003   4.783  0.3016  0.0084 -2.7204
 3138TIP3    H2 9421   0.581   0.075   4.844  1.5056 -1.0519  1.2276
 3139TIP3   OH2 9422   1.994   4.233   0.667  0.4085  0.5056  0.5892
 3139TIP3    H1 9423   2.004   4.252   0.760 -0.6657 -0.5681  0.9482
 3139TIP3    H2 9424   2.081   4.202   0.640  0.8899  1.3758  1.0675
 3140TIP3   OH2 9425   2.528   1.319   1.883 -0.2720 -0.3424 -1.1243
 3140TIP3    H1 9426   2.615   1.341   1.851 -0.6872  0.4846 -1.7265
 3140TIP3    H2 9427   2.486   1.403   1.899 -1.1038 -0.7170 -1.2610
 3141TIP3   OH2 9428   1.080   5.511   0.334 -0.2353  0.5265  0.4460
 3141TIP3    H1 9429   1.165   5.470   0.319 -0.1915  0.7147  0.1795
 3141TIP3    H2 9430   1.033   5.448   0.388 -0.4686 -0.2567 -0.6435
 3142TIP3   OH2 9431   1.092   0.932   3.806  0.4067  0.2041 -0.2990
 3142TIP3    H1 9432   1.092   0.966   3.895  1.8817  1.4995 -0.7552
 3142TIP3    H2 9433   1.009   0.961   3.769  0.7015  1.5054  0.0082
 3143TIP3   OH2 9434   4.483   0.096   3.357  0.8644 -0.1836  0.3534
 3143TIP3    H1 9435   4.557   0.098   3.418 -0.1789  1.5358  1.6337
 3143TIP3    H2 9436   4.509   0.154   3.286  1.0405 -0.1411  0.4520
 3144TIP3   OH2 9437   2.331   0.208   1.260  0.2197  0.2999  0.6828
 3144TIP3    H1 9438   2.329   0.246   1.348 -1.7100  0.2933  0.6760
 3144TIP3    H2 9439   2.277   0.130   1.266  1.6766 -0.8094 -0.0644
 3145TIP3   OH2 9440   0.363   5.406   3.487 -0.2084 -0.1504 -0.2877
 3145TIP3    H1 9441   0.328   5.480   3.437 -1.6481  1.0341  2.2952
 3145TIP3    H2 9442   0.453   5.431   3.506 -0.8175  1.2863  0.9937
 3146TIP3   OH2 9443   5.835   0.545   0.187  0.5253  0.0597  0.3662
 3146TIP3    H1 9444   5.849   0.482   0.116 -0.6897 -0.2226  0.3529
 3146TIP3    H2 9445   5.910   0.534   0.245  1.6323  0.3930 -0.9280
 3147TIP3   OH2 9446   4.097   2.219   2.451 -0.2554  0.5556 -0.0202
 3147TIP3    H1 9447   4.120   2.214   2.543 -2.7373 -0.1112  0.6383
 3147TIP3    H2 9448   4.029   2.286   2.446 -0.8077 -0.0508 -1.2065
 3148TIP3   OH2 9449   4.163   5.052   0.183 -0.0253 -0.0453  0.4179
 3148TIP3    H1 9450   4.105   5.128   0.179  0.5050  0.3987  0.9518
 3148TIP3    H2 9451   4.214   5.065   0.262  0.8601 -0.3931 -0.0811
 3149TIP3   OH2 9452   1.288   0.943   0.861 -0.4299  0.0779 -0.8645
 3149TIP3    H1 9453   1.267   1.035   0.845 -0.8155 -0.1785 -1.8917
 3149TIP3    H2 9454   1.312   0.940   0.954 -1.7822  0.9597 -0.4505
 3150TIP3   OH2 9455   6.002   2.605   1.641 -0.0194  0.6256 -0.2352
 3150TIP3    H1 9456   6.072   2.669   1.660 -0.2220  0.2875  1.9695
 3150TIP3    H2 9457   6.043   2.540   1.585  1.3878  0.5742  0.8111
 3151TIP3   OH2 9458   2.498   0.520   0.630  0.2539  0.4073  0.3123
 3151TIP3    H1 9459   2.450   0.439   0.615  1.4332 -0.1703 -0.4729
 3151TIP3    H2 9460   2.585   0.504   0.594  0.6023  1.9235  0.4029
 3152TIP3   OH2 9461   1.950   4.702   2.679  0.1005  0.2094  0.4424
 3152TIP3    H1 9462   1.888   4.685   2.608  1.7302  2.3494 -1.6287
 3152TIP3    H2 9463   1.993   4.618   2.694 -0.2931 -0.2911 -1.0804
 3153TIP3   OH2 9464   1.794   5.949   4.669  0.0184  0.0335 -0.4323
 3153TIP3    H1 9465   1.880   5.930   4.633 -0.1722  0.6933 -1.2832
 3153TIP3    H2 9466   1.797   5.915   4.758  0.5096 -1.6605 -1.0540
 3154TIP3   OH2 9467   3.343   0.805   0.690 -0.0792  0.4626  0.6025
 3154TIP3    H1 9468   3.391   0.882   0.721 -0.2633  1.0344 -0.4909
 3154TIP3    H2 9469   3.305   0.768   0.769 -1.8633  2.7893  0.9654
 3155TIP3   OH2 9470   4.897   1.526   3.516 -0.2510  1.0955 -0.3270
 3155TIP3    H1 9471   4.992   1.526   3.531  0.3939  0.2877 -3.5955
 3155TIP3    H2 9472   4.874   1.619   3.516  1.0382  1.4672 -1.6631
 3156TIP3   OH2 9473   5.319   0.499   2.107 -0.0587 -0.4710 -0.0246
 3156TIP3    H1 9474   5.399   0.521   2.058  1.0441 -0.7673  1.5693
 3156TIP3    H2 9475   5.261   0.574   2.092  0.3063 -0.4663 -1.5958
 3157TIP3   OH2 9476   3.237   5.694   4.022  0.1994  0.1108  0.4186
 3157TIP3    H1 9477   3.146   5.692   4.051 -0.1597 -0.0484 -0.6931
 3157TIP3    H2 9478   3.238   5.645   3.940  1.1165  0.8487 -0.0341
 3158TIP3   OH2 9479   5.189   1.961   2.431 -0.1515 -0.0132 -0.0284
 3158TIP3    H1 9480   5.165   2.049   2.400 -0.1896 -0.3705 -1.0611
 3158TIP3    H2 9481   5.282   1.967   2.450  0.0206  0.0496 -0.8537
 3159TIP3   OH2 9482   6.230   4.494   2.154 -0.1477  0.5138  0.5399
 3159TIP3    H1 9483   6.311   4.450   2.129  0.0317  0.0669  1.8424
 3159TIP3    H2 9484   6.248   4.587   2.139  0.0719  0.2936 -0.5984
 3160TIP3   OH2 9485   1.076   3.962   0.347  0.4516  0.5764 -0.2381
 3160TIP3    H1 9486   1.163   3.962   0.308  0.5486 -0.4160 -0.0417
 3160TIP3    H2 9487   1.090   3.932   0.437  0.1172  1.9963  0.3108
 3161TIP3   OH2 9488   2.830   2.134   2.711 -0.1123 -0.4023 -0.1909
 3161TIP3    H1 9489   2.861   2.044   2.701 -0.1091 -0.5299  0.8188
 3161TIP3    H2 9490   2.766   2.145   2.641 -0.8995 -1.5524  0.3133
 3162TIP3   OH2 9491   4.526   3.117   3.537 -0.1242 -0.1060 -0.0054
 3162TIP3    H1 9492   4.476   3.140   3.459  0.8927 -0.9009 -0.9306
 3162TIP3    H2 9493   4.529   3.021   3.536  1.8094 -0.0841 -0.2785
 3163TIP3   OH2 9494   3.185   4.791   2.687 -0.1041  0.1385  0.1817
 3163TIP3    H1 9495   3.142   4.876   2.679  1.7366  0.9925 -1.8409
 3163TIP3    H2 9496   3.256   4.806   2.750  1.1540  0.6064 -1.2749
 3164TIP3   OH2 9497   0.579   2.536   4.812 -0.0599  0.3685  0.3770
 3164TIP3    H1 9498   0.527   2.616   4.821 -1.0180 -0.1106 -0.5473
 3164TIP3    H2 9499   0.591   2.505   4.901  1.0233  1.9424  0.8343
 3165TIP3   OH2 9500   0.019   1.674   3.994 -0.1381 -0.4887 -0.2423
 3165TIP3    H1 9501   0.011   1.618   4.072  1.3468 -0.3047  0.0838
 3165TIP3    H2 9502   0.110   1.661   3.966 -0.4342  0.0484 -1.4998
 3166TIP3   OH2 9503   1.906   0.274   5.069  0.0395  0.2302 -0.1204
 3166TIP3    H1 9504   1.865   0.188   5.080  0.3123  0.0821 -0.2627
 3166TIP3    H2 9505   1.832   0.333   5.055 -0.1568  0.0379  0.0857
 3167TIP3   OH2 9506   2.326   2.993   2.454  0.1382 -0.1815 -0.0544
 3167TIP3    H1 9507   2.239   2.956   2.438 -0.3311  0.7732  0.2224
 3167TIP3    H2 9508   2.313   3.054   2.526  0.8094  0.8549 -0.7857
 3168TIP3   OH2 9509   3.514   2.044   4.918  0.1173 -0.4418 -0.1295
 3168TIP3    H1 9510   3.499   1.959   4.875  0.4703 -0.4803 -0.1774
 3168TIP3    H2 9511   3.445   2.049   4.984 -1.1668  0.1216 -1.4459
 3169TIP3   OH2 9512   3.412   0.233   0.193  0.3408  0.3309  0.5857
 3169TIP3    H1 9513   3.361   0.244   0.274  1.4389  2.1517  1.0946
 3169TIP3    H2 9514   3.347   0.240   0.123 -0.5169 -0.4679  1.2846
 3170TIP3   OH2 9515   4.413   1.253   1.031  0.2398  0.0467 -0.1597
 3170TIP3    H1 9516   4.448   1.168   1.058  1.2298  0.8606  1.2079
 3170TIP3    H2 9517   4.461   1.317   1.084 -0.7635  1.4407 -0.8808
 3171TIP3   OH2 9518   1.334   0.593   1.197 -0.2077 -0.2236 -0.0567
 3171TIP3    H1 9519   1.259   0.561   1.147 -0.7211 -0.8258  1.0797
 3171TIP3    H2 9520   1.301   0.607   1.285  0.5240  1.4513 -0.0070
 3172TIP3   OH2 9521   2.472   5.798   4.094  0.2077  0.2874  0.5784
 3172TIP3    H1 9522   2.469   5.893   4.106  0.9273  0.8837 -2.8848
 3172TIP3    H2 9523   2.381   5.774   4.077  0.4379  1.2119 -2.7608
 3173TIP3   OH2 9524   0.205   1.920   3.688 -0.0976  0.5867 -0.2752
 3173TIP3    H1 9525   0.236   1.846   3.634 -0.7604 -0.0054  0.1444
 3173TIP3    H2 9526   0.117   1.938   3.655 -0.2144  0.7178  0.1150
 3174TIP3   OH2 9527   1.526   4.172   1.868 -0.1326  0.3326  0.1291
 3174TIP3    H1 9528   1.573   4.220   1.799  0.1419 -0.0108  0.0742
 3174TIP3    H2 9529   1.512   4.237   1.937 -0.4693  0.6999 -0.2771
 3175TIP3   OH2 9530   3.464   0.773   1.858 -0.6697  0.1922 -0.0285
 3175TIP3    H1 9531   3.533   0.818   1.905 -0.4791  0.3222 -0.4261
 3175TIP3    H2 9532   3.423   0.716   1.923 -0.4426  0.4031  0.2996
 3176TIP3   OH2 9533   3.545   2.762   1.840 -0.7638  0.4956 -0.3597
 3176TIP3    H1 9534   3.501   2.677   1.840 -0.2456  0.2228 -0.1764
 3176TIP3    H2 9535   3.477   2.825   1.816 -2.2168  0.5894  3.3148
 3177TIP3   OH2 9536   6.058   5.998   5.134  0.4266  0.5755  0.0219
 3177TIP3    H1 9537   6.129   5.934   5.140  0.3287  0.5306  0.8166
 3177TIP3    H2 9538   5.989   5.953   5.085 -0.7137 -0.9877  2.7869
 3178TIP3   OH2 9539   3.055   0.049   3.712  0.1171 -0.0423 -0.1184
 3178TIP3    H1 9540   3.080   0.136   3.681 -1.7624 -0.1033 -1.9973
 3178TIP3    H2 9541   2.963   0.057   3.736 -0.0358 -1.4609 -0.1437
 3179TIP3   OH2 9542   3.371   4.709   1.151  0.5012 -0.2316 -0.3176
 3179TIP3    H1 9543   3.320   4.736   1.227 -0.1626  5.3516 -2.2801
 3179TIP3    H2 9544   3.309   4.664   1.095 -0.0614 -0.7284  0.6761
 3180TIP3   OH2 9545   0.397   0.117   0.092  0.0070  0.1549 -0.0562
 3180TIP3    H1 9546   0.303   0.107   0.107  0.1063 -0.7761  0.0158
 3180TIP3    H2 9547   0.403   0.178   0.018 -0.6017  1.2884  0.7907
 3181TIP3   OH2 9548   4.379   0.184   3.912  0.2156  0.6574  0.3103
 3181TIP3    H1 9549   4.324   0.142   3.846  1.5133 -0.6811  0.0277
 3181TIP3    H2 9550   4.317   0.216   3.978 -1.0561  1.5441 -1.2573
 3182TIP3   OH2 9551   4.564   2.165   4.110  0.1489  0.3667 -0.0407
 3182TIP3    H1 9552   4.513   2.154   4.190  0.1695  0.6504  0.0126
 3182TIP3    H2 9553   4.520   2.109   4.046 -1.1915  1.8297 -0.4383
 3183TIP3   OH2 9554   3.168   2.854   4.763  0.1831  0.4551  0.4063
 3183TIP3    H1 9555   3.144   2.888   4.850 -0.1323 -0.4675  0.6936
 3183TIP3    H2 9556   3.103   2.893   4.704 -1.7290 -1.4753  1.0798
 3184TIP3   OH2 9557   5.707   1.279   2.859  0.1301  0.7019  0.2310
 3184TIP3    H1 9558   5.647   1.338   2.812 -0.4978 -0.9145 -1.1210
 3184TIP3    H2 9559   5.793   1.321   2.851 -0.6275  2.6576  1.4931
 3185TIP3   OH2 9560   0.533   5.478   4.211 -0.5001  0.3183  0.1495
 3185TIP3    H1 9561   0.615   5.518   4.238 -0.5360  0.3059  0.2743
 3185TIP3    H2 9562   0.536   5.390   4.246  0.8476 -0.8010 -2.4577
 3186TIP3   OH2 9563   0.836   5.057   3.524 -0.6477  0.2119  0.0399
 3186TIP3    H1 9564   0.842   4.964   3.502 -0.8914 -0.1855  1.5779
 3186TIP3    H2 9565   0.753   5.085   3.485  0.1576  0.2063 -1.7867
 3187TIP3   OH2 9566   1.228   4.390   1.345  0.1383 -0.3793 -0.1017
 3187TIP3    H1 9567   1.207   4.477   1.380  2.8443  0.7715 -1.0424
 3187TIP3    H2 9568   1.181   4.385   1.262 -0.5676 -0.1134  0.2749
 3188TIP3   OH2 9569   4.163   1.691   0.098  0.1729 -0.1029  0.2595
 3188TIP3    H1 9570   4.162   1.596   0.084  2.5125 -0.2140  0.4488
 3188TIP3    H2 9571   4.227   1.704   0.169 -2.0373  1.4471  2.0922
 3189TIP3   OH2 9572   4.583   4.331   0.303  0.4685  0.3355 -0.0185
 3189TIP3    H1 9573   4.669   4.326   0.262  0.0238 -2.0295 -0.8286
 3189TIP3    H2 9574   4.555   4.240   0.311 -1.5162  0.9896  1.1886
 3190TIP3   OH2 9575   0.770   1.997   0.081  0.6001 -0.3866  0.2040
 3190TIP3    H1 9576   0.698   2.036   0.131  1.2974  3.0690 -1.1730
 3190TIP3    H2 9577   0.847   2.011   0.137  0.8510  0.2407 -0.2848
 3191TIP3   OH2 9578   5.386   4.948   3.111  0.5017  0.3333 -0.1445
 3191TIP3    H1 9579   5.381   4.883   3.041  1.1876  0.9279 -0.7547
 3191TIP3    H2 9580   5.419   5.027   3.069 -2.1508  1.7210  0.1568
 3192TIP3   OH2 9581   1.387   1.821   4.313  0.0797  0.5515 -0.0666
 3192TIP3    H1 9582   1.414   1.791   4.227  1.9117  0.6611  0.4163
 3192TIP3    H2 9583   1.302   1.781   4.328  1.3544 -2.5495 -0.3989
 3193TIP3   OH2 9584   0.877   1.358   1.065 -0.1071  0.8830 -0.3455
 3193TIP3    H1 9585   0.945   1.341   1.130 -0.5039 -1.1755 -0.4050
 3193TIP3    H2 9586   0.915   1.329   0.982 -0.1831  2.0271 -0.7999
 3194TIP3   OH2 9587   0.405   2.014   1.483 -1.0856 -0.2888  0.1002
 3194TIP3    H1 9588   0.500   2.017   1.472 -1.1952 -1.6624 -1.7272
 3194TIP3    H2 9589   0.389   1.935   1.534 -1.0877  2.2683  4.6010
 3195TIP3   OH2 9590   2.003   0.860   1.860  0.1929  0.6537 -0.3437
 3195TIP3    H1 9591   1.916   0.827   1.837 -0.7857  0.5079  3.0756
 3195TIP3    H2 9592   2.064   0.795   1.824 -1.2388 -0.4483 -0.8737
 3196TIP3   OH2 9593   2.113   2.300   4.549 -0.9089 -0.9460 -0.3771
 3196TIP3    H1 9594   2.202   2.299   4.585 -1.3679 -0.7026  0.8249
 3196TIP3    H2 9595   2.125   2.304   4.454  0.3539  0.5739 -0.1872
 3197TIP3   OH2 9596   1.671   1.314   4.918  0.0552 -0.2540 -0.2425
 3197TIP3    H1 9597   1.731   1.280   4.851  2.0450  0.7424  0.9461
 3197TIP3    H2 9598   1.678   1.252   4.990  0.0566  0.1487  0.1061
 3198TIP3   OH2 9599   1.981   3.917   1.436  0.2768 -0.1077 -0.0798
 3198TIP3    H1 9600   2.011   3.910   1.346  1.8883  0.4234  0.3846
 3198TIP3    H2 9601   1.913   3.850   1.443 -0.8796  0.7786 -2.0474
 3199TIP3   OH2 9602   0.915   1.608   4.373  0.4107 -0.1591 -0.4851
 3199TIP3    H1 9603   0.892   1.663   4.298 -1.2430 -0.4420 -0.2251
 3199TIP3    H2 9604   0.877   1.522   4.352  0.8544 -0.5363  0.2124
 3200TIP3   OH2 9605   0.218   5.257   3.867  0.1900 -0.2563 -0.4647
 3200TIP3    H1 9606   0.254   5.339   3.901  2.8396 -0.9395 -1.3861
 3200TIP3    H2 9607   0.166   5.283   3.791  2.0628  0.5219 -1.5422
 3201TIP3   OH2 9608   2.038   2.022   3.581 -0.2222  0.4499 -0.2773
 3201TIP3    H1 9609   2.097   2.086   3.621 -2.9209  1.6110  2.2832
 3201TIP3    H2 9610   2.075   1.937   3.605  2.1940  0.9788 -1.7667
 3202TIP3   OH2 9611   4.213   0.877   1.783 -0.5707  0.3940 -0.0089
 3202TIP3    H1 9612   4.135   0.925   1.754 -0.7627  1.4118  1.9860
 3202TIP3    H2 9613   4.183   0.787   1.793 -1.4575  0.7286  0.5121
 3203TIP3   OH2 9614   0.298   2.224   4.976  0.6205  0.0263 -0.4560
 3203TIP3    H1 9615   0.271   2.316   4.976 -0.4416 -0.2460 -2.2120
 3203TIP3    H2 9616   0.218   2.176   4.996  0.6422 -0.5900 -1.7264
 3204TIP3   OH2 9617   3.256   0.938   1.080  0.0609 -0.1103 -0.4225
 3204TIP3    H1 9618   3.259   0.843   1.093 -1.0204 -0.0444  0.4154
 3204TIP3    H2 9619   3.174   0.953   1.032  0.1726  0.4116 -0.4532
 3205TIP3   OH2 9620   3.701   4.837   0.057 -0.0815  0.5443 -0.2097
 3205TIP3    H1 9621   3.702   4.814   0.150 -2.2429 -1.7276 -0.6592
 3205TIP3    H2 9622   3.620   4.888   0.046  0.1007  0.6996 -0.8852
 3206TIP3   OH2 9623   1.605   2.603   4.729  0.5182  0.1723  0.9186
 3206TIP3    H1 9624   1.667   2.533   4.751  0.5065 -1.2458 -2.9250
 3206TIP3    H2 9625   1.519   2.564   4.744  0.5010 -0.9251 -1.5296
 3207TIP3   OH2 9626   4.306   0.514   1.515  0.4896 -0.1632 -0.3735
 3207TIP3    H1 9627   4.257   0.443   1.557  0.5372  0.1634  0.2381
 3207TIP3    H2 9628   4.377   0.534   1.575  0.7323  0.1169 -0.7453
 3208TIP3   OH2 9629   5.483   3.622   0.552 -0.7581  0.6422 -0.2309
 3208TIP3    H1 9630   5.394   3.656   0.548 -1.0019  0.2723  1.3009
 3208TIP3    H2 9631   5.473   3.528   0.534 -0.6852  0.6073 -0.0938
 3209TIP3   OH2 9632   3.985   0.178   4.301  0.1296  0.0127 -0.5287
 3209TIP3    H1 9633   3.940   0.220   4.374 -0.5242 -2.4172  0.5838
 3209TIP3    H2 9634   4.075   0.168   4.330 -0.5410 -2.7289  0.9056
 3210TIP3   OH2 9635   0.473   4.965   1.335  0.3016  0.6600  0.3604
 3210TIP3    H1 9636   0.538   4.929   1.395  0.1735  2.0761  1.3922
 3210TIP3    H2 9637   0.400   4.903   1.339  1.2280 -0.5016 -0.1745
 3211TIP3   OH2 9638   0.847   4.655   2.453 -0.6145  0.6054 -0.4658
 3211TIP3    H1 9639   0.868   4.736   2.407  0.5884 -0.0508 -1.1057
 3211TIP3    H2 9640   0.782   4.612   2.396  0.0172  0.3321 -0.9926
 3212TIP3   OH2 9641   5.579   0.012   2.502  0.1138  0.1737 -0.0377
 3212TIP3    H1 9642   5.520   0.084   2.479  0.5134 -0.0059 -1.6817
 3212TIP3    H2 9643   5.660   0.055   2.529 -0.2710  0.3774  0.8237
 3213TIP3   OH2 9644   4.025   3.279   0.250  0.1276  0.0482 -1.0764
 3213TIP3    H1 9645   3.961   3.351   0.248  0.1801  0.0992 -0.9164
 3213TIP3    H2 9646   4.084   3.298   0.177 -0.2458 -0.1900 -1.4500
 3214TIP3   OH2 9647   2.105   0.083   3.380  0.5390 -0.3433 -0.4046
 3214TIP3    H1 9648   2.062  -0.002   3.386 -1.7085  0.7954  1.5233
 3214TIP3    H2 9649   2.033   0.146   3.381  2.1869  1.6685  1.0720
 3215TIP3   OH2 9650   3.136   5.515   1.375 -0.0823 -0.0189  0.4866
 3215TIP3    H1 9651   3.184   5.558   1.446  2.7751 -3.3752  0.8643
 3215TIP3    H2 9652   3.160   5.564   1.296 -0.9898  1.9936  1.3888
 3216TIP3   OH2 9653   3.646   2.183   1.387 -0.2186 -1.3346 -0.1143
 3216TIP3    H1 9654   3.686   2.261   1.425  0.4033 -1.9440  0.5172
 3216TIP3    H2 9655   3.554   2.206   1.375  0.1930 -0.0866 -1.0926
 3217TIP3   OH2 9656   5.554   1.699   4.845 -0.3213 -0.7421 -0.0713
 3217TIP3    H1 9657   5.578   1.778   4.893  1.1640 -0.6327 -0.9503
 3217TIP3    H2 9658   5.468   1.675   4.880 -0.5550  0.9478  0.5870
 3218TIP3   OH2 9659   1.533   3.999   0.804 -0.6155  0.1794  0.1247
 3218TIP3    H1 9660   1.549   3.914   0.844  0.8715 -0.0580 -0.8708
 3218TIP3    H2 9661   1.589   4.059   0.853  0.5844  0.0323 -1.0255
 3219TIP3   OH2 9662   0.295   3.432   0.084 -0.3623 -0.3137 -0.3105
 3219TIP3    H1 9663   0.345   3.355   0.057  0.7226 -0.0398  0.8536
 3219TIP3    H2 9664   0.204   3.403   0.083  0.0433 -1.6523  0.2328
 3220TIP3   OH2 9665   1.070   3.040   1.776 -0.6877 -0.2227 -0.3338
 3220TIP3    H1 9666   1.108   3.038   1.864 -0.3519  0.0190 -0.4714
 3220TIP3    H2 9667   1.142   3.015   1.719 -0.6182  0.6387 -0.6346
 3221TIP3   OH2 9668   2.191   4.554   0.556 -0.1990 -0.1979 -0.5261
 3221TIP3    H1 9669   2.121   4.586   0.613  0.9388  0.9250  0.3067
 3221TIP3    H2 9670   2.217   4.470   0.595 -0.2643 -0.0273 -0.1065
 3222TIP3   OH2 9671   5.974   1.135   0.343 -0.4523  0.0524  0.2967
 3222TIP3    H1 9672   6.068   1.128   0.326 -0.1883 -0.3912  1.7912
 3222TIP3    H2 9673   5.936   1.059   0.299 -0.3582  1.0167 -1.5966
 3223TIP3   OH2 9674   5.182   1.004   4.766 -0.0782 -0.0971  0.0595
 3223TIP3    H1 9675   5.273   1.008   4.737 -0.5833 -0.9882 -1.7868
 3223TIP3    H2 9676   5.173   0.918   4.807  0.2649  0.5955  1.6662
 3224TIP3   OH2 9677   5.685   3.631   3.445  0.2271 -0.0519  0.6152
 3224TIP3    H1 9678   5.678   3.713   3.494 -0.7156 -0.0152  0.4373
 3224TIP3    H2 9679   5.595   3.610   3.420  0.6568 -0.1354 -0.9922
 3225TIP3   OH2 9680   2.933   1.814   3.697 -0.7790  0.5371 -0.1056
 3225TIP3    H1 9681   2.910   1.905   3.711 -0.3931  0.8408 -1.3012
 3225TIP3    H2 9682   2.889   1.766   3.767  0.0016  1.7637  1.2686
 3226TIP3   OH2 9683   5.202   5.111   2.786  1.0299  0.1051  0.1381
 3226TIP3    H1 9684   5.150   5.080   2.712 -1.6778 -1.5680  2.4843
 3226TIP3    H2 9685   5.293   5.106   2.756  0.1319 -1.4056 -2.7125
 3227TIP3   OH2 9686   2.741   2.216   4.395  0.2629 -0.2063  0.1146
 3227TIP3    H1 9687   2.799   2.278   4.351 -1.6360  0.0472 -2.2241
 3227TIP3    H2 9688   2.737   2.247   4.486  1.9306  1.0814 -0.1965
 3228TIP3   OH2 9689   6.253   4.609   3.178  0.2169 -0.1523  0.2261
 3228TIP3    H1 9690   6.301   4.623   3.097 -0.8109  2.5394 -0.0305
 3228TIP3    H2 9691   6.166   4.580   3.149 -0.0004  0.3461  0.3663
 3229TIP3   OH2 9692   0.833   5.154   1.822 -0.0622  0.0201  0.1646
 3229TIP3    H1 9693   0.756   5.142   1.766  0.4355 -3.1497 -0.0057
 3229TIP3    H2 9694   0.871   5.237   1.794 -1.9253  0.3522 -1.5721
 3230TIP3   OH2 9695   1.807   3.254   0.134 -0.2648  0.5528  0.5774
 3230TIP3    H1 9696   1.723   3.207   0.138  0.9489 -1.7489  0.6703
 3230TIP3    H2 9697   1.795   3.328   0.194 -1.8771 -0.3125  1.4181
 3231TIP3   OH2 9698   3.836   2.201   2.329  0.3939  0.3481 -0.6934
 3231TIP3    H1 9699   3.929   2.204   2.306 -0.0891 -0.1170 -3.0856
 3231TIP3    H2 9700   3.803   2.124   2.281 -1.1360  0.2371  0.4757
 3232TIP3   OH2 9701   4.475   3.866   3.198  0.9688 -0.5311 -0.7981
 3232TIP3    H1 9702   4.524   3.934   3.151 -0.0240  0.4494 -0.4621
 3232TIP3    H2 9703   4.421   3.825   3.132 -1.0632  1.4139 -0.4625
 3233TIP3   OH2 9704   3.935   5.032   4.666 -0.5219 -0.3734 -0.3035
 3233TIP3    H1 9705   3.863   5.077   4.621 -1.1792 -1.2705 -0.1914
 3233TIP3    H2 9706   3.949   5.082   4.746 -0.5805  0.1854 -0.6376
 3234TIP3   OH2 9707   5.368   0.203   4.971 -0.3229 -0.1090 -0.6312
 3234TIP3    H1 9708   5.342   0.146   4.900 -0.1608  0.9293 -1.5535
 3234TIP3    H2 9709   5.364   0.148   5.049  0.0049 -1.4146 -1.5061
 3235TIP3   OH2 9710   1.125   3.090   0.059  0.2406 -0.0356  0.1223
 3235TIP3    H1 9711   1.164   3.026   0.118  0.2477 -0.4184 -0.2983
 3235TIP3    H2 9712   1.047   3.122   0.106 -0.3817 -1.1492 -0.1214
 3236TIP3   OH2 9713   4.831   5.407   5.055  0.4292 -0.0683  0.8608
 3236TIP3    H1 9714   4.739   5.421   5.036  1.0711  1.3138 -1.6205
 3236TIP3    H2 9715   4.831   5.359   5.138 -2.4949 -0.4235  0.7594
 3237TIP3   OH2 9716   3.773   4.634   0.268 -0.4014  0.3349 -0.3334
 3237TIP3    H1 9717   3.866   4.658   0.271 -0.1521 -0.6034 -0.2030
 3237TIP3    H2 9718   3.765   4.579   0.189 -0.6790 -0.2168  0.0703
 3238TIP3   OH2 9719   4.934   2.986   5.060  0.0958  0.3741  0.0459
 3238TIP3    H1 9720   4.946   2.891   5.053  0.7143  0.5229 -1.2432
 3238TIP3    H2 9721   4.857   2.997   5.115 -0.4345 -0.8958 -0.4151
 3239TIP3   OH2 9722   1.021   1.722   0.079 -0.1178 -0.1185 -0.6933
 3239TIP3    H1 9723   0.955   1.704   0.146 -1.1735 -0.1709 -1.7195
 3239TIP3    H2 9724   0.971   1.753   0.003  1.2088  1.9256 -0.8100
 3240TIP3   OH2 9725   5.537   4.649   3.687  0.0867  0.3749  0.3290
 3240TIP3    H1 9726   5.460   4.671   3.739  0.1257  0.7843  0.2203
 3240TIP3    H2 9727   5.600   4.719   3.706 -0.2916  1.1456 -1.0652
 3241TIP3   OH2 9728   0.402   5.047   3.791 -0.3038  0.4046 -0.2711
 3241TIP3    H1 9729   0.322   5.088   3.825 -1.0631 -0.1651 -1.3373
 3241TIP3    H2 9730   0.398   5.060   3.697 -0.4762 -1.9410 -0.6443
 3242TIP3   OH2 9731   3.331   4.606   5.062 -0.6356 -0.0502  0.6990
 3242TIP3    H1 9732   3.263   4.665   5.096  1.0350  1.4601  1.5788
 3242TIP3    H2 9733   3.376   4.658   4.995  2.0452  0.4495  2.7369
 3243TIP3   OH2 9734   3.356   1.479   2.868 -0.0268  0.1208 -0.0110
 3243TIP3    H1 9735   3.395   1.538   2.803  0.5954 -0.2279  0.0363
 3243TIP3    H2 9736   3.285   1.436   2.820 -1.7959  2.3004  0.4949
 3244TIP3   OH2 9737   3.704   2.033   1.131 -0.4717 -0.0762  0.6800
 3244TIP3    H1 9738   3.717   2.072   1.217 -2.0256 -1.7528  1.7627
 3244TIP3    H2 9739   3.634   1.969   1.144 -1.3908  0.2230 -2.0342
 3245TIP3   OH2 9740   3.980   3.066   0.432 -0.2811 -0.2679 -0.3967
 3245TIP3    H1 9741   3.950   3.013   0.505 -1.8924  0.7509 -0.2648
 3245TIP3    H2 9742   3.900   3.091   0.386  0.6082  0.1255 -1.7996
 3246TIP3   OH2 9743   5.638   1.936   4.215  0.0449 -0.2282  0.2477
 3246TIP3    H1 9744   5.604   1.849   4.196 -2.9706  0.8660  0.1172
 3246TIP3    H2 9745   5.665   1.971   4.129 -0.2847 -0.4460  0.0549
 3247TIP3   OH2 9746   6.269   4.030   4.107 -0.0410  0.4785 -0.0516
 3247TIP3    H1 9747   6.339   4.006   4.046 -0.2716 -0.8827  0.1901
 3247TIP3    H2 9748   6.192   4.040   4.051  0.0152  0.4529 -0.1348
 3248TIP3   OH2 9749   4.757   3.134   1.228  0.0791  0.1528  0.2813
 3248TIP3    H1 9750   4.730   3.168   1.313  2.5064 -1.1030  1.6520
 3248TIP3    H2 9751   4.706   3.054   1.217 -2.0306  1.5056 -0.6983
 3249TIP3   OH2 9752   3.394   3.596   4.093 -0.7220 -0.2847  0.1310
 3249TIP3    H1 9753   3.355   3.683   4.102 -1.1962 -0.6700  2.2581
 3249TIP3    H2 9754   3.466   3.596   4.156  0.0896 -1.0199 -0.7729
 3250TIP3   OH2 9755   3.473   5.066   2.616  0.9667 -0.2121  0.0697
 3250TIP3    H1 9756   3.532   5.002   2.656  0.3158 -1.8705 -1.4852
 3250TIP3    H2 9757   3.530   5.134   2.581  1.5692  1.3237  3.6539
 3251TIP3   OH2 9758   1.380   2.621   0.580  0.4755 -0.3449  0.1490
 3251TIP3    H1 9759   1.284   2.625   0.576  0.4024 -1.7636  0.2590
 3251TIP3    H2 9760   1.402   2.673   0.658 -0.1252  0.7625 -0.3934
 3252TIP3   OH2 9761   2.397   2.603   3.774 -0.3187  0.6668  0.3952
 3252TIP3    H1 9762   2.333   2.534   3.793  1.0680 -1.1506 -1.0783
 3252TIP3    H2 9763   2.383   2.624   3.682  2.2220 -1.0327 -0.4789
 3253TIP3   OH2 9764   2.009   0.973   4.423  0.0464  0.4211 -0.2945
 3253TIP3    H1 9765   1.941   1.004   4.363 -1.0074 -1.5933 -0.2376
 3253TIP3    H2 9766   1.969   0.898   4.466  1.3424  0.8550  1.8016
 3254TIP3   OH2 9767   0.150   1.360   4.328  0.0582 -0.0312 -0.2394
 3254TIP3    H1 9768   0.117   1.285   4.378  0.3710 -1.0246 -1.4724
 3254TIP3    H2 9769   0.243   1.365   4.351 -0.1208  0.4179  0.3812
 3255TIP3   OH2 9770   4.203   0.100   2.642 -0.7771  0.2961  0.3449
 3255TIP3    H1 9771   4.161   0.167   2.695 -1.4299 -0.6461  1.0543
 3255TIP3    H2 9772   4.137   0.075   2.577 -0.2624  0.8763 -0.4215
 3256TIP3   OH2 9773   0.927   4.334   4.434 -0.1765 -0.5237 -0.3222
 3256TIP3    H1 9774   0.993   4.385   4.480  0.1422 -0.6288 -0.6537
 3256TIP3    H2 9775   0.932   4.247   4.474 -0.5262 -0.3690  0.0541
 3257TIP3   OH2 9776   4.291   2.294   3.129 -0.1529 -0.3639 -0.0377
 3257TIP3    H1 9777   4.210   2.305   3.180  0.5633  0.1091  1.0255
 3257TIP3    H2 9778   4.288   2.364   3.065  1.0066  1.8875  2.1933
 3258TIP3   OH2 9779   4.440   4.323   5.093  0.0100 -0.4949  0.0003
 3258TIP3    H1 9780   4.402   4.404   5.058 -0.5668 -0.4388  0.7388
 3258TIP3    H2 9781   4.407   4.254   5.035 -2.0982 -0.5786  1.2054
 3259TIP3   OH2 9782   4.630   2.551   4.289 -0.7866  0.1915  0.4753
 3259TIP3    H1 9783   4.573   2.581   4.218 -1.4815 -0.6512  0.6555
 3259TIP3    H2 9784   4.700   2.504   4.244  0.5132  2.3038  0.1669
 3260TIP3   OH2 9785   6.250   4.407   0.094 -0.0869  0.5889 -0.7651
 3260TIP3    H1 9786   6.245   4.332   0.034 -0.2736  0.8169 -1.0364
 3260TIP3    H2 9787   6.161   4.442   0.095  0.0812  1.0170 -0.9032
 3261TIP3   OH2 9788   4.982   1.584   0.446  0.0532  0.3419  0.1606
 3261TIP3    H1 9789   5.034   1.537   0.381  0.1773  0.8124 -0.0835
 3261TIP3    H2 9790   4.996   1.676   0.426  2.0820  0.5987  2.3787
 3262TIP3   OH2 9791   3.599   0.386  -0.014  0.5623 -0.3273 -0.0692
 3262TIP3    H1 9792   3.572   0.473   0.018  2.0069  0.0273  0.2394
 3262TIP3    H2 9793   3.607   0.333   0.065 -0.6748 -0.8768 -0.2854
 3263TIP3   OH2 9794   3.430   2.464   4.063  0.5884 -0.4868  0.6192
 3263TIP3    H1 9795   3.451   2.382   4.017 -0.7872  0.3995 -1.7871
 3263TIP3    H2 9796   3.342   2.451   4.097  0.7597 -0.3479  1.1241
 3264TIP3   OH2 9797   2.861   3.193   3.291 -0.0414  0.2957 -0.0939
 3264TIP3    H1 9798   2.803   3.228   3.223 -0.6894 -1.7955 -0.6728
 3264TIP3    H2 9799   2.802   3.168   3.362  0.0823 -1.9788 -0.7384
 3265TIP3   OH2 9800   2.581   2.546   0.783 -0.1247 -0.3466 -0.5180
 3265TIP3    H1 9801   2.572   2.490   0.860 -0.5922 -0.6218 -0.7722
 3265TIP3    H2 9802   2.675   2.566   0.779  0.0734 -1.2104 -0.4937
 3266TIP3   OH2 9803   3.975   1.936   3.479  0.2345 -0.0071  0.2121
 3266TIP3    H1 9804   4.065   1.929   3.509  0.3977 -0.9176 -0.4780
 3266TIP3    H2 9805   3.928   1.975   3.553  1.3979  1.5988  0.1609
 3267TIP3   OH2 9806   2.868   1.428   3.143  0.2222 -0.5127 -0.3888
 3267TIP3    H1 9807   2.869   1.507   3.197 -1.0049  0.6482 -1.9474
 3267TIP3    H2 9808   2.873   1.356   3.205  0.0866  0.7787  1.1737
 3268TIP3   OH2 9809   1.831   5.574   4.823  0.0525 -0.6242  0.0852
 3268TIP3    H1 9810   1.819   5.667   4.844 -1.7304 -0.7224 -0.3349
 3268TIP3    H2 9811   1.910   5.549   4.870  0.3588  1.0212  0.5060
 3269TIP3   OH2 9812   2.211   4.803   4.501  0.4761  0.0768 -0.1157
 3269TIP3    H1 9813   2.289   4.791   4.556 -0.3551 -0.7153  0.9248
 3269TIP3    H2 9814   2.241   4.859   4.429  2.1359 -0.6074 -0.0104
 3270TIP3   OH2 9815   4.348   1.525   2.408  0.6261  0.2320 -0.0678
 3270TIP3    H1 9816   4.423   1.466   2.411 -0.8465 -1.7319  0.8078
 3270TIP3    H2 9817   4.342   1.560   2.497  0.8907  0.9120 -0.3146
 3271TIP3   OH2 9818   0.367   5.437   1.900 -0.1527  0.2073  0.4140
 3271TIP3    H1 9819   0.283   5.450   1.945 -0.9165 -0.6105 -0.7275
 3271TIP3    H2 9820   0.422   5.393   1.965 -0.9845 -0.2790  0.8125
 3272TIP3   OH2 9821   0.705   0.515   1.007 -0.5436 -0.3772 -0.2875
 3272TIP3    H1 9822   0.633   0.486   0.952 -0.6894 -0.2520 -0.1635
 3272TIP3    H2 9823   0.723   0.440   1.064  0.4169 -0.9534 -1.3171
 3273TIP3   OH2 9824   1.591   5.937   4.169 -0.1850 -0.2750 -0.1881
 3273TIP3    H1 9825   1.542   5.878   4.111 -1.2376 -0.3422  0.7471
 3273TIP3    H2 9826   1.629   5.880   4.236 -1.6751  0.1356  1.0454
 3274TIP3   OH2 9827   1.479   1.806   3.026  0.0522 -0.1803  0.4288
 3274TIP3    H1 9828   1.393   1.844   3.041 -0.6277 -1.5156 -0.0171
 3274TIP3    H2 9829   1.515   1.856   2.952 -0.4145  0.2171  0.4667
 3275TIP3   OH2 9830   5.638   0.942   0.932 -0.1950  0.3936 -0.4164
 3275TIP3    H1 9831   5.710   0.970   0.989 -0.1784 -0.5757  0.0597
 3275TIP3    H2 9832   5.623   1.016   0.874  1.1428  0.6434 -0.4723
 3276TIP3   OH2 9833   4.014   1.036   3.097 -0.0719 -0.2074  0.1928
 3276TIP3    H1 9834   4.058   0.994   3.023 -2.4559 -2.4650 -0.0689
 3276TIP3    H2 9835   3.922   1.038   3.073 -1.2392 -2.5400  3.6052
 3277TIP3   OH2 9836   3.169   1.843   3.535 -0.3567  0.0299 -0.5159
 3277TIP3    H1 9837   3.093   1.816   3.586 -0.7607  1.4427 -0.3467
 3277TIP3    H2 9838   3.143   1.831   3.443 -1.3110  1.7640 -0.5106
 3278TIP3   OH2 9839   0.203   5.087   4.377 -0.2162  0.5284  0.1367
 3278TIP3    H1 9840   0.193   4.993   4.389  1.3776  0.2447 -0.4964
 3278TIP3    H2 9841   0.222   5.097   4.284  1.6323  1.2584  0.5613
 3279TIP3   OH2 9842   3.771   0.903   0.612  0.3022  0.3162 -0.3755
 3279TIP3    H1 9843   3.841   0.969   0.614  1.6740 -1.0463 -0.7361
 3279TIP3    H2 9844   3.805   0.832   0.667 -0.6906 -0.5033 -0.8021
 3280TIP3   OH2 9845   3.778   4.992   5.008 -0.5746 -0.0888 -0.1501
 3280TIP3    H1 9846   3.809   4.934   5.077 -0.1438 -0.7828 -0.9090
 3280TIP3    H2 9847   3.840   4.979   4.936 -0.1243  1.7344 -0.1557
 3281TIP3   OH2 9848   3.646   5.175   1.110 -0.2957  0.0259  0.4739
 3281TIP3    H1 9849   3.621   5.204   1.023  0.7219  0.1881  0.2202
 3281TIP3    H2 9850   3.635   5.080   1.109 -1.1728  0.1234  0.4750
 3282TIP3   OH2 9851   0.587   1.163   2.816 -0.8431 -0.3938  0.4540
 3282TIP3    H1 9852   0.649   1.198   2.879 -0.0425  0.2264 -0.6329
 3282TIP3    H2 9853   0.507   1.147   2.866 -0.1899 -0.0735  1.6315
 3283TIP3   OH2 9854   5.665   5.137   1.360 -0.3258  0.0376 -0.1704
 3283TIP3    H1 9855   5.692   5.065   1.416 -1.4973  0.0195  0.4147
 3283TIP3    H2 9856   5.625   5.095   1.284 -0.5815  0.0650 -0.0522
 3284TIP3   OH2 9857   1.398   3.555   1.219  0.2114  0.2439  0.1103
 3284TIP3    H1 9858   1.318   3.574   1.170 -0.1303 -2.9596 -0.8018
 3284TIP3    H2 9859   1.422   3.466   1.192  1.4357 -0.7587  3.9185
 3285TIP3   OH2 9860   6.203   1.967   0.908 -0.5176 -0.3070  0.1757
 3285TIP3    H1 9861   6.176   1.876   0.919  1.2451 -0.8921 -0.1063
 3285TIP3    H2 9862   6.242   1.971   0.821 -0.0805  0.5850  0.3976
 3286TIP3   OH2 9863   0.658   3.446   4.489  0.1419 -0.2313 -0.2794
 3286TIP3    H1 9864   0.608   3.392   4.427  0.3205  0.0237 -0.6493
 3286TIP3    H2 9865   0.741   3.463   4.444  0.1268  0.2619 -0.1257
 3287TIP3   OH2 9866   3.667   2.222   2.965  0.4631  0.1457  0.3697
 3287TIP3    H1 9867   3.688   2.158   2.897 -1.4584 -0.7519  0.5485
 3287TIP3    H2 9868   3.618   2.173   3.031 -0.2702  1.5970  0.9580
 3288TIP3   OH2 9869   3.399   5.712   2.751  0.1580  0.1847  0.2384
 3288TIP3    H1 9870   3.401   5.801   2.785  1.3277  0.8364 -1.4159
 3288TIP3    H2 9871   3.307   5.697   2.729 -0.3714  0.2844  2.1239
 3289TIP3   OH2 9872   5.385   3.218   4.695 -0.2890  0.1140 -0.6006
 3289TIP3    H1 9873   5.338   3.209   4.612 -0.7691 -0.3918 -0.2836
 3289TIP3    H2 9874   5.477   3.211   4.672 -0.4241 -0.1265 -1.0768
 3290TIP3   OH2 9875   5.762   0.134   2.231  0.3558  0.2965 -0.4547
 3290TIP3    H1 9876   5.804   0.078   2.166 -0.7912 -3.2078  1.5376
 3290TIP3    H2 9877   5.675   0.152   2.196 -0.0874 -1.1822 -0.2088
 3291TIP3   OH2 9878   2.098   5.254   3.598  0.4909 -0.2612 -0.3216
 3291TIP3    H1 9879   2.069   5.177   3.647 -3.2214  0.5229 -0.9639
 3291TIP3    H2 9880   2.106   5.223   3.507 -0.9771  0.0430 -0.5756
 3292TIP3   OH2 9881   0.319   0.615   1.293 -0.1022 -0.1052  0.5872
 3292TIP3    H1 9882   0.376   0.675   1.341 -0.9957  1.0672  0.2539
 3292TIP3    H2 9883   0.257   0.673   1.248  0.2813 -1.1754 -1.4523
 3293TIP3   OH2 9884   5.364   5.763   0.707 -0.0661 -0.1136 -0.3480
 3293TIP3    H1 9885   5.270   5.757   0.726 -0.1509  0.6572 -0.5340
 3293TIP3    H2 9886   5.370   5.769   0.612  0.0580  1.6864 -0.2619
 3294TIP3   OH2 9887   1.925   2.992   0.794 -0.2149  0.1156 -0.1281
 3294TIP3    H1 9888   1.931   2.962   0.884 -0.7588  0.6049  0.0847
 3294TIP3    H2 9889   1.890   3.081   0.801  1.6548  0.9467 -0.7084
 3295TIP3   OH2 9890   2.338   1.376   4.277  0.1175  0.2287  0.2788
 3295TIP3    H1 9891   2.364   1.321   4.203  1.8842 -0.4797  1.3668
 3295TIP3    H2 9892   2.414   1.432   4.292 -1.9090  3.8020 -1.3937
 3296TIP3   OH2 9893   2.588   4.373   0.419 -0.7477 -0.3708 -0.0668
 3296TIP3    H1 9894   2.578   4.458   0.463 -0.3555  0.0888 -0.8454
 3296TIP3    H2 9895   2.597   4.395   0.327 -1.7061 -1.3396 -0.4069
 3297TIP3   OH2 9896   4.792   0.217  -0.013 -0.5046  0.1987 -0.1009
 3297TIP3    H1 9897   4.807   0.310  -0.033  0.0249  0.4690  1.4399
 3297TIP3    H2 9898   4.808   0.210   0.081 -1.8412 -1.2038  0.0612
 3298TIP3   OH2 9899   0.049   4.659   2.944  0.0323  0.3097  0.1100
 3298TIP3    H1 9900  -0.019   4.713   2.905 -0.1872  0.1420  0.2554
 3298TIP3    H2 9901   0.130   4.689   2.903 -0.1589  0.3312 -0.2626
 3299TIP3   OH2 9902   2.668   5.281   2.914  0.4631  0.0525 -0.0043
 3299TIP3    H1 9903   2.597   5.263   2.851  0.7014 -0.7098 -0.0602
 3299TIP3    H2 9904   2.674   5.201   2.966  1.1817  0.1754  0.1021
 3300TIP3   OH2 9905   0.274   1.670   2.965 -0.2657 -0.0878 -0.0150
 3300TIP3    H1 9906   0.228   1.590   2.937 -2.3083  1.1382 -0.3915
 3300TIP3    H2 9907   0.284   1.721   2.885 -1.3789  1.1571  0.6067
 3301TIP3   OH2 9908   0.012   2.154   4.423  0.6251 -0.0871 -0.1521
 3301TIP3    H1 9909  -0.076   2.170   4.456  0.7459 -0.5701  0.4192
 3301TIP3    H2 9910   0.067   2.220   4.465  0.7880 -0.7324  0.6897
 3302TIP3   OH2 9911   0.974   5.086   4.895 -0.8181  0.0787 -0.3626
 3302TIP3    H1 9912   1.023   5.027   4.837 -0.2023 -0.6402  0.8369
 3302TIP3    H2 9913   1.009   5.173   4.876 -1.8352  0.1070 -2.2552
 3303TIP3   OH2 9914   6.299   1.966   3.634 -0.8560 -0.5180  0.2664
 3303TIP3    H1 9915   6.272   1.998   3.548 -0.9615 -2.6153 -0.5477
 3303TIP3    H2 9916   6.223   1.916   3.665 -0.4993 -0.4970  1.2068
 3304TIP3   OH2 9917   0.925   0.578   4.676 -0.8944 -0.1883 -0.0767
 3304TIP3    H1 9918   1.003   0.553   4.725 -0.6802 -0.1396 -0.3862
 3304TIP3    H2 9919   0.948   0.662   4.636 -1.1744 -0.0803 -0.0125
 3305TIP3   OH2 9920   3.560   2.408   2.769 -1.1083  0.6177  0.0688
 3305TIP3    H1 9921   3.609   2.377   2.693 -1.2428  1.9511 -0.5970
 3305TIP3    H2 9922   3.587   2.350   2.841  2.6580  2.1465  0.1219
 3306TIP3   OH2 9923   1.480   5.251   4.411 -0.5927 -0.2894 -0.2897
 3306TIP3    H1 9924   1.405   5.279   4.358 -0.2498 -0.1581 -0.7078
 3306TIP3    H2 9925   1.516   5.176   4.363 -0.6894 -0.5912  0.1113
 3307TIP3   OH2 9926   6.144   0.683   3.326  0.1297 -0.1803 -0.0255
 3307TIP3    H1 9927   6.087   0.756   3.348  1.0100  0.5195 -0.0048
 3307TIP3    H2 9928   6.216   0.722   3.276  1.0070 -0.8969  0.6359
 3308TIP3   OH2 9929   0.386   0.414   1.471  0.2050  0.5613  0.4418
 3308TIP3    H1 9930   0.360   0.470   1.398 -0.7032  0.5497  0.7426
 3308TIP3    H2 9931   0.382   0.471   1.548  0.2009  0.3237  0.6188
 3309TIP3   OH2 9932   2.765   4.412   2.991  0.8708 -0.1763 -0.9579
 3309TIP3    H1 9933   2.774   4.506   3.006 -1.1815  0.1514 -1.4416
 3309TIP3    H2 9934   2.786   4.371   3.075  3.1704  0.5664 -1.1106
 3310TIP3   OH2 9935   3.908   5.223   0.040  0.2123  0.1833 -0.3104
 3310TIP3    H1 9936   3.897   5.234  -0.054  1.0283  1.5691 -0.2662
 3310TIP3    H2 9937   3.930   5.310   0.072 -1.9442  0.1656  1.4682
 3311TIP3   OH2 9938   1.029   3.808   2.050  0.0874 -0.1718  0.6368
 3311TIP3    H1 9939   1.115   3.838   2.078 -0.1450 -0.6540  1.9120
 3311TIP3    H2 9940   1.047   3.751   1.975  0.6393  1.8629 -0.8875
 3312TIP3   OH2 9941   0.034   4.247   0.681 -0.3620 -0.3682 -0.1262
 3312TIP3    H1 9942   0.071   4.167   0.644 -1.0377 -1.0393  0.6119
 3312TIP3    H2 9943  -0.059   4.242   0.662 -0.2550  0.8222 -1.0876
 3313TIP3   OH2 9944   4.976   2.073   0.592  0.3017 -0.0766  0.0867
 3313TIP3    H1 9945   4.966   2.168   0.596  1.2998  0.0763 -0.6079
 3313TIP3    H2 9946   4.961   2.052   0.499 -1.7894 -0.8604  0.5382
 3314TIP3   OH2 9947   0.017   0.816   3.220  0.4153 -0.2549  0.2972
 3314TIP3    H1 9948   0.064   0.850   3.297  0.7040 -1.1633  0.5396
 3314TIP3    H2 9949   0.075   0.748   3.185 -0.2371 -0.6461 -0.0412
 3315TIP3   OH2 9950   6.264   1.201   2.520  0.5418 -0.1749 -0.0948
 3315TIP3    H1 9951   6.334   1.163   2.574  1.2075  0.6580 -0.3405
 3315TIP3    H2 9952   6.183   1.169   2.559  1.0608 -2.1165 -0.4985
 3316TIP3   OH2 9953   1.665   1.226   2.709  0.0814  0.6365  0.7527
 3316TIP3    H1 9954   1.593   1.285   2.685  0.0620  0.0656 -0.6952
 3316TIP3    H2 9955   1.723   1.227   2.633 -0.8087 -2.5291 -0.1050
 3317TIP3   OH2 9956   1.052   4.320   1.639  0.1002 -0.1192 -0.5131
 3317TIP3    H1 9957   0.998   4.398   1.650  3.0719  1.9677  0.3731
 3317TIP3    H2 9958   1.092   4.305   1.724  0.7581 -1.7418 -1.0520
 3318TIP3   OH2 9959   1.416   1.058   3.348 -0.1387  0.0099 -0.0301
 3318TIP3    H1 9960   1.446   0.968   3.333  0.2049  0.0077  0.6464
 3318TIP3    H2 9961   1.320   1.051   3.350 -0.1752 -0.1079 -1.4113
 3319TIP3   OH2 9962   6.219   3.398   2.126 -0.6535 -0.1891 -0.0825
 3319TIP3    H1 9963   6.179   3.313   2.109  0.4927 -0.8816  0.6361
 3319TIP3    H2 9964   6.289   3.405   2.062 -0.1969 -0.1591  0.4183
 3320TIP3   OH2 9965   2.645   2.528   0.175  0.6649 -0.1651 -0.4684
 3320TIP3    H1 9966   2.635   2.437   0.149 -1.3525 -0.2968  0.6176
 3320TIP3    H2 9967   2.578   2.542   0.241  2.7804  1.3424  1.4933
 3321TIP3   OH2 9968   1.935   2.169   4.694  0.4347 -0.2173 -0.4670
 3321TIP3    H1 9969   1.984   2.219   4.628  1.2766 -0.0449  0.2616
 3321TIP3    H2 9970   2.002   2.126   4.746 -0.2395 -0.8219 -0.0790
 3322TIP3   OH2 9971   2.941   4.153  -0.018 -0.4083  0.3748  0.1612
 3322TIP3    H1 9972   2.950   4.216   0.053 -0.8234 -0.4652  0.9824
 3322TIP3    H2 9973   2.871   4.095   0.010  1.1377 -1.5498  0.3124
 3323TIP3   OH2 9974   0.179   0.316   2.393 -0.1567  0.0137  0.1959
 3323TIP3    H1 9975   0.171   0.237   2.446 -0.9177 -0.2952 -0.3504
 3323TIP3    H2 9976   0.088   0.338   2.369  0.1029  0.6331 -0.2482
 3324TIP3   OH2 9977   4.217   2.412   0.142  0.1257  0.0631 -0.1977
 3324TIP3    H1 9978   4.296   2.406   0.089  0.0286 -0.9093 -0.2571
 3324TIP3    H2 9979   4.151   2.363   0.092 -1.3151  3.0834 -1.5087
 3325TIP3   OH2 9980   4.854   3.896   3.413 -0.2470 -0.3171 -0.1229
 3325TIP3    H1 9981   4.899   3.973   3.379 -0.0074 -0.9324 -1.2609
 3325TIP3    H2 9982   4.922   3.829   3.420  0.0653  0.1725  3.1121
 3326TIP3   OH2 9983   2.108   0.067   3.662  0.2137  0.1830  0.2762
 3326TIP3    H1 9984   2.141   0.090   3.575  2.2269 -1.3289  0.5741
 3326TIP3    H2 9985   2.067  -0.019   3.650  1.0476 -0.3165  0.9139
 3327TIP3   OH2 9986   4.130   0.266   1.392  0.5223  0.2421  0.3715
 3327TIP3    H1 9987   4.108   0.278   1.484 -2.3152  2.5915 -0.4490
 3327TIP3    H2 9988   4.078   0.191   1.365 -0.2778  0.8235  0.2602
 3328TIP3   OH2 9989   6.050   2.279   0.037  0.6772 -0.3585  0.0548
 3328TIP3    H1 9990   5.955   2.266   0.040  0.4469  0.1387 -2.5720
 3328TIP3    H2 9991   6.079   2.222  -0.034  2.2630  0.0096  0.3739
 3329TIP3   OH2 9992   0.596   3.470   2.911 -0.1625 -0.0774 -0.5698
 3329TIP3    H1 9993   0.689   3.462   2.891 -0.1597  0.3448 -0.7446
 3329TIP3    H2 9994   0.552   3.468   2.826 -0.3259 -0.4374 -0.4772
 3330TIP3   OH2 9995   3.883   2.527   2.709 -0.0287 -0.2809  0.1010
 3330TIP3    H1 9996   3.824   2.596   2.680  0.6487 -0.1322 -0.9958
 3330TIP3    H2 9997   3.847   2.447   2.672  1.1614 -0.0179 -1.7973
 3331TIP3   OH2 9998   0.962   5.831   2.815  0.0268  0.3394 -0.1147
 3331TIP3    H1 9999   0.949   5.751   2.764 -0.6035 -0.2740  0.9676
 3331TIP3    H210000   0.941   5.805   2.905  1.7835  1.1948  0.5946
 3332TIP3   OH210001   2.098   2.715   1.766  0.2412  0.3288 -0.0248
 3332TIP3    H110002   2.186   2.706   1.731  1.1979  0.8527  2.0669
 3332TIP3    H210003   2.071   2.626   1.788  0.7640  0.2758  0.4292
 3333TIP3   OH210004   5.636   4.334   3.006  0.1107 -0.1576  0.1430
 3333TIP3    H110005   5.700   4.398   2.974  0.1427  0.5768  1.6262
 3333TIP3    H210006   5.675   4.249   2.984  0.2385  0.2823 -1.5275
 3334TIP3   OH210007   0.228   2.080   2.950 -0.3314  0.1046 -0.3876
 3334TIP3    H110008   0.321   2.061   2.941 -0.3011  0.1835 -0.2385
 3334TIP3    H210009   0.211   2.150   2.887 -0.4043 -0.2836 -0.8074
 3335TIP3   OH210010   2.162   1.094   1.630  0.1409  0.2853  0.3814
 3335TIP3    H110011   2.204   1.179   1.618  1.4578 -0.5275 -1.2468
 3335TIP3    H210012   2.176   1.073   1.723  1.7062  0.9027  0.3107
 3336TIP3   OH210013   5.487   3.470   4.875 -0.5214  0.1735 -0.1183
 3336TIP3    H110014   5.493   3.507   4.787  0.0595 -0.6598 -0.4439
 3336TIP3    H210015   5.488   3.375   4.861 -3.5941 -0.0558  0.5652
 3337TIP3   OH210016   5.688   2.169   3.742 -0.5090 -0.3140 -0.5470
 3337TIP3    H110017   5.601   2.144   3.710 -0.2979 -0.8926 -0.6627
 3337TIP3    H210018   5.709   2.248   3.692 -1.3887  0.4122  0.1858
 3338TIP3   OH210019   3.127   0.460   1.376 -0.1942 -0.9325 -0.3286
 3338TIP3    H110020   3.223   0.460   1.371 -0.0902 -1.3488  1.2194
 3338TIP3    H210021   3.102   0.371   1.354 -0.2798 -0.6822 -1.2890
 3339TIP3   OH210022   0.180   4.837   2.273 -0.3364  0.1259  0.3752
 3339TIP3    H110023   0.192   4.897   2.199  0.4574 -0.4779 -0.0143
 3339TIP3    H210024   0.199   4.890   2.350  2.4150 -0.0335 -0.0586
 3340TIP3   OH210025   4.607   1.477   3.552 -0.1946 -0.0322 -0.9247
 3340TIP3    H110026   4.662   1.486   3.629 -0.6577 -1.1503 -0.4346
 3340TIP3    H210027   4.659   1.514   3.481  0.8225 -0.2637 -0.3233
 3341TIP3   OH210028   0.637   3.651   3.464 -0.0621 -0.1769 -0.4713
 3341TIP3    H110029   0.680   3.568   3.442 -0.6104 -0.5281 -0.2515
 3341TIP3    H210030   0.696   3.718   3.431  0.1617 -0.6644 -1.1005
 3342TIP3   OH210031   5.837   3.862   0.430 -0.6494  0.2352  0.3280
 3342TIP3    H110032   5.839   3.908   0.514  3.0192  1.1381 -0.0734
 3342TIP3    H210033   5.804   3.774   0.451  0.2518  0.4103  2.7577
 3343TIP3   OH210034   2.008   3.371   5.078 -0.6249  0.0005 -0.2006
 3343TIP3    H110035   2.019   3.410   4.991  0.2772 -2.6900 -1.3753
 3343TIP3    H210036   1.947   3.298   5.064  1.0978 -1.7439  0.9538
 3344TIP3   OH210037   4.872   2.779   0.206 -0.0457 -0.2920  0.1577
 3344TIP3    H110038   4.854   2.844   0.274  1.5905  0.2530  0.1067
 3344TIP3    H210039   4.963   2.795   0.180 -0.3769 -0.9922 -1.6200
 3345TIP3   OH210040   5.558   3.848   0.753  0.5791 -0.2443 -0.1885
 3345TIP3    H110041   5.485   3.849   0.815  0.7336  0.4734 -0.0081
 3345TIP3    H210042   5.539   3.775   0.695  0.9430 -1.5938  1.3149
 3346TIP3   OH210043   0.216   1.441   0.022  0.2088 -0.3148  0.3603
 3346TIP3    H110044   0.150   1.400   0.078  0.0734 -0.2541  0.2462
 3346TIP3    H210045   0.295   1.389   0.035 -0.4493 -1.7962 -1.2159
 3347TIP3   OH210046   5.242   3.856   2.746  0.4520  0.6490 -0.0738
 3347TIP3    H110047   5.265   3.898   2.662  2.4689  1.8071  0.9747
 3347TIP3    H210048   5.182   3.917   2.788  1.4530  1.3506  0.3854
 3348TIP3   OH210049   5.408   4.341   4.890  0.2805  0.3892 -0.5009
 3348TIP3    H110050   5.474   4.326   4.823  2.4398 -0.9536  1.7712
 3348TIP3    H210051   5.351   4.264   4.886  1.8525 -0.8968  0.7034
 3349TIP3   OH210052   5.565   1.389   1.152  0.1075 -0.0472  0.6345
 3349TIP3    H110053   5.517   1.423   1.076  1.4173 -1.2666 -0.8009
 3349TIP3    H210054   5.523   1.306   1.172  0.5867 -0.3624  0.3684
 3350TIP3   OH210055   3.151   4.752   1.303 -0.2804 -0.1210  0.0207
 3350TIP3    H110056   3.078   4.692   1.318 -2.2012  1.8547 -0.9634
 3350TIP3    H210057   3.153   4.765   1.208  0.8207  0.4978  0.1095
 3351TIP3   OH210058   5.043   5.208   3.550  0.2168  0.5308  0.1049
 3351TIP3    H110059   5.070   5.125   3.589  0.2810  0.2763 -0.4762
 3351TIP3    H210060   4.948   5.204   3.547  0.1944  0.6839  0.5187
 3352TIP3   OH210061   0.200   3.124   2.151 -0.0359 -0.2089 -0.1951
 3352TIP3    H110062   0.265   3.194   2.155 -0.2242  0.0102 -0.8405
 3352TIP3    H210063   0.208   3.089   2.062  0.9158 -1.8372  0.4873
 3353TIP3   OH210064   4.301   4.197   3.046 -0.1012 -0.9361  0.2918
 3353TIP3    H110065   4.379   4.198   3.102 -0.3959 -1.4215  0.7203
 3353TIP3    H210066   4.327   4.244   2.968  0.1741  0.1630  1.0287
 3354TIP3   OH210067   1.933   0.745   4.546 -0.2848  0.2971  0.0740
 3354TIP3    H110068   1.902   0.798   4.620  0.4042 -1.0132  1.3469
 3354TIP3    H210069   1.929   0.655   4.577 -1.4498 -0.4586 -2.0543
 3355TIP3   OH210070   0.180   5.564   2.539 -0.4871  0.2472  0.1046
 3355TIP3    H110071   0.144   5.476   2.541 -1.3787  0.6219  1.2790
 3355TIP3    H210072   0.105   5.621   2.525  0.0906  0.8364 -0.7148
 3356TIP3   OH210073   3.534   1.420   3.581 -0.8670 -0.2108  0.1373
 3356TIP3    H110074   3.563   1.388   3.495  0.2867 -0.0717  0.4633
 3356TIP3    H210075   3.489   1.502   3.562  2.8162  1.9455 -0.0309
 3357TIP3   OH210076   3.108   0.937   3.853  0.6661  0.3721  0.3070
 3357TIP3    H110077   3.083   1.003   3.788 -0.1802 -0.5038 -0.2969
 3357TIP3    H210078   3.069   0.968   3.935 -0.0208  0.4719 -0.0438
 3358TIP3   OH210079   4.596   0.942   4.233  0.1782  0.1198 -0.1548
 3358TIP3    H110080   4.613   1.034   4.255 -1.3900  0.3218  0.3463
 3358TIP3    H210081   4.676   0.897   4.256  1.2397  1.4591 -1.0545
 3359TIP3   OH210082   1.767   2.476   3.707 -0.1222  0.0975  0.5125
 3359TIP3    H110083   1.796   2.541   3.770 -1.9459  1.0280  0.4642
 3359TIP3    H210084   1.810   2.500   3.626 -0.9941  1.4746  0.4209
 3360TIP3   OH210085   2.206   1.879   4.585 -0.2553 -0.3626  0.4555
 3360TIP3    H110086   2.291   1.920   4.570 -1.0129  0.4577 -2.1990
 3360TIP3    H210087   2.166   1.931   4.654  1.7174 -1.4067  2.5150
 3361TIP3   OH210088   4.362   0.542   4.184  0.6638  0.4524 -0.2288
 3361TIP3    H110089   4.371   0.559   4.091 -0.3776  0.1981 -0.3869
 3361TIP3    H210090   4.278   0.497   4.193 -0.0758  1.9676  1.0136
 3362TIP3   OH210091   4.772   3.527   3.498 -0.6970 -0.0696  0.7837
 3362TIP3    H110092   4.779   3.538   3.593  0.8568 -0.2574  0.7235
 3362TIP3    H210093   4.856   3.488   3.473 -1.3948 -0.7464 -0.5676
 3363TIP3   OH210094   3.015   0.782   4.230 -0.1113  0.1909  0.2562
 3363TIP3    H110095   3.065   0.734   4.295  2.2833  1.3263 -0.5939
 3363TIP3    H210096   2.969   0.715   4.180 -0.5245 -0.8196  1.9333
 3364TIP3   OH210097   3.438   4.083   2.077  0.3927  0.7083  0.5193
 3364TIP3    H110098   3.389   4.088   2.160 -0.0531 -1.6174  0.4879
 3364TIP3    H210099   3.372   4.094   2.009 -0.4411 -3.2375  0.4600
 3365TIP3   OH210100   2.563   1.520   3.886 -0.1377  0.1700 -0.1441
 3365TIP3    H110101   2.515   1.587   3.934 -2.6114 -0.1338 -1.9983
 3365TIP3    H210102   2.645   1.562   3.860  0.5270  0.8637  2.7370
 3366TIP3   OH210103   5.528   4.490   0.468 -0.4036  0.7344 -0.0704
 3366TIP3    H110104   5.470   4.561   0.440 -2.1118 -0.3626  0.4733
 3366TIP3    H210105   5.552   4.445   0.387 -0.2542  1.2317 -0.3066
 3367TIP3   OH210106   5.996   2.783   4.433  0.5768 -0.3749  0.3077
 3367TIP3    H110107   5.943   2.704   4.441  0.5237 -0.4474 -0.6119
 3367TIP3    H210108   6.079   2.753   4.396  0.1015  0.1490 -1.2614
 3368TIP3   OH210109   0.331   1.243   1.918 -0.6651 -0.0779  0.1200
 3368TIP3    H110110   0.402   1.292   1.958  0.0983 -0.5092 -0.6484
 3368TIP3    H210111   0.345   1.152   1.947 -2.3457  0.1724  1.9275
 3369TIP3   OH210112   3.433   0.834   0.207 -0.0061 -0.4781 -0.1700
 3369TIP3    H110113   3.434   0.760   0.267  0.6118 -0.4039 -0.0793
 3369TIP3    H210114   3.359   0.817   0.149  0.9965 -1.9374 -1.0812
 3370TIP3   OH210115   1.102   1.142   5.148  0.0017 -0.0851  1.1689
 3370TIP3    H110116   1.121   1.049   5.163 -0.3786 -0.1648  1.1823
 3370TIP3    H210117   1.009   1.143   5.124 -0.0929  0.3298  1.5412
 3371TIP3   OH210118   3.491   5.561   3.767 -0.3331  0.4116 -0.3464
 3371TIP3    H110119   3.411   5.601   3.734  0.5289  1.2086 -1.5188
 3371TIP3    H210120   3.469   5.468   3.775 -1.9493  0.8763  1.1883
 3372TIP3   OH210121   4.826   3.409   0.774  0.3776 -0.3199  0.1568
 3372TIP3    H110122   4.798   3.362   0.853  1.8179 -1.3363  0.1024
 3372TIP3    H210123   4.890   3.473   0.806  2.3658 -1.9493 -0.2993
 3373TIP3   OH210124   0.151   1.456   2.852 -1.0150  0.6464 -0.0899
 3373TIP3    H110125   0.183   1.461   2.762  0.2835  0.4956  0.3422
 3373TIP3    H210126   0.113   1.369   2.859  0.8726 -0.2262  0.0938
 3374TIP3   OH210127   4.203   3.758   1.113 -0.1240 -0.5618  0.0439
 3374TIP3    H110128   4.182   3.774   1.022  0.3092  0.3801  0.0986
 3374TIP3    H210129   4.207   3.845   1.153 -0.2508 -0.9533  0.9463
 3375TIP3   OH210130   4.990   1.683   2.835  0.3889  0.4094  0.2715
 3375TIP3    H110131   4.908   1.730   2.852  0.1097  0.0558 -0.0788
 3375TIP3    H210132   5.058   1.751   2.838  0.0362  0.7698  0.1661
 3376TIP3   OH210133   1.236   4.950   0.628 -0.7605  0.2726 -0.3004
 3376TIP3    H110134   1.171   4.923   0.563  0.0773  1.8505 -1.8631
 3376TIP3    H210135   1.236   5.045   0.624  0.6021  0.3424  0.7463
 3377TIP3   OH210136   2.644   1.917   1.067  0.1989 -0.1200 -0.2632
 3377TIP3    H110137   2.617   1.989   1.009  0.5287 -1.0278 -1.5911
 3377TIP3    H210138   2.596   1.841   1.035  0.9761 -0.8126  0.1649
 3378TIP3   OH210139   3.122   4.342   0.640  0.3121  0.7494 -0.1970
 3378TIP3    H110140   3.032   4.332   0.609  0.0999 -0.0928  0.6461
 3378TIP3    H210141   3.116   4.400   0.716  1.0154  4.1097 -2.4652
 3379TIP3   OH210142   1.215   5.212   0.575  0.5859  0.2227 -0.5418
 3379TIP3    H110143   1.159   5.201   0.498  1.3616 -1.8540 -0.8730
 3379TIP3    H210144   1.169   5.276   0.629 -1.7135 -0.7822 -1.1723
 3380TIP3   OH210145   2.601   1.341   5.077  0.1578  0.2157  0.3049
 3380TIP3    H110146   2.553   1.422   5.064  0.7335  0.3637 -1.0585
 3380TIP3    H210147   2.549   1.274   5.032 -0.5451 -0.2758  1.7968
 3381TIP3   OH210148   4.533   0.830   0.112  0.0284 -0.3341  0.2212
 3381TIP3    H110149   4.504   0.741   0.133 -1.1181 -0.1226 -0.3571
 3381TIP3    H210150   4.452   0.880   0.105  0.3228 -0.0712 -3.0957
 3382TIP3   OH210151   1.675   3.237   3.662 -0.1776 -0.5496  0.1747
 3382TIP3    H110152   1.705   3.178   3.593  1.6959 -0.3565  0.7679
 3382TIP3    H210153   1.587   3.206   3.685 -1.0326 -0.3524 -2.5410
 3383TIP3   OH210154   6.128   4.764   4.322 -0.1588 -0.1873 -0.1849
 3383TIP3    H110155   6.135   4.782   4.228 -2.2463 -0.9888 -0.5473
 3383TIP3    H210156   6.136   4.668   4.329 -0.0087 -0.1354  0.4726
 3384TIP3   OH210157   6.109   4.751   4.621 -0.3541  0.2287  0.0008
 3384TIP3    H110158   6.157   4.734   4.539  0.9314  3.0027  0.0239
 3384TIP3    H210159   6.054   4.674   4.634  1.1213 -1.3314 -2.2385
 3385TIP3   OH210160   3.084   3.616   4.443 -0.3595  0.1325  0.2013
 3385TIP3    H110161   3.117   3.542   4.493  0.9568 -0.3382 -1.2851
 3385TIP3    H210162   3.159   3.674   4.432  0.1824 -1.0077 -3.3476
 3386TIP3   OH210163   6.118   3.137   0.732  0.1596 -0.2028  0.1122
 3386TIP3    H110164   6.095   3.154   0.640  0.3749  1.0696  0.2787
 3386TIP3    H210165   6.135   3.042   0.735 -0.9750 -0.4652 -0.9038
 3387TIP3   OH210166   4.367   0.158   1.373  0.0676 -0.0923  0.3814
 3387TIP3    H110167   4.425   0.228   1.342  0.5204 -0.4323  0.4437
 3387TIP3    H210168   4.279   0.187   1.349  0.1715  0.8534  1.0741
 3388TIP3   OH210169  -0.027   5.479   1.238 -0.6636  0.5008  0.1992
 3388TIP3    H110170  -0.035   5.478   1.333 -2.1916  0.2040  0.0938
 3388TIP3    H210171   0.062   5.512   1.221  0.0863 -0.6475  1.7322
 3389TIP3   OH210172   4.091   3.052   0.941  0.5181 -0.7277 -0.7221
 3389TIP3    H110173   4.096   3.129   0.997  2.9351  0.0741 -1.8987
 3389TIP3    H210174   4.000   3.022   0.949  0.3023  0.4082  2.1276
 3390TIP3   OH210175   2.792   2.264   3.962 -0.3696 -0.5051  0.0311
 3390TIP3    H110176   2.715   2.320   3.972 -0.5058 -1.0036  2.3679
 3390TIP3    H210177   2.756   2.177   3.947 -0.2522 -0.5657  0.0961
 3391TIP3   OH210178   4.187   3.320   4.957  0.4756 -0.3352  0.0852
 3391TIP3    H110179   4.229   3.240   4.989 -1.1191 -1.0292  0.5880
 3391TIP3    H210180   4.094   3.308   4.978 -0.3734  0.1238 -2.9160
 3392TIP3   OH210181   3.551   2.387   5.019  0.8782  0.6292 -0.3680
 3392TIP3    H110182   3.494   2.315   4.993 -0.6213  1.8972 -0.7782
 3392TIP3    H210183   3.610   2.400   4.945  1.9878 -0.9136  0.1917
 3393TIP3   OH210184   1.851   4.113   1.559  0.1462 -0.5517 -0.3222
 3393TIP3    H110185   1.901   4.052   1.506  2.7797  1.2604 -0.1057
 3393TIP3    H210186   1.917   4.161   1.609 -1.9471  0.8621  1.2520
 3394TIP3   OH210187   4.525   2.654   3.085 -0.2323  0.1404 -0.2458
 3394TIP3    H110188   4.481   2.706   3.018 -2.6052 -0.4774  0.7039
 3394TIP3    H210189   4.574   2.588   3.035 -1.6941 -0.1285 -1.4140
 3395TIP3   OH210190   5.594   2.741   2.856  0.1039 -0.0218  0.0995
 3395TIP3    H110191   5.574   2.647   2.861 -1.6105  0.2740 -0.2692
 3395TIP3    H210192   5.647   2.759   2.934 -1.2174 -0.9391  1.2689
 3396TIP3   OH210193   3.344   0.183   1.776 -0.6846  0.3063  0.1712
 3396TIP3    H110194   3.284   0.125   1.730 -0.8597  0.1305  0.6174
 3396TIP3    H210195   3.388   0.233   1.706  0.6493 -1.4748 -0.3318
 3397TIP3   OH210196   4.735   5.683   1.494 -0.0778 -0.0216 -0.4491
 3397TIP3    H110197   4.735   5.766   1.447  2.7537  0.6802  0.5330
 3397TIP3    H210198   4.647   5.649   1.484 -1.0034  2.5282 -1.8815
 3398TIP3   OH210199   2.018   1.734   4.873 -0.1892 -0.4086  0.3655
 3398TIP3    H110200   2.048   1.816   4.833 -3.1786  0.2835 -0.7337
 3398TIP3    H210201   1.982   1.761   4.958  0.1659 -0.8365  0.6563
 3399TIP3   OH210202   6.004   4.765   1.438  0.1722  0.6508  0.0227
 3399TIP3    H110203   6.068   4.703   1.473 -0.3474  0.4983  0.6986
 3399TIP3    H210204   6.012   4.755   1.343 -0.7544 -1.3451  0.1066
 3400TIP3   OH210205   3.222   1.229   1.418 -0.4145 -0.4431 -0.4948
 3400TIP3    H110206   3.260   1.152   1.460 -1.5636 -0.8590 -0.1866
 3400TIP3    H210207   3.232   1.212   1.324 -0.2803 -0.7699 -0.4243
 3401TIP3   OH210208   5.106   1.260   2.313  0.1838 -0.1807  0.5970
 3401TIP3    H110209   5.086   1.180   2.264  0.1612  0.0195  0.2722
 3401TIP3    H210210   5.185   1.295   2.271 -0.8802  0.9956 -0.5585
 3402TIP3   OH210211   6.063   1.636   2.234  0.1414 -0.0634  0.4564
 3402TIP3    H110212   6.024   1.710   2.189 -1.0244 -1.0384 -0.1722
 3402TIP3    H210213   6.090   1.671   2.319  1.9289  1.6841 -0.7424
 3403TIP3   OH210214   6.008   2.295   2.462 -0.1492 -0.1586  0.2147
 3403TIP3    H110215   5.936   2.334   2.413 -2.4499 -1.1670  2.5566
 3403TIP3    H210216   6.020   2.354   2.537 -2.7395 -2.8480  3.0509
 3404TIP3   OH210217   4.793   5.047   3.808 -0.1077  0.3140 -0.0755
 3404TIP3    H110218   4.711   5.038   3.759  0.9909 -2.3299 -1.6013
 3404TIP3    H210219   4.783   4.987   3.882  0.2924  0.3315 -0.0067
 3405TIP3   OH210220   1.544   5.621   3.198  0.4018  0.3454  0.1853
 3405TIP3    H110221   1.557   5.624   3.103 -0.6994  0.0862  0.0129
 3405TIP3    H210222   1.490   5.698   3.217  0.5126  0.3243  0.5843
 3406TIP3   OH210223   0.764   5.601   0.551 -0.3334 -0.1082  0.3773
 3406TIP3    H110224   0.815   5.522   0.534  0.6118  0.2417  1.4283
 3406TIP3    H210225   0.790   5.628   0.639  0.2089  1.9675 -0.3429
 3407TIP3   OH210226   1.329   0.624   4.081  0.0105  0.0742 -0.4284
 3407TIP3    H110227   1.310   0.537   4.048  1.0642  0.3062 -1.7032
 3407TIP3    H210228   1.259   0.641   4.145 -0.4744 -1.4899 -0.5016
 3408TIP3   OH210229   2.212   1.364   3.794  0.3938  0.0937 -0.0676
 3408TIP3    H110230   2.214   1.394   3.885  0.3691  0.7825 -0.2879
 3408TIP3    H210231   2.305   1.360   3.769  0.3815  0.5320 -0.2040
 3409TIP3   OH210232   2.199   2.425   1.540  0.3006  0.6152  0.3589
 3409TIP3    H110233   2.151   2.399   1.619  0.9018 -1.4611  0.0804
 3409TIP3    H210234   2.208   2.345   1.489  3.2247  1.1181 -0.0592
 3410TIP3   OH210235   4.155   4.796   3.944  0.1517 -0.1271  0.2831
 3410TIP3    H110236   4.137   4.888   3.925  0.7220  0.0088  0.3954
 3410TIP3    H210237   4.183   4.796   4.036 -0.1710 -0.4591  0.3856
 3411TIP3   OH210238   4.374   2.156   1.195  0.0161  0.4063 -0.2125
 3411TIP3    H110239   4.344   2.190   1.279 -0.3402 -1.9661  0.7029
 3411TIP3    H210240   4.343   2.220   1.130 -0.4972  1.8123  1.3638
 3412TIP3   OH210241   1.097   1.867   4.753 -0.0571 -0.4972  0.7521
 3412TIP3    H110242   1.068   1.931   4.689  1.8266 -0.3199 -0.0029
 3412TIP3    H210243   1.032   1.871   4.823 -0.7027  1.2628  0.0989
 3413TIP3   OH210244   4.255   4.195   0.150  0.1731 -0.7507  0.4651
 3413TIP3    H110245   4.263   4.157   0.238 -1.3744  0.0394  0.9898
 3413TIP3    H210246   4.188   4.142   0.107 -0.5939  0.1215  0.5288
 3414TIP3   OH210247   5.390   3.677   0.928 -0.3796  0.4700 -0.1113
 3414TIP3    H110248   5.374   3.677   1.022  1.2228 -0.2764  0.1818
 3414TIP3    H210249   5.448   3.602   0.913  2.5441  2.7423 -1.1127
 3415TIP3   OH210250   5.795   1.601   0.536 -0.2836 -0.9457 -0.4523
 3415TIP3    H110251   5.708   1.562   0.531 -0.5345 -0.7902  1.6624
 3415TIP3    H210252   5.793   1.673   0.472 -1.3154 -1.6247 -1.2050
 3416TIP3   OH210253   0.277   4.163   1.627 -0.0782  0.3908 -0.9033
 3416TIP3    H110254   0.366   4.141   1.597 -0.5040  0.6778 -2.4530
 3416TIP3    H210255   0.277   4.258   1.632  0.8968  0.3287  3.0626
 3417TIP3   OH210256   1.400   1.092   4.545  0.0367 -0.1793 -0.2251
 3417TIP3    H110257   1.326   1.032   4.539  0.5428 -0.8895  0.4275
 3417TIP3    H210258   1.416   1.120   4.455 -0.3833 -0.8116 -0.4990
 3418TIP3   OH210259   5.418   1.327   1.678  1.1865 -0.1166 -0.2577
 3418TIP3    H110260   5.369   1.399   1.637  0.8280  0.1766  0.6643
 3418TIP3    H210261   5.355   1.255   1.684  1.7896 -0.8245 -1.9743
 3419TIP3   OH210262   0.503   5.714   3.668 -0.2244  0.1167  0.0411
 3419TIP3    H110263   0.565   5.750   3.604 -0.2653  1.0517  0.5118
 3419TIP3    H210264   0.556   5.657   3.723  0.0528  0.2311 -0.1042
 3420TIP3   OH210265   2.048   3.999   2.426  0.1076 -0.4419 -0.2397
 3420TIP3    H110266   2.143   3.997   2.439 -0.0039  0.4495  0.9368
 3420TIP3    H210267   2.033   4.079   2.376 -0.0891 -0.1132  0.3358
 3421TIP3   OH210268   4.374   0.960   3.281 -0.0104  0.0398  0.4259
 3421TIP3    H110269   4.403   0.869   3.285 -0.8311 -0.2177  0.7996
 3421TIP3    H210270   4.387   0.993   3.370  1.4738  0.6860 -0.0021
 3422TIP3   OH210271   1.030   2.904   4.922  0.2700 -0.0304  0.4290
 3422TIP3    H110272   0.991   2.988   4.949  2.1124  0.2603  2.4877
 3422TIP3    H210273   0.992   2.887   4.836 -3.6909  0.5802  1.8565
 3423TIP3   OH210274   5.804   1.990   2.515  0.2809  0.9971 -0.1791
 3423TIP3    H110275   5.798   1.900   2.545 -1.4918  0.1272 -2.8004
 3423TIP3    H210276   5.891   1.996   2.475 -0.8598 -0.8342 -3.3134
 3424TIP3   OH210277   1.255   3.929   3.965  0.4317  0.0047  0.5572
 3424TIP3    H110278   1.291   3.850   4.004  1.2965  0.2060  0.1978
 3424TIP3    H210279   1.218   3.900   3.882 -2.5486 -0.6556  1.9914
 3425TIP3   OH210280   3.949   0.692   4.977 -0.8125  0.1544  0.0496
 3425TIP3    H110281   3.910   0.610   5.007 -2.0848 -1.0218 -4.1587
 3425TIP3    H210282   4.043   0.677   4.983 -0.9771 -0.5144  1.7673
 3426TIP3   OH210283   0.630   3.659   0.350  0.8475 -0.0567  0.3078
 3426TIP3    H110284   0.566   3.590   0.332  0.5170  0.6245 -1.2861
 3426TIP3    H210285   0.680   3.626   0.426  0.6721 -2.0114 -0.3621
 3427TIP3   OH210286   1.771   0.577   0.069  0.3918 -0.3045 -0.6618
 3427TIP3    H110287   1.828   0.505   0.098 -0.5972 -0.5361  0.8149
 3427TIP3    H210288   1.800   0.653   0.119  0.5628  0.0100 -1.2326
 3428TIP3   OH210289   1.240   1.199   3.122 -0.3968  0.8705 -0.2162
 3428TIP3    H110290   1.298   1.149   3.064 -0.2658  0.1325  0.5322
 3428TIP3    H210291   1.299   1.248   3.179 -0.5005  0.2143  0.4641
 3429TIP3   OH210292   0.772   5.127   3.914 -0.0886  0.4775 -0.3242
 3429TIP3    H110293   0.775   5.069   3.838 -0.4099 -2.3278  1.6399
 3429TIP3    H210294   0.680   5.131   3.938  0.0867  0.7556  0.3343
 3430TIP3   OH210295   0.082   2.366   1.497  0.2448  1.0235 -0.5126
 3430TIP3    H110296   0.164   2.415   1.491  0.3844  0.8679  0.0986
 3430TIP3    H210297   0.109   2.278   1.526 -0.0856  0.8194 -0.8095
 3431TIP3   OH210298   1.646   5.625   0.887  0.2241 -0.7346  0.3536
 3431TIP3    H110299   1.568   5.673   0.916  0.4792 -1.2054  1.8695
 3431TIP3    H210300   1.665   5.564   0.957  0.6435 -2.2367 -1.0022
 3432TIP3   OH210301   4.494   3.120   2.381  0.3224  0.6036 -0.1920
 3432TIP3    H110302   4.494   3.048   2.319 -0.7828  1.6723 -1.4816
 3432TIP3    H210303   4.586   3.148   2.385  0.4750  0.2514 -1.0344
 3433TIP3   OH210304   1.201   4.853   2.761  0.0728  0.1528 -0.0267
 3433TIP3    H110305   1.162   4.906   2.692  2.0893  0.3815 -1.0620
 3433TIP3    H210306   1.245   4.916   2.817  2.1037 -0.3200 -1.0095
 3434TIP3   OH210307   5.557   5.528   0.502 -0.3426  0.9587  0.1125
 3434TIP3    H110308   5.510   5.604   0.468 -0.9181  0.1656 -0.9036
 3434TIP3    H210309   5.650   5.552   0.492 -0.5111  1.7277  0.2906
 3435TIP3   OH210310   5.800   0.736   0.840  0.0227  0.2132 -0.4026
 3435TIP3    H110311   5.758   0.665   0.791 -1.4806  0.2245  0.8149
 3435TIP3    H210312   5.731   0.772   0.895  0.8209  2.4944 -0.8044
 3436TIP3   OH210313   6.036   0.147   4.085 -0.3977  0.3203  0.1461
 3436TIP3    H110314   6.070   0.219   4.137  0.9838 -0.2440  0.0868
 3436TIP3    H210315   5.993   0.089   4.148  0.9633 -0.1866  0.6570
 3437TIP3   OH210316   0.167   4.036   2.868  0.9840 -0.1370  0.2757
 3437TIP3    H110317   0.109   4.111   2.854  0.8056 -0.4786 -0.9429
 3437TIP3    H210318   0.124   3.964   2.821  1.0922 -1.0403  1.5227
 3438TIP3   OH210319   6.293   1.441   0.419 -0.2037 -0.2418  0.3046
 3438TIP3    H110320   6.227   1.376   0.441 -0.8607  0.1241 -0.4789
 3438TIP3    H210321   6.309   1.489   0.500  0.0775 -1.1911  0.8129
 3439TIP3   OH210322   4.600   3.805   3.495  0.0416  0.6777  0.7684
 3439TIP3    H110323   4.684   3.835   3.460  0.0158 -0.4871 -0.3922
 3439TIP3    H210324   4.547   3.787   3.418 -1.3904  1.6541  1.4960
 3440TIP3   OH210325   1.412   3.548   0.225  0.2290 -0.1273  0.1656
 3440TIP3    H110326   1.411   3.628   0.173 -0.5946 -0.6960 -0.7076
 3440TIP3    H210327   1.396   3.578   0.315 -0.7870  0.6142 -0.2504
 3441TIP3   OH210328   3.054   2.191   0.466 -0.1708  0.1012 -0.1288
 3441TIP3    H110329   3.104   2.111   0.482  0.6807  0.8968  1.4335
 3441TIP3    H210330   3.120   2.260   0.462 -1.0055  0.9278  0.0499
 3442TIP3   OH210331   1.200   3.655   4.439  0.1009 -0.0629 -0.2991
 3442TIP3    H110332   1.215   3.566   4.407 -0.8621  0.0826 -1.2159
 3442TIP3    H210333   1.120   3.648   4.491 -0.5266  0.4202 -1.1658
 3443TIP3   OH210334   5.810   0.974   2.426  0.6086  0.0378 -0.1172
 3443TIP3    H110335   5.808   1.055   2.477  0.4839 -0.0465  0.0127
 3443TIP3    H210336   5.746   0.988   2.356  1.3292  0.4537 -0.7133
 3444TIP3   OH210337   3.334   2.260   4.340 -0.0709 -0.3281 -0.1047
 3444TIP3    H110338   3.397   2.331   4.348  0.3928 -0.9514  2.7969
 3444TIP3    H210339   3.251   2.303   4.322  0.0568  1.1128  2.2960
 3445TIP3   OH210340   2.141   2.114   3.081 -0.0713 -0.2001 -0.6670
 3445TIP3    H110341   2.146   2.206   3.055  0.9889 -0.1590 -0.3629
 3445TIP3    H210342   2.064   2.080   3.035 -1.4381  1.2336  0.4808
 3446TIP3   OH210343   4.047   0.347   0.578  0.0253  0.6082  0.5359
 3446TIP3    H110344   4.125   0.292   0.580  0.4962  1.2833  1.0073
 3446TIP3    H210345   4.069   0.422   0.632 -0.8361  0.9687  0.4031
 3447TIP3   OH210346   4.512   2.094   4.956 -0.1006 -0.0687 -0.1123
 3447TIP3    H110347   4.512   2.131   4.868  1.1828  0.8076  0.2282
 3447TIP3    H210348   4.511   2.170   5.015  0.3638 -0.6005  0.6095
 3448TIP3   OH210349   0.082   0.871   0.883  0.3903 -0.3744 -0.2895
 3448TIP3    H110350   0.164   0.878   0.834  0.0238  0.7211 -0.7900
 3448TIP3    H210351   0.015   0.902   0.821 -0.0621  1.2554  0.9572
 3449TIP3   OH210352   6.200   0.749   1.093  0.4759  0.5048 -0.2674
 3449TIP3    H110353   6.144   0.784   1.024  0.8439 -2.5393 -2.3070
 3449TIP3    H210354   6.140   0.713   1.157  0.1141  1.1888 -0.2185
 3450TIP3   OH210355   5.502   4.618   2.460 -0.9272 -0.5259  0.1813
 3450TIP3    H110356   5.550   4.610   2.543  0.6051 -2.1584 -0.7897
 3450TIP3    H210357   5.440   4.545   2.461 -1.2045 -0.2951  0.0549
 3451TIP3   OH210358   4.889   2.540   2.405 -0.2438 -1.0809  0.2484
 3451TIP3    H110359   4.891   2.461   2.351 -1.4324 -1.3808  0.6061
 3451TIP3    H210360   4.871   2.611   2.344 -0.5615 -1.2874  0.0975
 3452TIP3   OH210361   4.195   5.545   2.494  0.0827 -0.3040  0.0994
 3452TIP3    H110362   4.137   5.531   2.419 -0.4682 -0.8427  0.6180
 3452TIP3    H210363   4.213   5.639   2.493  1.7147 -0.5793 -1.8878
 3453TIP3   OH210364   1.497   2.413   0.415 -0.3646 -0.0998 -0.0897
 3453TIP3    H110365   1.402   2.397   0.415 -0.7044  1.5874  1.5007
 3453TIP3    H210366   1.508   2.490   0.471  1.8755  0.2996 -0.9909
 3454TIP3   OH210367   1.306   2.386   1.227  0.4014 -0.3206 -0.1587
 3454TIP3    H110368   1.211   2.372   1.226  0.5176 -1.1151 -0.6284
 3454TIP3    H210369   1.338   2.330   1.298  0.7007 -1.3130 -1.0629
 3455TIP3   OH210370   3.543   5.675   2.052  0.1527  0.2952  0.1014
 3455TIP3    H110371   3.515   5.590   2.018  1.7361 -0.3625  0.3161
 3455TIP3    H210372   3.578   5.721   1.976  0.8524  0.0544  0.2637
 3456TIP3   OH210373   5.384   2.445   0.369 -0.7236 -0.1778 -0.1134
 3456TIP3    H110374   5.449   2.514   0.356 -0.5706 -0.5691 -1.6544
 3456TIP3    H210375   5.436   2.365   0.382 -0.8992 -0.0606  1.4425
 3457TIP3   OH210376   6.084   5.213   4.691  0.2313 -0.1165 -0.1961
 3457TIP3    H110377   6.043   5.269   4.756  0.2065  0.7915 -0.9732
 3457TIP3    H210378   6.037   5.232   4.610  1.3421 -0.0077 -0.8300
 3458TIP3   OH210379   2.885   5.268   1.975 -0.0384  0.0083 -0.5316
 3458TIP3    H110380   2.793   5.261   1.949 -0.4715 -1.0810  1.1136
 3458TIP3    H210381   2.900   5.362   1.984 -1.4973  0.1649  0.7337
 3459TIP3   OH210382   1.974   3.916   5.145  0.3240  0.1904  0.0409
 3459TIP3    H110383   1.969   3.826   5.176  0.5670  0.3584  0.5760
 3459TIP3    H210384   1.995   3.909   5.051  1.9004 -0.2797  0.4072
 3460TIP3   OH210385   4.496   4.794   1.941  0.4118 -0.1222  0.3188
 3460TIP3    H110386   4.437   4.812   1.869 -0.4180 -0.5820  0.8672
 3460TIP3    H210387   4.512   4.880   1.981  1.0613  0.1654 -0.5337
 3461TIP3   OH210388   4.856   5.542   4.627 -0.1489  0.0812 -0.3566
 3461TIP3    H110389   4.936   5.577   4.667 -0.7962  1.2828 -0.0436
 3461TIP3    H210390   4.786   5.580   4.680 -0.9257 -1.2052 -0.4385
 3462TIP3   OH210391   2.389   2.120   0.273  0.7244  0.5699  0.3543
 3462TIP3    H110392   2.336   2.173   0.214 -0.0988  1.7548  2.0529
 3462TIP3    H210393   2.362   2.030   0.256  0.0570  0.9436 -0.6186
 3463TIP3   OH210394   3.435   2.643   5.003 -0.6371 -0.1572  0.2860
 3463TIP3    H110395   3.463   2.551   5.001 -0.6335 -0.1611  0.5408
 3463TIP3    H210396   3.348   2.642   4.964 -0.9056 -0.3661  0.8781
 3464TIP3   OH210397   1.324   4.101   2.780  0.1677  0.1167 -0.0235
 3464TIP3    H110398   1.411   4.063   2.791 -0.1937 -0.5897  0.4924
 3464TIP3    H210399   1.338   4.195   2.780  0.8440  0.0203  0.8420
 3465TIP3   OH210400   6.303   2.062   0.355 -0.2181  0.5173  0.1413
 3465TIP3    H110401   6.317   2.145   0.309  0.4447  0.0040 -0.6185
 3465TIP3    H210402   6.210   2.042   0.342 -0.2369  0.8325 -0.2008
 3466TIP3   OH210403   0.977   3.824   0.877 -0.7016 -0.2966  0.5252
 3466TIP3    H110404   0.902   3.876   0.848 -2.7817 -3.1475  0.4164
 3466TIP3    H210405   0.976   3.746   0.822  3.1658  0.0567 -0.2980
 3467TIP3   OH210406   1.903   0.584   2.315 -0.1206  0.1840 -0.0445
 3467TIP3    H110407   1.951   0.652   2.268  0.7672 -0.5089 -0.1564
 3467TIP3    H210408   1.866   0.529   2.246  1.7895 -1.2605 -0.0034
 3468TIP3   OH210409   5.589   3.978   5.136 -0.4864 -0.0128  0.0395
 3468TIP3    H110410   5.622   3.924   5.208 -2.2033 -2.0544 -0.6096
 3468TIP3    H210411   5.497   3.992   5.158 -0.4145  1.5216 -0.5275
 3469TIP3   OH210412   0.557   0.458   3.777 -0.0969  0.6739  0.1307
 3469TIP3    H110413   0.490   0.516   3.813 -0.9966  0.6511 -1.3969
 3469TIP3    H210414   0.620   0.446   3.848 -1.2559  1.4042  1.3253
 3470TIP3   OH210415   4.908   5.962   3.136 -0.3014  0.0750  0.1943
 3470TIP3    H110416   4.866   6.037   3.178 -0.6188  0.1555 -0.2562
 3470TIP3    H210417   4.840   5.925   3.080  0.2161  0.2006 -0.5382
 3471TIP3   OH210418   2.118   3.539   1.746  0.5415  0.3842  0.6667
 3471TIP3    H110419   2.134   3.455   1.790 -2.2625 -0.6419 -0.0707
 3471TIP3    H210420   2.121   3.518   1.653 -2.1027  0.5933  0.4692
 3472TIP3   OH210421   1.020   5.677   4.264  0.1067 -0.4557 -1.0417
 3472TIP3    H110422   1.064   5.675   4.349 -1.3924 -1.6078 -0.2417
 3472TIP3    H210423   1.077   5.731   4.209  1.3050  0.0139  0.5744
 3473TIP3   OH210424   0.148   2.872   2.847  0.1383 -0.0268 -0.2898
 3473TIP3    H110425   0.086   2.848   2.778 -0.9585 -0.4382  0.8113
 3473TIP3    H210426   0.099   2.929   2.906  0.1688 -1.8645  1.6304
 3474TIP3   OH210427   4.394   3.591   4.132  0.1993 -0.1228 -0.2263
 3474TIP3    H110428   4.467   3.584   4.194  0.4000  0.7784 -0.3574
 3474TIP3    H210429   4.408   3.519   4.070  0.9730  0.0399 -0.2468
 3475TIP3   OH210430   0.105   5.113   2.719 -0.1258 -0.4352  0.4465
 3475TIP3    H110431   0.081   5.031   2.675  0.1589 -0.8273  1.0055
 3475TIP3    H210432   0.194   5.131   2.690 -0.1874 -0.3254  0.3260
 3476TIP3   OH210433   4.602   4.052   3.628 -0.5683  0.6346 -0.7125
 3476TIP3    H110434   4.637   4.101   3.553 -3.0172  1.5363 -1.3700
 3476TIP3    H210435   4.586   3.964   3.593 -1.8167  1.0848 -1.3478
 3477TIP3   OH210436   3.556   4.917   3.158  0.1348  0.5302  0.2184
 3477TIP3    H110437   3.595   4.830   3.166  0.8295  0.7061 -0.9493
 3477TIP3    H210438   3.628   4.977   3.176 -0.2259  0.8685  0.5457
 3478TIP3   OH210439   5.553   2.540   5.197 -0.5900 -0.1206 -0.4414
 3478TIP3    H110440   5.578   2.463   5.145 -0.4317 -1.3034  1.2892
 3478TIP3    H210441   5.462   2.558   5.171 -1.3411 -2.1866  0.5310
 3479TIP3   OH210442   0.802   0.807   0.618  0.0623  0.3686 -0.3352
 3479TIP3    H110443   0.819   0.721   0.658  0.2266  0.4331 -0.2644
 3479TIP3    H210444   0.883   0.828   0.571  1.1845  1.8139  2.0482
 3480TIP3   OH210445   4.323   0.993   5.021  0.4341  0.0802 -0.3236
 3480TIP3    H110446   4.369   1.069   4.984  0.3990  0.3573  0.2001
 3480TIP3    H210447   4.310   0.935   4.946 -0.8728  1.2522 -1.0337
 3481TIP3   OH210448   1.069   1.762   1.641 -0.0443  0.1009  0.1466
 3481TIP3    H110449   1.028   1.689   1.688 -1.8254  1.9893  1.7379
 3481TIP3    H210450   1.025   1.765   1.557  1.2405 -1.6265 -0.6549
 3482TIP3   OH210451   1.267   4.299   4.403 -0.4105  0.1564  0.1973
 3482TIP3    H110452   1.361   4.311   4.390 -0.4795  1.7240  0.8472
 3482TIP3    H210453   1.251   4.207   4.382  1.0674  0.1304 -1.0003
 3483TIP3   OH210454   0.925   4.296   3.151  0.0330 -0.0066  0.0401
 3483TIP3    H110455   0.858   4.354   3.186 -0.5075 -0.4585 -0.2238
 3483TIP3    H210456   0.876   4.221   3.116  0.6331 -0.1162 -0.5979
 3484TIP3   OH210457   4.533   5.530   2.048 -0.1000  0.3563 -0.5376
 3484TIP3    H110458   4.503   5.593   1.983  0.9684  1.0322 -0.3999
 3484TIP3    H210459   4.500   5.445   2.017  0.2786  0.6842 -1.8801
 3485TIP3   OH210460   1.678   0.869   2.100  0.1124  0.4783  0.4008
 3485TIP3    H110461   1.769   0.841   2.104 -0.4675 -2.3576 -2.4670
 3485TIP3    H210462   1.681   0.957   2.062  1.6435  0.7647  1.1265
 3486TIP3   OH210463   6.169   4.979   1.825 -0.4808 -0.1956 -0.1580
 3486TIP3    H110464   6.259   4.995   1.853  0.4483 -1.4854 -2.1842
 3486TIP3    H210465   6.122   5.059   1.848  1.2716  0.7009  0.4966
 3487TIP3   OH210466   4.040   5.448   2.705  0.2414 -0.8810 -0.0617
 3487TIP3    H110467   4.089   5.499   2.641  1.3657 -0.7906  0.8415
 3487TIP3    H210468   4.105   5.421   2.769 -1.1000  0.6648  2.1159
 3488TIP3   OH210469   5.782   1.641   3.701 -0.4691  0.0550 -0.0058
 3488TIP3    H110470   5.781   1.628   3.606 -1.6911 -0.4290  0.0530
 3488TIP3    H210471   5.871   1.620   3.727 -0.2530 -0.2898 -0.9833
 3489TIP3   OH210472   3.220   3.075   0.671  0.3011 -0.2052 -0.0320
 3489TIP3    H110473   3.269   2.997   0.696  0.7214  0.4549  1.2913
 3489TIP3    H210474   3.202   3.063   0.578  0.9308 -1.5610 -0.0039
 3490TIP3   OH210475   1.399   3.112   3.378  0.0340  0.1359  0.0138
 3490TIP3    H110476   1.311   3.103   3.414  0.5335  1.7510  1.7277
 3490TIP3    H210477   1.394   3.188   3.320  0.3110  0.2015  0.0754
 3491TIP3   OH210478   1.079   2.039   3.475 -0.4311 -0.1041  0.7920
 3491TIP3    H110479   0.994   2.059   3.514 -1.3094 -1.7835 -0.1629
 3491TIP3    H210480   1.100   2.117   3.424 -2.0551 -0.1715 -0.0412
 3492TIP3   OH210481   4.031   2.930   2.188 -0.2011  0.5067 -0.6893
 3492TIP3    H110482   4.119   2.950   2.220 -0.1877  1.5150 -1.3279
 3492TIP3    H210483   3.999   2.862   2.248  0.9918  0.1461 -0.4364
 3493TIP3   OH210484   0.137   4.547   1.417 -0.2549 -0.3041 -0.0860
 3493TIP3    H110485   0.084   4.544   1.497  2.8667  0.5496  2.1879
 3493TIP3    H210486   0.133   4.457   1.384 -1.8558 -0.6149  0.8018
 3494TIP3   OH210487   0.372   0.778   2.131 -0.3677 -0.3129 -0.4118
 3494TIP3    H110488   0.302   0.733   2.178  1.0357 -1.7689  0.3718
 3494TIP3    H210489   0.435   0.802   2.199 -0.0755  0.9949 -1.0997
 3495TIP3   OH210490   0.471   0.955   0.267 -0.2148  0.2190  0.2906
 3495TIP3    H110491   0.431   0.868   0.274 -0.5548  0.3261 -0.2307
 3495TIP3    H210492   0.411   1.013   0.314  0.9553 -0.0888  2.2857
 3496TIP3   OH210493   2.650   3.188   1.920  0.1232  0.9061  0.1304
 3496TIP3    H110494   2.682   3.114   1.869 -1.6739  0.3805 -0.2800
 3496TIP3    H210495   2.634   3.153   2.007 -1.6512  0.5298 -0.3142
 3497TIP3   OH210496   6.305   5.781   4.068 -0.0997 -0.0211  0.0054
 3497TIP3    H110497   6.234   5.832   4.107  1.3365  1.8528  0.3027
 3497TIP3    H210498   6.351   5.843   4.012  1.6412 -1.0261  0.2637
 3498TIP3   OH210499   4.120   2.004   4.241  0.2208  0.7754  0.2767
 3498TIP3    H110500   4.039   1.995   4.290  1.4906 -1.0871  2.2151
 3498TIP3    H210501   4.116   1.935   4.175  0.6269  0.0130  1.0314
 3499TIP3   OH210502   4.976   3.347   1.897 -0.0068 -0.0068  0.3456
 3499TIP3    H110503   5.066   3.379   1.893 -0.5581  1.4775 -1.1876
 3499TIP3    H210504   4.930   3.408   1.954 -0.0926 -0.7106  1.0566
 3500TIP3   OH210505   1.166   2.508   0.877 -0.0811  0.2172 -0.1952
 3500TIP3    H110506   1.164   2.588   0.823 -0.0377  0.2143 -0.2014
 3500TIP3    H210507   1.144   2.438   0.816  0.2843  0.1747 -0.2814
 3501TIP3   OH210508   0.987   0.761   1.270  0.6912  0.5254  0.1384
 3501TIP3    H110509   0.917   0.795   1.326 -0.6365  0.6612 -1.4989
 3501TIP3    H210510   1.025   0.838   1.229  3.0647  0.6260  2.2781
 3502TIP3   OH210511   3.947   5.973   3.207 -0.3896 -0.0887 -0.2326
 3502TIP3    H110512   3.950   6.000   3.299 -1.5675 -1.3021  0.1847
 3502TIP3    H210513   3.873   5.912   3.202 -0.1579 -0.2682 -1.9258
 3503TIP3   OH210514   5.555   5.135   3.698  0.6387 -0.4533 -0.9341
 3503TIP3    H110515   5.467   5.155   3.666  0.1810 -0.6598  0.1715
 3503TIP3    H210516   5.608   5.209   3.669 -0.4080  0.9146  0.5129
 3504TIP3   OH210517   1.850   5.902   3.049 -0.3232 -0.6863  0.3345
 3504TIP3    H110518   1.871   5.935   3.137  1.8997 -0.8408 -0.0710
 3504TIP3    H210519   1.778   5.957   3.019  0.3489  0.8537  1.4174
 3505TIP3   OH210520   4.925   1.263   0.721 -0.2835  0.1391 -0.2299
 3505TIP3    H110521   4.916   1.170   0.698  0.9337  0.3541 -1.7091
 3505TIP3    H210522   5.018   1.273   0.740 -0.7974  0.5409  2.5129
 3506TIP3   OH210523   6.164   0.634   0.057  0.2904 -0.3808  0.4214
 3506TIP3    H110524   6.180   0.544   0.029 -0.9015 -0.6232  0.4714
 3506TIP3    H210525   6.145   0.627   0.151  0.6973 -0.0137  0.5332
 3507TIP3   OH210526   4.374   2.793   1.687 -0.3338 -0.5220 -0.0855
 3507TIP3    H110527   4.387   2.767   1.596 -1.0138 -1.3267  0.0341
 3507TIP3    H210528   4.325   2.875   1.682  1.7968  0.8237 -0.4676
 3508TIP3   OH210529   1.593   0.145   4.799  0.2611 -0.1794 -0.4421
 3508TIP3    H110530   1.507   0.119   4.833  0.5452 -1.3586 -0.5937
 3508TIP3    H210531   1.599   0.101   4.714  0.8325  0.2628 -0.6304
 3509TIP3   OH210532   5.617   1.271   1.491  0.1131 -0.2286  0.4009
 3509TIP3    H110533   5.688   1.237   1.546  0.3259 -0.7787 -0.1969
 3509TIP3    H210534   5.546   1.289   1.553  1.5148  2.6262  1.3749
 3510TIP3   OH210535   6.126   2.170   4.560 -0.0140  0.1416 -0.2620
 3510TIP3    H110536   6.142   2.115   4.637  0.6564  1.3298  0.4913
 3510TIP3    H210537   6.093   2.110   4.493  1.8553 -1.3943  0.1026
 3511TIP3   OH210538   1.188   1.326   4.794  0.0192 -0.0706 -0.2116
 3511TIP3    H110539   1.207   1.417   4.819  3.2007 -1.2201  2.1983
 3511TIP3    H210540   1.224   1.318   4.705  0.2187  0.8687 -0.2318
 3512TIP3   OH210541   5.382   5.909   4.927  0.6207 -0.4075 -0.2360
 3512TIP3    H110542   5.359   5.834   4.872 -0.7248 -1.0906  1.1730
 3512TIP3    H210543   5.362   5.881   5.016  2.7580  0.6534  0.6579
 3513TIP3   OH210544   5.726   4.467   0.069  0.8773  0.1365 -0.0868
 3513TIP3    H110545   5.652   4.460   0.129  1.4391  1.9522  0.8733
 3513TIP3    H210546   5.713   4.395   0.006 -2.0457  0.7966 -0.3530
 3514TIP3   OH210547   5.518   2.340   1.859 -0.5323  0.2065 -0.1151
 3514TIP3    H110548   5.456   2.329   1.931 -0.8689 -1.6718 -0.6210
 3514TIP3    H210549   5.545   2.250   1.838  1.3865  0.8875 -0.7570
 3515TIP3   OH210550   5.007   3.212   4.102 -0.0729  0.0293 -0.7994
 3515TIP3    H110551   4.932   3.264   4.073 -0.5795 -0.5346 -0.5175
 3515TIP3    H210552   4.969   3.140   4.152  0.5547 -1.1058 -1.9004
 3516TIP3   OH210553   4.662   2.515   1.283  0.0132  0.2353  0.0999
 3516TIP3    H110554   4.742   2.533   1.332  0.8828  1.7514 -1.7304
 3516TIP3    H210555   4.616   2.599   1.282 -1.1394 -0.3782  0.2933
 3517TIP3   OH210556   2.923   0.512   3.679  0.1081 -0.5236  0.1105
 3517TIP3    H110557   2.992   0.578   3.667  1.8999 -2.5150 -1.3755
 3517TIP3    H210558   2.881   0.536   3.761 -0.1017  3.0622 -0.8646
 3518TIP3   OH210559   3.696   4.014   2.354 -0.1491 -0.3011 -0.7186
 3518TIP3    H110560   3.698   3.941   2.292 -1.6859 -0.6953 -0.3616
 3518TIP3    H210561   3.655   3.977   2.432  0.7068  0.4882  0.1208
 3519TIP3   OH210562   0.949   4.060   4.535  0.4197 -0.0713  0.2654
 3519TIP3    H110563   0.992   4.013   4.607 -1.0261 -0.5288  0.8748
 3519TIP3    H210564   0.929   3.991   4.472  1.6939  0.3324 -0.6110
 3520TIP3   OH210565   2.221   5.721   3.469 -0.5141 -0.1937  0.4800
 3520TIP3    H110566   2.180   5.770   3.398 -0.8716  0.1299  0.9108
 3520TIP3    H210567   2.314   5.718   3.445 -0.8094 -1.2909 -0.7220
 3521TIP3   OH210568   5.714   1.767   0.301  0.6692 -0.1741 -0.4460
 3521TIP3    H110569   5.635   1.813   0.272  0.6961  0.5968  0.6200
 3521TIP3    H210570   5.703   1.678   0.268 -1.3438 -0.4789  0.8080
 3522TIP3   OH210571   4.641   4.500   3.481  0.2077 -0.2980  0.2946
 3522TIP3    H110572   4.658   4.593   3.495  0.5851 -0.5151  1.3435
 3522TIP3    H210573   4.549   4.496   3.457  0.0652  0.3002  0.7246
 3523TIP3   OH210574   2.161   0.271   0.321 -0.1941 -0.0341 -0.1680
 3523TIP3    H110575   2.078   0.319   0.333 -1.3499 -1.7749 -0.7476
 3523TIP3    H210576   2.142   0.183   0.352  1.0511 -0.8279 -1.5330
 3524TIP3   OH210577   3.757   5.454   2.756 -0.1354  0.4861  0.7166
 3524TIP3    H110578   3.741   5.536   2.803  0.1949  0.0789  1.5768
 3524TIP3    H210579   3.845   5.465   2.718 -1.4089  1.8496 -2.1166
 3525TIP3   OH210580   1.996   1.622   2.362 -0.4971 -0.1775 -0.2887
 3525TIP3    H110581   2.049   1.613   2.441  0.1492 -0.1673 -0.7092
 3525TIP3    H210582   1.910   1.650   2.393 -0.1363  0.2105  0.3743
 3526TIP3   OH210583   1.496   2.306   0.167  0.0007 -0.3194  0.1299
 3526TIP3    H110584   1.459   2.221   0.143 -3.5724  0.8558  0.9786
 3526TIP3    H210585   1.519   2.296   0.260 -1.9224  0.0186  0.6894
 3527TIP3   OH210586   5.009   5.510   1.877 -0.1462  0.2167 -0.0220
 3527TIP3    H110587   5.078   5.574   1.896 -0.0669 -0.2078  1.1984
 3527TIP3    H210588   5.056   5.429   1.858 -0.2997 -0.0763  0.8228
 3528TIP3   OH210589   5.056   1.131   4.515  0.1042 -0.1769  0.1277
 3528TIP3    H110590   5.062   1.038   4.492 -0.2422  0.1000 -1.1727
 3528TIP3    H210591   5.119   1.142   4.586 -0.0845 -1.4670  0.5332
 3529TIP3   OH210592   0.842   0.335   1.158 -0.3737 -0.3166  0.8960
 3529TIP3    H110593   0.909   0.404   1.156 -0.4953 -0.2077  0.3790
 3529TIP3    H210594   0.778   0.365   1.222 -0.3650 -0.0015  0.7590
 3530TIP3   OH210595   2.202   0.637   0.529  0.2533 -0.5818  0.0719
 3530TIP3    H110596   2.219   0.727   0.556  0.4381 -0.8381  0.8245
 3530TIP3    H210597   2.233   0.634   0.438 -0.1201  0.2134 -0.0887
 3531TIP3   OH210598   3.518   0.563   1.686 -0.2763 -0.5785  0.0726
 3531TIP3    H110599   3.511   0.599   1.598 -1.0968 -1.5760 -0.2986
 3531TIP3    H210600   3.504   0.638   1.744  0.7771  0.1856 -0.6205
 3532TIP3   OH210601   5.637   4.212   3.603  0.0326 -0.1163  0.0492
 3532TIP3    H110602   5.566   4.166   3.558  1.3125 -2.0543 -0.1368
 3532TIP3    H210603   5.716   4.179   3.561  1.2609 -1.3761  3.0866
 3533TIP3   OH210604   4.383   4.688   0.369 -0.5419  0.1433  0.1051
 3533TIP3    H110605   4.359   4.697   0.277 -1.4088 -1.8574  0.0682
 3533TIP3    H210606   4.323   4.620   0.402 -0.3565  0.9267  2.1820
 3534TIP3   OH210607   0.413   1.595   2.349 -0.3178  0.2321 -0.8273
 3534TIP3    H110608   0.332   1.637   2.318 -2.0542  0.4155  3.3375
 3534TIP3    H210609   0.399   1.502   2.333 -1.5316  0.2318  0.1128
 3535TIP3   OH210610   1.115   5.942   3.903  0.0766  0.1183 -0.1089
 3535TIP3    H110611   1.167   5.874   3.862 -1.0947 -1.2071  0.5318
 3535TIP3    H210612   1.049   5.966   3.837 -1.3456 -1.4959  0.6344
 3536TIP3   OH210613   5.134   2.132   4.684  0.0540  0.3316 -0.7447
 3536TIP3    H110614   5.192   2.065   4.721  3.1059  2.1427 -1.8620
 3536TIP3    H210615   5.129   2.111   4.591 -3.4034 -1.2598 -0.3630
 3537TIP3   OH210616   5.679   0.576   2.758  0.5917 -0.0814  0.2418
 3537TIP3    H110617   5.590   0.589   2.726  0.8040  0.9850  0.0175
 3537TIP3    H210618   5.726   0.537   2.684  0.2624 -0.8690  0.4417
 3538TIP3   OH210619   3.097   5.461   0.654  0.4663 -0.0951  0.1471
 3538TIP3    H110620   3.027   5.396   0.664  0.9003 -0.5066  0.5574
 3538TIP3    H210621   3.105   5.502   0.740  2.0965 -1.4688  0.6979
 3539TIP3   OH210622   0.797   0.163   2.720 -0.3134 -0.1843 -0.3252
 3539TIP3    H110623   0.885   0.130   2.734 -0.3522  0.0469  0.5049
 3539TIP3    H210624   0.809   0.254   2.692 -0.2970  0.0244  0.3384
 3540TIP3   OH210625   1.921   0.675   4.949 -0.0122 -0.4415  0.1466
 3540TIP3    H110626   1.990   0.704   5.009  0.1470 -1.3352  0.4031
 3540TIP3    H210627   1.894   0.755   4.904  0.8380  0.0053  0.4039
 3541TIP3   OH210628   3.574   1.762   2.248 -0.4683  0.3932 -0.2491
 3541TIP3    H110629   3.563   1.667   2.251 -0.0624  0.3264 -0.7725
 3541TIP3    H210630   3.525   1.794   2.324  2.7499 -0.5462  2.4860
 3542TIP3   OH210631   1.587   2.084   3.521  0.4164  0.1490  0.0331
 3542TIP3    H110632   1.650   2.038   3.466  0.5722 -0.1057  0.4187
 3542TIP3    H210633   1.622   2.075   3.610 -1.2629 -1.9086  0.5624
 3543TIP3   OH210634   2.010   4.880   1.975  0.4508  0.1487 -0.3957
 3543TIP3    H110635   2.069   4.954   1.967 -0.3283  0.9433  0.8491
 3543TIP3    H210636   2.019   4.852   2.066  1.2858 -1.7773 -1.0236
 3544TIP3   OH210637   3.048   1.220   3.677  0.1052  0.4211 -0.4824
 3544TIP3    H110638   3.008   1.300   3.711  0.2709  0.1159  0.4607
 3544TIP3    H210639   3.142   1.234   3.687  0.1274  0.0367 -0.1598
 3545TIP3   OH210640   1.308   1.107   1.610 -0.1674 -0.0880 -0.0930
 3545TIP3    H110641   1.313   1.200   1.631  2.1407  0.0293 -0.8764
 3545TIP3    H210642   1.222   1.080   1.642 -0.6291  2.1445  0.7526
 3546TIP3   OH210643   1.025   5.153   4.086  0.5521  0.0633 -0.2685
 3546TIP3    H110644   1.044   5.062   4.063 -0.0700 -0.0891 -0.1987
 3546TIP3    H210645   0.965   5.183   4.018  1.1386  0.5813 -0.5690
 3547TIP3   OH210646   1.412   4.179   1.540 -0.5990  0.2833  0.1974
 3547TIP3    H110647   1.411   4.084   1.551  1.9800  0.3720  2.4899
 3547TIP3    H210648   1.504   4.203   1.554 -1.0279  3.0505 -1.1197
 3548TIP3   OH210649   3.776   3.899   4.066 -0.8478 -0.0963  0.3899
 3548TIP3    H110650   3.854   3.860   4.026 -0.9031 -0.0764  0.2609
 3548TIP3    H210651   3.703   3.859   4.018 -0.9429 -0.6482  0.9869
 3549TIP3   OH210652   1.242   5.481   1.666 -0.2989  0.1643  0.4093
 3549TIP3    H110653   1.148   5.465   1.668 -0.3721  0.6356  1.4426
 3549TIP3    H210654   1.269   5.456   1.578 -1.5689  1.0017 -0.2498
 3550TIP3   OH210655   6.108   5.244   3.918 -0.2030 -0.0731 -0.4475
 3550TIP3    H110656   6.029   5.289   3.948 -0.0851 -0.7066  0.8685
 3550TIP3    H210657   6.168   5.248   3.992  0.5333 -0.6895 -0.9974
 3551TIP3   OH210658   6.063   1.556   0.292  0.4810  0.2885  0.5623
 3551TIP3    H110659   6.117   1.520   0.362 -0.5995  0.0937  1.3217
 3551TIP3    H210660   6.053   1.649   0.314  0.0734  0.2102  0.7248
 3552TIP3   OH210661   5.893   5.230   2.165  0.0164 -0.1867 -0.2554
 3552TIP3    H110662   5.811   5.256   2.123 -0.4504 -0.7034  0.3276
 3552TIP3    H210663   5.902   5.288   2.240  0.5356  0.3179 -0.6953
 3553TIP3   OH210664   3.279   0.868   2.884  0.2345  0.5198  0.1393
 3553TIP3    H110665   3.198   0.818   2.894  0.9193 -0.3183  2.3653
 3553TIP3    H210666   3.296   0.903   2.972  0.4177  3.7844 -1.0632
 3554TIP3   OH210667   5.801   0.041   1.704  1.1959 -0.4535 -0.4061
 3554TIP3    H110668   5.874   0.082   1.750  1.2621 -1.2831  0.2714
 3554TIP3    H210669   5.821  -0.053   1.707  1.8935 -0.4923 -3.3241
 3555TIP3   OH210670   0.324   5.437   4.608 -0.2388  0.1550  0.1181
 3555TIP3    H110671   0.406   5.402   4.572 -1.4158 -0.1920 -2.4239
 3555TIP3    H210672   0.257   5.377   4.577 -1.6942  1.6297  0.3016
 3556TIP3   OH210673   3.429   5.601   0.936  0.8830  0.3644 -0.1573
 3556TIP3    H110674   3.436   5.589   0.841 -0.3639  0.5880 -0.2874
 3556TIP3    H210675   3.502   5.550   0.972 -0.0260 -1.7421 -1.1072
 3557TIP3   OH210676   6.065   2.070   2.336 -0.4816 -0.1289  0.9197
 3557TIP3    H110677   6.073   2.106   2.247  3.7809 -0.5157  0.9544
 3557TIP3    H210678   6.018   2.138   2.385  0.0962  1.6621 -0.8650
 3558TIP3   OH210679   1.038   3.532   2.278  0.0894 -0.3125  0.1007
 3558TIP3    H110680   0.953   3.537   2.234  0.4977  0.1235 -0.6502
 3558TIP3    H210681   1.099   3.506   2.210  0.9049  1.3244  0.1558
 3559TIP3   OH210682   5.598   0.993   5.016 -0.2051  0.2125 -0.4628
 3559TIP3    H110683   5.568   1.059   5.079  1.2163  0.5456 -0.0991
 3559TIP3    H210684   5.608   1.040   4.934 -1.5240 -0.0998 -0.8145
 3560TIP3   OH210685   0.022   5.583   0.833 -0.4552 -0.3169  0.0335
 3560TIP3    H110686   0.097   5.589   0.893 -0.0368 -0.3966 -0.4724
 3560TIP3    H210687  -0.017   5.671   0.835 -0.4805 -0.3330  0.4604
 3561TIP3   OH210688   5.062   1.126   4.184 -0.3083 -0.3753  0.5281
 3561TIP3    H110689   5.032   1.217   4.176 -1.0880 -0.5816  0.9757
 3561TIP3    H210690   4.991   1.082   4.230  0.8633 -0.7856  2.0204
 3562TIP3   OH210691   0.386   4.386   1.970 -0.4863  0.5530  0.1605
 3562TIP3    H110692   0.430   4.304   1.947  0.8251  0.3981  2.8098
 3562TIP3    H210693   0.443   4.455   1.935  0.9793  0.3259  1.9511
 3563TIP3   OH210694   0.733   5.215   0.677 -0.5692 -0.3368 -0.2351
 3563TIP3    H110695   0.772   5.143   0.728 -0.7377 -1.2109 -1.2998
 3563TIP3    H210696   0.642   5.188   0.666 -0.5529 -0.1171 -0.9212
 3564TIP3   OH210697   2.549   5.386   3.256  0.5957  0.3588  0.4216
 3564TIP3    H110698   2.645   5.391   3.262  0.5568  1.1009  0.4661
 3564TIP3    H210699   2.526   5.445   3.184  0.2679 -0.9010 -0.5526
 3565TIP3   OH210700   3.592   5.563   0.348 -0.5851 -0.2419  0.1041
 3565TIP3    H110701   3.677   5.605   0.362 -0.0551 -1.1140 -0.4068
 3565TIP3    H210702   3.610   5.469   0.358 -1.2650 -0.5089 -1.0149
 3566TIP3   OH210703   2.346   5.287   1.963  0.3874  0.4815 -0.3157
 3566TIP3    H110704   2.441   5.275   1.963  0.3803  0.4342 -0.6576
 3566TIP3    H210705   2.332   5.361   2.022  0.6139  0.3156 -0.0476
 3567TIP3   OH210706   2.049   2.662   3.976  0.1821  0.5712  0.2907
 3567TIP3    H110707   1.972   2.682   3.923  0.3402  1.2945  0.3193
 3567TIP3    H210708   2.085   2.583   3.937 -0.1742  0.6240 -0.1598
 3568TIP3   OH210709   3.480   2.482   0.104 -0.3064 -0.0811  0.6054
 3568TIP3    H110710   3.472   2.511   0.195 -1.0344 -1.8643  1.1492
 3568TIP3    H210711   3.400   2.514   0.061 -0.1167  0.4771  0.6588
 3569TIP3   OH210712   0.992   0.439   5.015 -0.7753 -0.5846  0.1139
 3569TIP3    H110713   0.982   0.467   5.106  0.3044  0.4554 -0.0545
 3569TIP3    H210714   0.912   0.470   4.972 -1.5850 -1.6419  0.8118
 3570TIP3   OH210715   3.530   0.641   3.048  0.3842 -0.5438  0.2016
 3570TIP3    H110716   3.537   0.662   2.955  1.3774  2.7820  0.8971
 3570TIP3    H210717   3.439   0.611   3.059 -0.1146  0.1854 -1.6392
 3571TIP3   OH210718   4.850   2.098   4.113 -0.4514 -0.8193  0.2378
 3571TIP3    H110719   4.768   2.148   4.112 -0.6797 -1.1963  0.3172
 3571TIP3    H210720   4.846   2.045   4.033  0.2646  0.0517 -0.4031
 3572TIP3   OH210721   5.217   0.196   0.182  0.2199 -0.1616  0.0559
 3572TIP3    H110722   5.263   0.121   0.143 -1.1533 -0.1469 -1.7345
 3572TIP3    H210723   5.161   0.157   0.249  0.0129 -0.6911 -0.4088
 3573TIP3   OH210724   3.601   3.705   2.612  0.4666  0.4892  0.4180
 3573TIP3    H110725   3.686   3.699   2.655  0.9538  1.2238 -0.4151
 3573TIP3    H210726   3.579   3.615   2.589  0.8850  0.2641  0.8845
 3574TIP3   OH210727   3.740   1.557   4.219 -0.2574 -0.2822 -0.1301
 3574TIP3    H110728   3.807   1.488   4.219 -0.3036 -0.3458  0.8799
 3574TIP3    H210729   3.753   1.602   4.136  0.1679 -1.1292 -0.5471
 3575TIP3   OH210730   3.477   2.065   4.488  0.1863 -0.2114 -0.2100
 3575TIP3    H110731   3.505   1.990   4.436  0.0928 -0.4161  0.0376
 3575TIP3    H210732   3.402   2.101   4.441  0.4113 -0.0967 -0.4849
 3576TIP3   OH210733   5.124   0.293   2.140 -0.2373 -0.3570  0.1899
 3576TIP3    H110734   5.206   0.337   2.116 -0.6311  0.8316  0.9860
 3576TIP3    H210735   5.144   0.247   2.221 -0.3254 -0.1762  0.3136
 3577TIP3   OH210736   1.436   1.233   3.689  0.3456 -0.2843 -0.0744
 3577TIP3    H110737   1.344   1.204   3.688  0.0207  0.6245  1.1796
 3577TIP3    H210738   1.480   1.171   3.746 -0.3070  1.4350  2.4381
 3578TIP3   OH210739   2.299   0.368   1.991  0.4624 -0.1249 -0.3015
 3578TIP3    H110740   2.338   0.389   1.906 -0.1894 -1.4580 -0.9585
 3578TIP3    H210741   2.374   0.350   2.048  0.8783 -1.5808 -1.2541
 3579TIP3   OH210742   3.066   4.613   3.229  0.7033 -0.8575 -0.1730
 3579TIP3    H110743   2.992   4.555   3.250  1.3652 -1.0280  1.9272
 3579TIP3    H210744   3.106   4.573   3.151 -1.2053 -0.9046 -1.2007
 3580TIP3   OH210745   3.905   0.022   1.762 -0.0523 -0.2542  0.1401
 3580TIP3    H110746   3.946  -0.049   1.712 -1.9359 -0.5046 -1.1643
 3580TIP3    H210747   3.868   0.080   1.696  0.8017  1.5941  1.2061
 3581TIP3   OH210748   4.268   4.195   1.037 -0.3859  0.7356 -0.0095
 3581TIP3    H110749   4.288   4.111   1.079  0.0760  2.0316  2.5381
 3581TIP3    H210750   4.202   4.235   1.094 -0.7146  2.0679 -1.2647
 3582TIP3   OH210751   3.614   3.782   2.166 -0.3377 -0.1486 -0.1027
 3582TIP3    H110752   3.619   3.821   2.079  0.6371 -0.5171 -0.2280
 3582TIP3    H210753   3.535   3.729   2.165 -0.3358 -0.1403 -0.7676
 3583TIP3   OH210754   2.703   2.154   3.458 -1.0925  0.2537 -0.0936
 3583TIP3    H110755   2.639   2.181   3.393  0.0735 -0.2066 -1.4787
 3583TIP3    H210756   2.734   2.236   3.497 -0.8609  0.6414 -1.0611
 3584TIP3   OH210757   1.213   0.125   0.292 -0.0651  0.6354  0.4207
 3584TIP3    H110758   1.221   0.081   0.208  0.6532 -0.2095  0.9231
 3584TIP3    H210759   1.302   0.128   0.327 -0.5216 -0.2250  1.7474
 3585TIP3   OH210760   1.025   4.668   2.218 -0.4083  0.0629  0.0583
 3585TIP3    H110761   0.993   4.759   2.219 -0.2519  0.1276  1.5580
 3585TIP3    H210762   0.991   4.632   2.137 -1.9129  0.9750  0.2314
 3586TIP3   OH210763   2.242   0.029   0.638  0.1558  0.2785  0.2100
 3586TIP3    H110764   2.174   0.089   0.609 -0.8665 -0.5096  0.9473
 3586TIP3    H210765   2.259  -0.027   0.561 -1.0090 -0.3990  0.4175
 3587TIP3   OH210766   3.935   5.274   0.661 -0.4460 -0.3348 -0.1376
 3587TIP3    H110767   3.909   5.204   0.720  0.3977  0.2625  0.9889
 3587TIP3    H210768   4.006   5.236   0.609  0.5871 -0.1196  1.0401
 3588TIP3   OH210769   3.075   5.272   3.912  0.7808 -0.2819  0.1963
 3588TIP3    H110770   3.078   5.317   3.827  0.4585 -0.3308  0.1583
 3588TIP3    H210771   3.136   5.199   3.902 -0.2978 -1.1251 -0.4823
 3589TIP3   OH210772   4.309   3.105   5.036 -0.3445  0.5945 -0.2589
 3589TIP3    H110773   4.321   3.055   4.955  2.3752 -1.0340  1.0279
 3589TIP3    H210774   4.272   3.042   5.098  1.5955  0.5397  0.9165
 3590TIP3   OH210775   4.750   2.995   0.312 -0.8905 -0.3416  0.0591
 3590TIP3    H110776   4.736   2.944   0.392  0.8531  1.4898  1.6226
 3590TIP3    H210777   4.811   3.064   0.338 -2.1649  1.8042 -2.2656
 3591TIP3   OH210778   4.824   1.109   4.000 -0.2975  0.2409  0.3642
 3591TIP3    H110779   4.892   1.046   3.979 -0.2983  0.9218 -1.9175
 3591TIP3    H210780   4.871   1.189   4.025 -0.2797  0.2401  0.3328
 3592TIP3   OH210781   2.702   3.849   2.959  0.1078 -0.5953  0.2056
 3592TIP3    H110782   2.701   3.766   2.911  1.6464 -0.3813 -0.2536
 3592TIP3    H210783   2.640   3.836   3.030 -1.1806 -1.4278 -1.0171
 3593TIP3   OH210784   4.372   5.029   4.179  0.2596  0.2472  0.3558
 3593TIP3    H110785   4.461   5.018   4.212  0.5539  1.1651 -0.0980
 3593TIP3    H210786   4.323   4.957   4.218  0.6875  0.9935  2.3780
 3594TIP3   OH210787   4.011   3.565   4.904  0.7392 -0.2109 -0.5932
 3594TIP3    H110788   3.956   3.488   4.910  1.0111 -0.4881 -1.4559
 3594TIP3    H210789   4.062   3.552   4.824  2.0600  0.0342  0.1691
 3595TIP3   OH210790   2.799   3.586   4.724  0.3202  0.1063 -0.2184
 3595TIP3    H110791   2.854   3.637   4.783  1.6636 -1.2606 -0.2040
 3595TIP3    H210792   2.850   3.506   4.708 -1.3275 -0.8676 -0.8588
 3596TIP3   OH210793   3.281   0.424   4.274  0.6213  0.1849 -0.1321
 3596TIP3    H110794   3.234   0.342   4.288  2.3066 -0.4407  2.8212
 3596TIP3    H210795   3.236   0.487   4.330 -0.3162  1.2145 -1.9527
 3597TIP3   OH210796   2.698   4.157   3.516 -0.2858  0.4486 -0.6744
 3597TIP3    H110797   2.752   4.089   3.556 -1.9054 -0.3816  0.2185
 3597TIP3    H210798   2.753   4.193   3.446  0.2829 -2.5763 -1.9841
 3598TIP3   OH210799   1.096   0.345   2.972  0.5086  0.1821 -0.0513
 3598TIP3    H110800   1.111   0.272   2.913  0.8104  0.6361 -0.5484
 3598TIP3    H210801   1.001   0.359   2.970  0.6209  0.8658 -1.2562
 3599TIP3   OH210802   0.773   2.966   4.224 -0.3229  0.5132  0.0835
 3599TIP3    H110803   0.729   3.018   4.291 -0.6852  0.3624 -0.0340
 3599TIP3    H210804   0.707   2.953   4.156 -1.4766 -3.0839  1.6427
 3600TIP3   OH210805   0.619   2.477   2.309 -0.0740 -0.4137 -0.4507
 3600TIP3    H110806   0.546   2.414   2.307 -0.2624 -0.1834 -1.1391
 3600TIP3    H210807   0.657   2.473   2.221 -0.3221  0.6991 -0.6240
 3601TIP3   OH210808   2.345   3.562   2.601 -0.2447 -0.0113 -0.4547
 3601TIP3    H110809   2.257   3.538   2.572 -0.2477 -0.6035  0.0282
 3601TIP3    H210810   2.399   3.549   2.523 -0.7809  1.6921 -1.1623
 3602TIP3   OH210811   6.348   3.664   4.524  0.4663  0.2176 -0.8423
 3602TIP3    H110812   6.362   3.693   4.433  1.3761 -1.6091 -1.3144
 3602TIP3    H210813   6.253   3.653   4.530  0.3738  0.5514 -1.5152
 3603TIP3   OH210814   5.268   0.021   4.468  0.3396 -0.2743  0.1940
 3603TIP3    H110815   5.265   0.113   4.495  0.1645 -0.2642  0.1421
 3603TIP3    H210816   5.239   0.022   4.377 -1.4754 -0.5896  0.7336
 3604TIP3   OH210817   2.171   4.979   2.576  0.4354  0.2224 -0.0467
 3604TIP3    H110818   2.114   4.902   2.574  0.8461 -0.0796 -0.1694
 3604TIP3    H210819   2.258   4.943   2.591  0.8966  0.5191 -1.8799
 3605TIP3   OH210820   1.242   4.030   4.292  0.2502  0.6990  0.3028
 3605TIP3    H110821   1.320   4.001   4.244  1.2305  1.0860  1.6063
 3605TIP3    H210822   1.173   4.036   4.225  0.9119 -1.1641 -0.6158
 3606TIP3   OH210823   4.625   0.253   1.118 -0.7481  0.0831 -0.2161
 3606TIP3    H110824   4.566   0.288   1.185  0.6518 -0.1519  1.2151
 3606TIP3    H210825   4.628   0.159   1.136  1.2452  0.2810  0.8064
 3607TIP3   OH210826   1.761   3.935   2.143  0.5212  0.7802 -0.4857
 3607TIP3    H110827   1.721   3.866   2.090  1.8317  0.0077 -0.5166
 3607TIP3    H210828   1.697   3.952   2.212  0.7580 -1.5502  0.3997
 3608TIP3   OH210829   0.415   2.759   4.821 -1.0102  0.5438  0.0020
 3608TIP3    H110830   0.332   2.799   4.795 -0.7805  0.0113 -1.6932
 3608TIP3    H210831   0.480   2.825   4.799 -1.0524  1.7450  3.0810
 3609TIP3   OH210832   6.321   0.946   3.596  0.3209 -0.0498 -0.1899
 3609TIP3    H110833   6.380   0.956   3.521  1.3759 -2.9136  0.1297
 3609TIP3    H210834   6.237   0.923   3.558  0.3548  0.4287 -0.5544
 3610TIP3   OH210835   1.843   5.881   1.127  0.0475  0.3968 -0.1207
 3610TIP3    H110836   1.934   5.870   1.101 -0.4666  0.1226 -2.0112
 3610TIP3    H210837   1.810   5.952   1.071 -0.7472  0.9389  0.9846
 3611TIP3   OH210838   1.070   0.530   1.118  0.1723 -0.2327 -0.5061
 3611TIP3    H110839   1.012   0.539   1.042 -1.7973 -1.1381  0.8053
 3611TIP3    H210840   1.048   0.605   1.174 -1.2798 -1.6448  0.9215
 3612TIP3   OH210841   3.702   5.163   3.795 -0.4660 -0.3951 -0.2445
 3612TIP3    H110842   3.786   5.140   3.836  0.0889 -0.7171 -1.5063
 3612TIP3    H210843   3.643   5.179   3.868  0.5320 -0.7892  0.6730
 3613TIP3   OH210844   5.870   0.448   2.247  0.8977 -0.1523 -0.4836
 3613TIP3    H110845   5.823   0.365   2.259 -1.0310  0.8609 -0.6091
 3613TIP3    H210846   5.911   0.466   2.331 -1.1933  0.2053  0.5204
 3614TIP3   OH210847   4.107   1.116   1.281  0.4923  0.1591 -0.4047
 3614TIP3    H110848   4.071   1.066   1.208  1.8952  1.9466 -2.4504
 3614TIP3    H210849   4.189   1.072   1.302  0.3659 -0.0281 -0.3044
 3615TIP3   OH210850   3.422   2.001   0.187  0.0644 -0.1132  0.0968
 3615TIP3    H110851   3.452   2.072   0.131 -1.8734  2.0137  1.5528
 3615TIP3    H210852   3.482   2.001   0.261 -1.7485  2.3896  1.7312
 3616TIP3   OH210853   3.401   3.800   4.708 -0.0140  0.5462 -0.5735
 3616TIP3    H110854   3.413   3.759   4.623  1.2482 -0.7150  0.1735
 3616TIP3    H210855   3.385   3.892   4.688 -0.2891  0.1847 -2.1821
 3617TIP3   OH210856   3.365   2.570   1.375  0.2123 -0.2264  0.0531
 3617TIP3    H110857   3.447   2.580   1.326 -1.7393 -0.3689 -3.5841
 3617TIP3    H210858   3.352   2.475   1.380 -0.3127 -0.1958 -0.5605
 3618TIP3   OH210859   5.060   1.533   5.005  0.1593  0.2722  0.1373
 3618TIP3    H110860   5.010   1.459   5.041 -0.5794  0.4140 -0.5653
 3618TIP3    H210861   4.996   1.582   4.954  1.0553  0.3631 -0.9358
 3619TIP3   OH210862   6.315   5.375   2.593 -0.2172 -0.3423 -0.4003
 3619TIP3    H110863   6.229   5.408   2.620  0.0341 -0.0224  0.0324
 3619TIP3    H210864   6.346   5.325   2.669  0.3584  0.2861 -0.2101
 3620TIP3   OH210865   4.137   5.674   4.051  0.5314  0.0195 -0.0320
 3620TIP3    H110866   4.169   5.728   4.123  1.8081  0.3756 -0.8273
 3620TIP3    H210867   4.216   5.636   4.012 -0.3212 -2.5087  0.5171
 3621TIP3   OH210868   0.684   0.399   4.026 -0.1057 -0.4887  0.0249
 3621TIP3    H110869   0.773   0.386   4.060  1.1357  1.8083 -2.0443
 3621TIP3    H210870   0.654   0.480   4.067  1.0008  1.7374 -3.1165
 3622TIP3   OH210871   1.572   1.305   1.864 -0.2609 -0.1089  0.8493
 3622TIP3    H110872   1.607   1.352   1.789 -1.7665 -0.6772 -0.2579
 3622TIP3    H210873   1.521   1.370   1.912 -0.6400 -0.1205  0.4664
 3623TIP3   OH210874   0.437   3.557   2.284  0.2790  0.3674  0.5911
 3623TIP3    H110875   0.476   3.638   2.251  1.3036 -0.9554 -1.6464
 3623TIP3    H210876   0.465   3.554   2.376 -0.1055  2.6856  0.8549
 3624TIP3   OH210877   3.544   4.934   2.288  0.0503 -0.5254 -0.3613
 3624TIP3    H110878   3.541   4.909   2.380 -0.1269  1.3021  0.1804
 3624TIP3    H210879   3.619   4.992   2.281 -0.8029  0.5563 -0.9988
 3625TIP3   OH210880   0.585   3.133   4.698 -0.2745 -0.1283  0.2128
 3625TIP3    H110881   0.509   3.153   4.642  0.1140 -0.4429 -0.4323
 3625TIP3    H210882   0.546   3.101   4.780 -0.8404 -0.3269 -0.1242
 3626TIP3   OH210883   4.195   1.459   3.328  0.3438 -0.1182 -0.1340
 3626TIP3    H110884   4.207   1.387   3.267 -1.0278 -0.9366  0.4959
 3626TIP3    H210885   4.183   1.416   3.413 -1.1642  0.7809  0.1501
 3627TIP3   OH210886   5.759   3.589   0.548 -0.0552  0.7796 -0.1097
 3627TIP3    H110887   5.664   3.590   0.556 -0.1214  0.5925 -0.7876
 3627TIP3    H210888   5.791   3.572   0.637 -0.6382  1.2409  0.1923
 3628TIP3   OH210889   4.772   3.708   3.687  0.2559  0.5289 -0.0493
 3628TIP3    H110890   4.791   3.734   3.778 -0.1249 -0.3238  0.2841
 3628TIP3    H210891   4.770   3.791   3.639 -3.5400  1.5217  1.4444
 3629TIP3   OH210892   5.641   4.789   2.270 -0.2204 -0.2199  0.0608
 3629TIP3    H110893   5.589   4.751   2.342  1.2660 -3.7588 -0.5265
 3629TIP3    H210894   5.728   4.802   2.308  0.0223 -0.0900 -0.5283
 3630TIP3   OH210895   4.829   0.097   3.787  0.1823  0.2764  0.6921
 3630TIP3    H110896   4.864   0.035   3.722 -2.0692 -1.8513  1.3424
 3630TIP3    H210897   4.738   0.111   3.759 -0.9783 -0.9715  3.4400
 3631TIP3   OH210898   1.265   2.079   0.617 -0.4377 -0.0973 -0.5222
 3631TIP3    H110899   1.199   2.067   0.550 -1.3782  1.0978  0.1453
 3631TIP3    H210900   1.260   2.172   0.639  0.2399 -0.3426  0.7944
 3632TIP3   OH210901   4.740   4.180   5.180 -0.6412 -0.3781 -0.7153
 3632TIP3    H110902   4.775   4.101   5.140  1.3484  0.2702 -0.3853
 3632TIP3    H210903   4.810   4.245   5.170 -1.0889  0.5376  1.4717
 3633TIP3   OH210904   3.829   3.380   1.522 -0.5635  0.1966 -0.4825
 3633TIP3    H110905   3.764   3.310   1.536  0.5352 -0.7814 -0.1286
 3633TIP3    H210906   3.913   3.335   1.526  0.1951  1.6561  0.3129
 3634TIP3   OH210907   2.690   2.445   3.552 -0.1844  0.2285 -0.5647
 3634TIP3    H110908   2.742   2.475   3.478  0.1953  1.5610  0.2070
 3634TIP3    H210909   2.715   2.503   3.624 -0.3823 -1.1625  0.6733
 3635TIP3   OH210910   3.558   2.047   3.761  0.9503 -0.1228 -0.5893
 3635TIP3    H110911   3.594   2.134   3.741 -1.3097  0.6555 -1.6146
 3635TIP3    H210912   3.563   2.000   3.678 -0.4839  0.0696 -0.8072
 3636TIP3   OH210913   5.604   2.788   4.762  0.0650 -0.1095  0.1482
 3636TIP3    H110914   5.579   2.701   4.730 -0.7095 -0.0241  0.4988
 3636TIP3    H210915   5.582   2.786   4.856 -3.4626  1.6542 -0.4764
 3637TIP3   OH210916   4.027   2.456   3.902 -0.0337 -0.0007  0.6431
 3637TIP3    H110917   3.967   2.391   3.939 -2.5991  1.7088 -0.3013
 3637TIP3    H210918   4.098   2.403   3.864 -1.8552 -2.2670  0.1706
 3638TIP3   OH210919   2.235   5.979   4.442  0.1827  0.1707 -0.2054
 3638TIP3    H110920   2.329   5.959   4.436  0.4789  1.7836 -1.7061
 3638TIP3    H210921   2.196   5.931   4.369 -0.1043 -0.1411  0.1504
 3639TIP3   OH210922   3.803   2.703   1.358  0.2614 -0.2311  0.1990
 3639TIP3    H110923   3.794   2.768   1.427 -0.3070 -0.4711  0.3643
 3639TIP3    H210924   3.750   2.737   1.286 -0.3622 -0.6877  0.4293
 3640TIP3   OH210925   1.275   2.489   0.006  0.0031 -0.2500 -0.1931
 3640TIP3    H110926   1.349   2.534  -0.035  1.0481 -0.5039  1.3097
 3640TIP3    H210927   1.313   2.407   0.039 -1.0659 -0.6073  0.1701
 3641TIP3   OH210928   0.326   2.684   2.960 -0.0068 -0.2766 -0.1289
 3641TIP3    H110929   0.257   2.617   2.965 -1.0130  0.8244  2.2828
 3641TIP3    H210930   0.279   2.766   2.949  1.1170  0.2457 -1.1988
 3642TIP3   OH210931   0.367   3.576   3.583  0.4217 -0.2034 -0.4187
 3642TIP3    H110932   0.409   3.662   3.589  2.4359 -1.0980 -0.8668
 3642TIP3    H210933   0.316   3.568   3.664  1.2362  0.8940  0.2263
 3643TIP3   OH210934   2.882   2.235   2.958 -0.2047  0.1669  0.1724
 3643TIP3    H110935   2.907   2.326   2.939  2.5773 -0.3627  0.9276
 3643TIP3    H210936   2.884   2.192   2.872  0.0880  0.4589  0.0289
 3644TIP3   OH210937   0.755   1.862   5.098  0.2848  0.3009  0.6467
 3644TIP3    H110938   0.708   1.784   5.069 -0.4326  0.7181  0.6729
 3644TIP3    H210939   0.716   1.884   5.182  0.5853  0.6060  0.7098
 3645TIP3   OH210940   2.037   4.785   4.784 -0.5731  0.2407  0.1972
 3645TIP3    H110941   2.064   4.854   4.724 -1.5931  0.9407  0.5102
 3645TIP3    H210942   1.941   4.792   4.787 -0.5479  0.3352  2.0110
 3646TIP3   OH210943   4.058   4.389   3.340  0.1446  0.1769  0.6148
 3646TIP3    H110944   4.074   4.378   3.247 -0.1873 -2.0808  0.7766
 3646TIP3    H210945   3.982   4.447   3.345  0.0695  0.1897 -0.5106
 3647TIP3   OH210946   5.321   4.734   3.827  0.2132 -0.1058  0.7777
 3647TIP3    H110947   5.295   4.643   3.843  1.1571 -0.5182  0.0942
 3647TIP3    H210948   5.267   4.786   3.887 -1.4962 -0.9775  0.0613
 3648TIP3   OH210949   3.741   0.182   0.625  0.9994 -0.2828  0.3515
 3648TIP3    H110950   3.753   0.151   0.715 -0.4039 -0.6056  0.4455
 3648TIP3    H210951   3.806   0.251   0.615 -0.7579  1.8604  2.6301
 3649TIP3   OH210952   5.818   4.537   2.950 -0.1880  0.4257 -0.2944
 3649TIP3    H110953   5.881   4.601   2.918  0.5823 -0.2150 -0.1029
 3649TIP3    H210954   5.758   4.587   3.003 -1.3290  1.4781 -2.4479
 3650TIP3   OH210955   3.715   1.254   0.086 -0.0015 -0.0509 -0.5189
 3650TIP3    H110956   3.682   1.226   0.001  0.3611 -1.1608 -0.3067
 3650TIP3    H210957   3.663   1.205   0.149 -0.9785  1.5208 -0.0383
 3651TIP3   OH210958   2.925   2.844   2.110  0.1086  0.1560 -0.1334
 3651TIP3    H110959   2.885   2.772   2.159 -0.4538 -0.3911 -1.3396
 3651TIP3    H210960   2.882   2.841   2.024  2.8272 -0.5854 -1.5899
 3652TIP3   OH210961   2.243   5.568   4.573  0.0432  0.5897  0.3636
 3652TIP3    H110962   2.300   5.604   4.506 -1.1004  1.2287 -0.2876
 3652TIP3    H210963   2.163   5.545   4.527 -0.0887 -0.7006  1.1853
 3653TIP3   OH210964   1.467   3.655   1.735 -0.0635  0.0270  0.9315
 3653TIP3    H110965   1.400   3.631   1.671  0.0866  2.0300 -0.0546
 3653TIP3    H210966   1.456   3.749   1.748  2.3766  0.3935  0.9267
 3654TIP3   OH210967   1.982   5.021   3.928 -0.2629  0.2702 -0.0464
 3654TIP3    H110968   1.922   5.094   3.939  1.7960  2.2310 -0.8828
 3654TIP3    H210969   1.979   5.000   3.834  0.5623  0.5961 -0.1521
 3655TIP3   OH210970   4.428   0.819   2.747 -0.6445 -0.5184 -0.2474
 3655TIP3    H110971   4.461   0.877   2.678  0.2443 -2.0310 -1.1409
 3655TIP3    H210972   4.468   0.853   2.827  1.0200 -0.7216 -0.9535
 3656TIP3   OH210973   3.614   1.743   4.627 -0.6052  0.0486 -0.1123
 3656TIP3    H110974   3.654   1.781   4.705 -2.1097  0.1056  0.6546
 3656TIP3    H210975   3.520   1.753   4.640 -0.9884 -2.1026 -0.8205
 3657TIP3   OH210976   1.521   5.113   2.076 -0.1752  0.1354 -0.7125
 3657TIP3    H110977   1.552   5.057   2.147  0.4030 -0.4623 -1.4230
 3657TIP3    H210978   1.599   5.134   2.025 -0.7996 -0.9936 -2.2488
 3658TIP3   OH210979   4.327   4.158   0.412 -0.3893 -0.0426  0.5029
 3658TIP3    H110980   4.239   4.133   0.439  0.0040 -0.1086  1.8321
 3658TIP3    H210981   4.376   4.163   0.495  0.3263  2.0788  0.0035
 3659TIP3   OH210982   1.952   2.481   2.099  0.3685 -0.5501 -0.4337
 3659TIP3    H110983   1.866   2.475   2.056 -0.1741  0.2717  0.4891
 3659TIP3    H210984   1.943   2.423   2.175 -0.4768  1.8192  1.3834
 3660TIP3   OH210985   1.546   2.935   4.494 -0.1485  0.1169 -0.1623
 3660TIP3    H110986   1.498   3.015   4.475 -2.5446 -1.2484 -0.4019
 3660TIP3    H210987   1.494   2.892   4.563  1.1589 -1.1432  0.0901
 3661TIP3   OH210988   3.120   0.700   2.383 -0.0251 -0.5983  0.1872
 3661TIP3    H110989   3.110   0.605   2.392 -0.4469 -0.4787  1.0557
 3661TIP3    H210990   3.050   0.737   2.437 -0.3363  0.2100 -0.7466
 3662TIP3   OH210991   3.109   4.143   4.244 -0.0621  0.3827 -0.2610
 3662TIP3    H110992   3.138   4.096   4.166  0.4498 -0.9229  0.6796
 3662TIP3    H210993   3.058   4.217   4.210  1.7157  0.9313 -1.8611
 3663TIP3   OH210994   0.034   1.558   1.634 -0.0888  0.5678 -0.1527
 3663TIP3    H110995  -0.047   1.573   1.683  0.5746  1.8240  0.6136
 3663TIP3    H210996   0.072   1.480   1.675 -1.8032 -1.2367 -1.7872
 3664TIP3   OH210997   2.914   3.437   2.992  0.1468 -0.5004  0.3035
 3664TIP3    H110998   2.983   3.377   2.963  0.3901 -1.0460  1.9088
 3664TIP3    H210999   2.839   3.381   3.011 -0.0668 -0.1432  0.5316
 3665TIP3   OH211000   1.486   5.428   4.615  0.3525  0.1302  0.2478
 3665TIP3    H111001   1.488   5.360   4.547 -0.9338  0.7059 -0.4074
 3665TIP3    H211002   1.478   5.379   4.697 -3.2703 -0.5747 -0.3624
 3666TIP3   OH211003   5.571   1.382   0.736 -0.9869 -0.4813  0.2704
 3666TIP3    H111004   5.520   1.393   0.816  1.0856 -0.5451  1.7039
 3666TIP3    H211005   5.518   1.421   0.667 -1.7292  2.0211  2.1111
 3667TIP3   OH211006   0.689   1.396   3.477  0.3880  0.3518  0.2125
 3667TIP3    H111007   0.618   1.442   3.521  0.4714 -0.2398  0.9753
 3667TIP3    H211008   0.648   1.320   3.436  0.5085  0.2729  0.2384
 3668TIP3   OH211009   0.588   3.563   4.135  0.0344 -0.6038  0.4145
 3668TIP3    H111010   0.524   3.543   4.203 -0.8875  1.0412  0.0652
 3668TIP3    H211011   0.632   3.642   4.165  0.0572 -0.2224 -0.5805
 3669TIP3   OH211012   4.257   1.061   0.736  0.0843  0.3267 -0.6862
 3669TIP3    H111013   4.350   1.067   0.760 -0.5357 -0.1681  2.0742
 3669TIP3    H211014   4.225   1.151   0.741 -0.3375  0.0972  1.9413
 3670TIP3   OH211015   1.633   1.747   3.904 -0.2559  0.2767  0.2340
 3670TIP3    H111016   1.722   1.718   3.884  0.5048  2.5253  0.1186
 3670TIP3    H211017   1.629   1.747   4.000 -1.0641 -2.2586  0.2979
 3671TIP3   OH211018   4.959   5.173   1.673  0.3651 -0.2227 -1.0452
 3671TIP3    H111019   5.026   5.241   1.675 -2.3061  2.6049 -0.8790
 3671TIP3    H211020   4.931   5.169   1.582  0.2322 -0.8419 -0.9839
 3672TIP3   OH211021   4.122   4.406   0.663  0.0087  0.3377 -0.7211
 3672TIP3    H111022   4.055   4.390   0.729  0.4002 -1.7453 -0.7609
 3672TIP3    H211023   4.191   4.452   0.709 -0.8665  1.3371 -0.3655
 3673TIP3   OH211024   1.247   0.864   2.734  0.6374 -0.3123  0.4295
 3673TIP3    H111025   1.171   0.911   2.703  1.1238 -0.5683 -1.2379
 3673TIP3    H211026   1.212   0.793   2.788 -0.1336  1.2937  2.1367
 3674TIP3   OH211027   4.429   0.512   1.791  0.4249 -0.6361  0.1440
 3674TIP3    H111028   4.467   0.497   1.878 -0.6017 -2.3234  0.3356
 3674TIP3    H211029   4.337   0.534   1.808  0.5987  0.6877 -0.4602
 3675TIP3   OH211030   4.216   4.011   1.276  0.1983 -0.3537 -0.0084
 3675TIP3    H111031   4.183   4.069   1.346  3.2094 -0.1645  1.3910
 3675TIP3    H211032   4.268   3.945   1.322  1.2404 -0.9783 -1.9893
 3676TIP3   OH211033   2.147   0.167   1.911  0.0446  0.6045 -0.0956
 3676TIP3    H111034   2.101   0.210   1.838  0.6397  0.2685 -0.6773
 3676TIP3    H211035   2.195   0.238   1.954 -0.5045  0.8475  0.1303
 3677TIP3   OH211036   0.974   2.102   4.196  0.0905  0.2528  0.3437
 3677TIP3    H111037   1.038   2.111   4.126  0.3886 -0.6189  0.4969
 3677TIP3    H211038   1.027   2.093   4.276 -0.2212 -0.3636  0.4834
 3678TIP3   OH211039   1.176   0.965   2.419 -0.0036  0.5119  0.3578
 3678TIP3    H111040   1.268   0.988   2.430 -0.0818  0.6974  0.6115
 3678TIP3    H211041   1.176   0.899   2.350  0.6117 -1.5562  2.2333
 3679TIP3   OH211042   5.142   3.902   0.241  0.6015  0.3766 -0.0489
 3679TIP3    H111043   5.049   3.903   0.262  0.5827  1.3893 -0.1532
 3679TIP3    H211044   5.149   3.846   0.164 -0.2406  2.0544 -1.4048
 3680TIP3   OH211045   1.461   2.465   3.626 -0.4762 -0.5161 -0.1847
 3680TIP3    H111046   1.429   2.426   3.545  0.4696 -0.5681 -0.5433
 3680TIP3    H211047   1.382   2.482   3.677 -0.9968 -1.6656 -0.5734
 3681TIP3   OH211048   5.806   0.268   2.776 -1.0274 -0.4014  0.1610
 3681TIP3    H111049   5.769   0.254   2.688 -0.1529  0.6003 -0.3912
 3681TIP3    H211050   5.831   0.181   2.805  0.2446 -0.5764 -1.3166
 3682TIP3   OH211051   0.751   1.028   0.297 -0.2282  0.0229  0.0997
 3682TIP3    H111052   0.656   1.029   0.306 -0.2437 -1.3233  0.3301
 3682TIP3    H211053   0.773   0.935   0.289  1.1155  0.2720  0.6208
 3683TIP3   OH211054   4.307   2.183   4.696 -0.1592  0.5454 -0.8794
 3683TIP3    H111055   4.394   2.204   4.661  0.2810 -1.0067 -0.8020
 3683TIP3    H211056   4.251   2.176   4.619 -0.0106  0.6311 -0.9949
 3684TIP3   OH211057   0.332   2.922   3.203  0.0118 -0.1834 -0.0696
 3684TIP3    H111058   0.307   3.012   3.225  0.3182  0.5857 -2.4966
 3684TIP3    H211059   0.321   2.873   3.284  1.2676  2.3238  1.7408
 3685TIP3   OH211060   4.981   2.842   2.245 -0.4499  0.9495  0.4084
 3685TIP3    H111061   5.019   2.820   2.160 -1.9502  2.1523 -0.6145
 3685TIP3    H211062   5.002   2.934   2.257 -1.4738  1.1548  0.6613
 3686TIP3   OH211063   4.532   1.653   2.942  0.0327  0.1698  0.2534
 3686TIP3    H111064   4.476   1.669   3.018  0.1556  1.0026  0.1705
 3686TIP3    H211065   4.616   1.694   2.963 -0.1229  0.9517 -0.5798
 3687TIP3   OH211066   2.325   1.456   0.872  0.1164  0.4382 -0.0121
 3687TIP3    H111067   2.400   1.465   0.931  1.5564  0.1936 -1.7149
 3687TIP3    H211068   2.352   1.388   0.810 -2.3727 -1.1779  0.5376
 3688TIP3   OH211069   3.681   0.866   0.361  0.6524  0.2744  0.2721
 3688TIP3    H111070   3.745   0.804   0.327 -0.2205 -1.2597  1.3182
 3688TIP3    H211071   3.700   0.873   0.454 -1.9102 -1.9047  1.0977
 3689TIP3   OH211072   5.087   0.827   4.994 -0.4441 -0.2228  0.2138
 3689TIP3    H111073   5.064   0.863   5.079  0.1725  0.5014  0.0880
 3689TIP3    H211074   5.007   0.785   4.963 -0.8719  0.1184  0.8395
 3690TIP3   OH211075   4.570   4.590   1.789  0.3541 -0.0032  0.0755
 3690TIP3    H111076   4.566   4.661   1.852 -0.8147 -0.2350  0.2831
 3690TIP3    H211077   4.616   4.627   1.713 -0.8925  1.2099 -0.1168
 3691TIP3   OH211078   1.033   4.986   2.594 -0.6426 -0.5712  0.0022
 3691TIP3    H111079   0.989   4.952   2.516 -3.3528  2.8869 -0.2588
 3691TIP3    H211080   1.044   5.080   2.576  1.0344 -0.1069  2.7737
 3692TIP3   OH211081   0.151   0.039   0.300  0.0779  0.1317  0.4464
 3692TIP3    H111082   0.195  -0.044   0.317  0.0972  0.0302 -0.1032
 3692TIP3    H211083   0.188   0.099   0.365 -0.4316 -0.4514  1.2954
 3693TIP3   OH211084   2.671   2.926   3.739 -0.2487  0.1956 -0.3224
 3693TIP3    H111085   2.759   2.928   3.777 -1.5302  2.0105  2.9664
 3693TIP3    H211086   2.625   2.860   3.791 -1.0599 -0.2632 -1.5823
 3694TIP3   OH211087   5.094   4.748   1.501 -0.6355 -0.2927  0.1244
 3694TIP3    H111088   5.037   4.809   1.454 -0.0462  0.9857  0.9906
 3694TIP3    H211089   5.044   4.722   1.578 -0.2155  0.5615  0.7061
 3695TIP3   OH211090   1.272   3.734   4.727  0.5685  0.2032 -0.1331
 3695TIP3    H111091   1.363   3.761   4.714  0.6283  0.8272  1.3189
 3695TIP3    H211092   1.240   3.713   4.639  1.6047  1.6322 -0.8999
 3696TIP3   OH211093   6.068   5.043   2.249  0.1377  0.0837  0.3737
 3696TIP3    H111094   6.026   4.957   2.254  0.2698  0.0476  0.9311
 3696TIP3    H211095   6.005   5.097   2.201 -0.2307 -0.1585  0.5810
 3697TIP3   OH211096   2.549   0.998   1.802 -0.4861  0.7546  0.1878
 3697TIP3    H111097   2.512   1.051   1.732  1.7822  3.4010  0.8359
 3697TIP3    H211098   2.599   0.930   1.757  0.1768  1.8519 -0.7727
 3698TIP3   OH211099   2.440   0.502   2.396  0.2526 -0.2441  0.1281
 3698TIP3    H111100   2.507   0.539   2.453  2.3952 -0.7186 -1.9305
 3698TIP3    H211101   2.359   0.548   2.420  1.8266  2.2800  0.9387
 3699TIP3   OH211102   1.310   4.154   3.322  0.2632 -0.2104  0.3943
 3699TIP3    H111103   1.222   4.118   3.310  0.5261 -0.8745  0.4457
 3699TIP3    H211104   1.308   4.238   3.275 -0.2546 -0.4397 -0.0012
 3700TIP3   OH211105   3.276   5.616   1.667 -0.1104 -0.2768 -0.0921
 3700TIP3    H111106   3.274   5.535   1.718  0.9448 -1.0802 -1.2625
 3700TIP3    H211107   3.353   5.607   1.610 -0.1386  1.4237 -0.4620
 3701TIP3   OH211108   4.716   3.266   1.494 -0.3386  0.5633  0.3054
 3701TIP3    H111109   4.808   3.285   1.508  0.7930  0.4364 -4.9764
 3701TIP3    H211110   4.676   3.351   1.474 -1.1121  0.4385  1.2392
 3702TIP3   OH211111   4.173   2.520   2.683 -0.4364  0.3972  0.3854
 3702TIP3    H111112   4.178   2.608   2.646 -0.3143 -0.0662 -0.7274
 3702TIP3    H211113   4.079   2.502   2.689 -0.4647 -0.0313 -0.9807
 3703TIP3   OH211114   4.218   3.883   0.527 -0.1226 -0.4289 -0.1725
 3703TIP3    H111115   4.250   3.802   0.566 -1.9998 -0.2112  2.0280
 3703TIP3    H211116   4.190   3.936   0.602  0.2192  1.9090 -1.5958
 3704TIP3   OH211117   3.858   2.286   1.960  0.8357 -0.1753  0.3902
 3704TIP3    H111118   3.787   2.294   2.024 -0.9907 -0.5462 -1.5093
 3704TIP3    H211119   3.859   2.369   1.914  0.1450 -0.9322 -1.0456
 3705TIP3   OH211120   0.656   5.217   2.970  0.0216 -0.0216 -0.6109
 3705TIP3    H111121   0.710   5.260   2.904 -0.0274 -0.4663 -0.9503
 3705TIP3    H211122   0.699   5.132   2.985 -0.2209 -0.1109 -0.4064
 3706TIP3   OH211123   2.711   2.409   5.023  0.3601  0.1917 -0.4780
 3706TIP3    H111124   2.782   2.388   5.084  0.4432  1.4105 -0.1264
 3706TIP3    H211125   2.631   2.403   5.076  0.3965  0.8470 -0.3378
 3707TIP3   OH211126   1.385   2.835   4.684 -0.0160  0.4287 -0.0402
 3707TIP3    H111127   1.402   2.746   4.716 -0.0476  0.7941  1.0264
 3707TIP3    H211128   1.297   2.855   4.717 -0.0328  0.8404 -0.3294
 3708TIP3   OH211129   3.312   1.126   0.120 -0.0829  0.0150 -0.1989
 3708TIP3    H111130   3.369   1.119   0.197 -1.4156  0.9531  0.9415
 3708TIP3    H211131   3.344   1.203   0.073  0.0587  0.0947  0.0297
 3709TIP3   OH211132   5.489   3.259   1.851 -0.3295  0.7037  0.4525
 3709TIP3    H111133   5.401   3.283   1.820 -0.6780  0.0766  0.9274
 3709TIP3    H211134   5.514   3.185   1.795 -0.3807  0.4678  0.7360
 3710TIP3   OH211135   4.545   5.120   3.245 -0.2546 -0.5717 -0.1963
 3710TIP3    H111136   4.626   5.103   3.198 -1.6487 -2.2775 -2.2102
 3710TIP3    H211137   4.559   5.083   3.332  1.4807  0.2216 -0.0974
 3711TIP3   OH211138   6.270   0.393   5.215  0.2940 -0.0262 -0.1055
 3711TIP3    H111139   6.303   0.419   5.129  0.6247  0.0695  0.0475
 3711TIP3    H211140   6.175   0.384   5.203  0.1545  1.2942 -0.1627
 3712TIP3   OH211141   0.847   5.243   2.791 -0.1285 -0.1310  0.0583
 3712TIP3    H111142   0.890   5.183   2.853 -0.5894  1.6884  2.2886
 3712TIP3    H211143   0.919   5.280   2.740  0.7303  0.8854  1.9191
 3713TIP3   OH211144   0.211   4.621   0.903 -0.3982 -0.4052 -0.2990
 3713TIP3    H111145   0.201   4.715   0.917 -1.6455 -0.6568  0.6275
 3713TIP3    H211146   0.255   4.590   0.983  0.8728 -0.4983 -0.9979
 3714TIP3   OH211147   5.442   5.072   3.945  0.3574 -0.1018  0.5761
 3714TIP3    H111148   5.496   5.106   3.874  0.5884 -1.7956 -0.0874
 3714TIP3    H211149   5.482   5.107   4.025  1.8638 -0.5419  0.0314
 3715TIP3   OH211150   5.804   3.951   2.339  0.8793 -0.4407 -0.7043
 3715TIP3    H111151   5.749   4.024   2.310  1.9905  0.8364  0.2836
 3715TIP3    H211152   5.843   3.982   2.421  1.1670 -2.2660 -0.1203
 3716TIP3   OH211153   3.038   4.230   2.165 -0.7552  0.2644 -0.3574
 3716TIP3    H111154   3.105   4.176   2.206 -0.1992  0.2049 -1.3173
 3716TIP3    H211155   2.958   4.177   2.170 -1.1732  0.9951  2.2724
 3717TIP3   OH211156   0.453   1.308   0.071  0.8008 -0.2026  0.2586
 3717TIP3    H111157   0.422   1.251   0.141 -0.4461 -0.4871 -0.4950
 3717TIP3    H211158   0.504   1.376   0.116  0.6666 -0.8118  1.3520
 3718TIP3   OH211159   5.085   5.432   4.104 -0.3123 -0.5467  0.7490
 3718TIP3    H111160   5.136   5.390   4.034 -0.6973  1.3369 -0.7583
 3718TIP3    H211161   4.999   5.391   4.098 -0.5815  0.1244 -0.4725
 3719TIP3   OH211162   0.281   3.804   3.862  0.5657  0.1653  0.0922
 3719TIP3    H111163   0.324   3.854   3.792  1.4772  0.1140  0.5971
 3719TIP3    H211164   0.217   3.865   3.898 -1.5422 -0.5338 -2.2263
 3720TIP3   OH211165   6.031   2.281   4.014  0.4177  0.3266  0.8328
 3720TIP3    H111166   6.053   2.362   3.967 -2.0706  0.8812  0.4662
 3720TIP3    H211167   6.111   2.258   4.061  2.5712  0.6021 -2.3820
 3721TIP3   OH211168   0.512   1.867   4.771 -0.3182 -0.3101 -0.1670
 3721TIP3    H111169   0.599   1.867   4.733 -0.4189  0.5879 -0.4310
 3721TIP3    H211170   0.481   1.957   4.760 -0.1878  0.1237  2.4142
 3722TIP3   OH211171   5.581   0.372   4.943 -0.0236  0.6592 -0.4786
 3722TIP3    H111172   5.527   0.293   4.951  1.3166 -0.1255  1.9040
 3722TIP3    H211173   5.579   0.411   5.030  3.0580  0.6362 -0.2832
 3723TIP3   OH211174   3.711   3.358   3.333 -0.0350  0.3018 -0.2883
 3723TIP3    H111175   3.758   3.338   3.252 -0.8384 -0.3445 -0.6043
 3723TIP3    H211176   3.628   3.396   3.304 -0.2793  0.1790  0.2391
 3724TIP3   OH211177   2.473   4.770   4.608  0.0225  0.1321  0.4550
 3724TIP3    H111178   2.557   4.774   4.654 -0.8121  1.6533  1.9545
 3724TIP3    H211179   2.497   4.770   4.515  1.7081 -1.1830  0.8383
 3725TIP3   OH211180   5.539   5.086   0.623  0.1296  0.0283 -0.0767
 3725TIP3    H111181   5.536   5.154   0.691  2.6036 -0.0887  0.2490
 3725TIP3    H211182   5.632   5.069   0.611 -0.3414 -1.5617 -1.9413
 3726TIP3   OH211183   3.708   1.509   4.843  0.5736 -0.1183 -0.0043
 3726TIP3    H111184   3.725   1.439   4.906  1.9415  0.9275  0.8384
 3726TIP3    H211185   3.637   1.474   4.788 -1.0096 -0.9391  2.3480
 3727TIP3   OH211186   3.848   1.500   0.514  0.6698  0.4874 -0.0105
 3727TIP3    H111187   3.783   1.562   0.546 -0.3091 -0.4247 -0.2072
 3727TIP3    H211188   3.914   1.555   0.471 -0.5431  1.3442 -0.8204
 3728TIP3   OH211189   0.486   2.585   2.045 -0.2486 -0.2280  0.6087
 3728TIP3    H111190   0.581   2.576   2.041 -0.3281 -0.9592  0.1193
 3728TIP3    H211191   0.471   2.664   2.097  0.6502  0.6324 -0.3934
 3729TIP3   OH211192   2.719   1.117   4.885 -0.1689  0.3152 -0.2743
 3729TIP3    H111193   2.707   1.208   4.858 -0.2259  0.6839  0.9457
 3729TIP3    H211194   2.776   1.079   4.818 -1.5606  0.7499 -1.7760
 3730TIP3   OH211195   2.700   4.939   3.555 -0.2981  0.1936  0.0932
 3730TIP3    H111196   2.734   5.020   3.594 -1.0548  0.3891  0.3621
 3730TIP3    H211197   2.617   4.964   3.515  0.4700 -0.0039 -1.7184
 3731TIP3   OH211198   2.487   1.173   1.586 -0.1364  0.2018  0.1156
 3731TIP3    H111199   2.566   1.224   1.603  0.5527 -1.4085  2.0384
 3731TIP3    H211200   2.514   1.109   1.519  0.5340 -0.9795  1.4610
 3732TIP3   OH211201   1.042   5.288   4.480  0.2605  0.1665  0.0061
 3732TIP3    H111202   1.010   5.325   4.563  0.0102 -2.1186  1.0183
 3732TIP3    H211203   0.963   5.261   4.434  0.4673  0.1159 -0.3224
 3733TIP3   OH211204   5.189   0.849   0.156 -0.1619 -0.0994  0.2428
 3733TIP3    H111205   5.127   0.888   0.095  0.2712 -0.1084 -0.2084
 3733TIP3    H211206   5.135   0.809   0.224 -0.7150 -1.8357 -1.1611
 3734TIP3   OH211207   0.357   3.531   4.301  0.2552 -0.9111  0.0190
 3734TIP3    H111208   0.369   3.622   4.330  2.6320 -1.1806  0.1088
 3734TIP3    H211209   0.320   3.486   4.377  2.5560 -0.7450  1.3442
 3735TIP3   OH211210   5.024   4.558   0.601  0.0842 -0.2904  0.3189
 3735TIP3    H111211   4.936   4.553   0.639 -0.5276  0.7495 -0.8935
 3735TIP3    H211212   5.070   4.483   0.639 -1.6938 -1.5844  0.0508
 3736TIP3   OH211213   4.707   3.476   4.549  0.0791 -0.1307  0.5630
 3736TIP3    H111214   4.640   3.475   4.617  0.3415  1.2700  0.8801
 3736TIP3    H211215   4.773   3.538   4.580  1.0349 -0.7150 -0.2083
 3737TIP3   OH211216   1.436   1.329   2.911 -0.1863 -0.0021  0.1587
 3737TIP3    H111217   1.452   1.250   2.859 -1.1999  0.1006 -0.3361
 3737TIP3    H211218   1.348   1.357   2.886  0.2871  1.4968  0.0585
 3738TIP3   OH211219   3.997   4.621   1.182  0.0548  0.1970 -0.8444
 3738TIP3    H111220   4.023   4.533   1.209 -0.6363  0.2177 -0.0951
 3738TIP3    H211221   4.027   4.628   1.091 -1.8325 -1.6229 -1.6905
 3739TIP3   OH211222   4.786   1.705   0.197  0.7683 -0.0128 -0.4829
 3739TIP3    H111223   4.869   1.713   0.151 -0.4254  0.6954 -2.6682
 3739TIP3    H211224   4.755   1.795   0.206  1.4085 -0.0154  2.7481
 3740TIP3   OH211225   3.693   1.866   1.793 -0.2367  0.5226 -0.4590
 3740TIP3    H111226   3.745   1.799   1.836 -2.3222 -0.6182  0.4263
 3740TIP3    H211227   3.756   1.918   1.744  1.4129 -2.3516 -1.5809
 3741TIP3   OH211228   3.108   4.141   4.795 -0.3530 -0.3456  0.7327
 3741TIP3    H111229   3.049   4.106   4.862 -1.4186 -1.6594 -0.8261
 3741TIP3    H211230   3.100   4.236   4.803 -3.9144 -0.4022 -0.3600
 3742TIP3   OH211231   6.343   4.961   1.172 -0.1522 -0.0082  0.0949
 3742TIP3    H111232   6.360   4.957   1.266  0.5153 -1.8493 -0.0698
 3742TIP3    H211233   6.269   4.901   1.158  0.6058 -0.7829 -0.7182
 3743TIP3   OH211234   3.032   5.806   1.634  0.2788  0.2946 -0.4169
 3743TIP3    H111235   3.121   5.832   1.608  0.7758 -0.1741  0.7743
 3743TIP3    H211236   2.981   5.887   1.631  1.2525  0.9857  0.9579
 3744TIP3   OH211237   1.458   1.335   3.979  0.1248 -0.5342  0.8381
 3744TIP3    H111238   1.434   1.380   3.898  0.9823  0.5730  1.1776
 3744TIP3    H211239   1.521   1.393   4.021  0.4496 -1.5639  1.8232
 3745TIP3   OH211240   0.251   2.547   4.938  0.0037 -0.1024 -0.0988
 3745TIP3    H111241   0.281   2.558   5.028 -1.7198 -0.5247  0.5744
 3745TIP3    H211242   0.295   2.616   4.889 -2.7419  3.4451  1.9868
 3746TIP3   OH211243   5.967   4.719   4.988 -0.1197 -0.2275 -0.5892
 3746TIP3    H111244   6.016   4.796   5.019  0.4786  0.2871 -2.6403
 3746TIP3    H211245   5.881   4.727   5.029 -0.0251  1.4846 -0.6432
 3747TIP3   OH211246   6.325   0.993   4.686 -0.8748 -0.2289 -0.5620
 3747TIP3    H111247   6.289   0.989   4.775 -0.8468 -1.0622 -0.5819
 3747TIP3    H211248   6.419   1.006   4.698 -0.7075 -1.4342 -0.4330
 3748TIP3   OH211249   5.738   0.042   0.416 -0.2181 -0.0647 -0.2028
 3748TIP3    H111250   5.700   0.079   0.496 -1.1243 -0.3017 -0.5103
 3748TIP3    H211251   5.707   0.100   0.347 -0.7097 -0.7359 -0.5552
 3749TIP3   OH211252   5.991   4.456   4.032 -0.1929 -0.5005  0.0042
 3749TIP3    H111253   5.937   4.381   4.058 -0.8320  0.5284  1.8362
 3749TIP3    H211254   5.946   4.531   4.069  0.2952  0.8559 -2.0136
 3750TIP3   OH211255   5.604   4.342   2.060 -0.0252  0.3242 -0.0161
 3750TIP3    H111256   5.509   4.351   2.050 -0.3898  0.9509  2.9842
 3750TIP3    H211257   5.637   4.431   2.052  0.2112  0.2194 -0.2150
 3751TIP3   OH211258   1.315   5.204   4.955  0.3675  0.3991  0.3349
 3751TIP3    H111259   1.248   5.261   4.918  1.4128  1.0256 -0.6135
 3751TIP3    H211260   1.274   5.168   5.034 -0.1175  2.9427  1.3540
 3752TIP3   OH211261   5.333   3.820   1.789 -0.2790 -0.1954  0.0326
 3752TIP3    H111262   5.243   3.829   1.819 -0.2941 -2.0593  0.6438
 3752TIP3    H211263   5.326   3.800   1.696 -0.4533  0.4658 -0.0991
 3753TIP3   OH211264   4.743   3.222   2.435  0.0874 -0.0298  0.1772
 3753TIP3    H111265   4.798   3.243   2.360 -1.0551  1.2396 -0.3479
 3753TIP3    H211266   4.781   3.272   2.507 -0.5844  1.1779 -0.2799
 3754TIP3   OH211267   2.174   3.824   0.857 -0.1752 -0.0680  0.0484
 3754TIP3    H111268   2.112   3.873   0.803 -1.9475  0.5273  2.4789
 3754TIP3    H211269   2.260   3.862   0.835 -1.2205  2.5755  0.1915
 3755TIP3   OH211270   5.507   2.200   4.829 -0.4001 -0.7259 -0.2855
 3755TIP3    H111271   5.449   2.210   4.754  0.8015 -5.1005 -2.0605
 3755TIP3    H211272   5.449   2.173   4.900 -1.6608  4.1192  0.9273
 3756TIP3   OH211273   1.806   3.455   2.311 -0.3459  0.5147  0.0848
 3756TIP3    H111274   1.839   3.382   2.259 -1.8716 -1.2476  1.4546
 3756TIP3    H211275   1.885   3.497   2.346  0.6046  0.4153 -1.8483
 3757TIP3   OH211276   0.011   4.654   0.110 -0.0313  0.2403  0.5793
 3757TIP3    H111277  -0.020   4.566   0.131 -0.2826  0.6105  1.8503
 3757TIP3    H211278   0.040   4.690   0.194  0.4646  1.2129  0.0064
 3758TIP3   OH211279   2.867   5.934   2.973 -0.0529  0.0046  0.2677
 3758TIP3    H111280   2.838   5.862   2.917 -2.3753  0.1197  1.2133
 3758TIP3    H211281   2.788   5.960   3.022  1.2849  1.5851  1.7198
 3759TIP3   OH211282   3.420   3.402   1.517 -0.2080 -0.0684 -0.5803
 3759TIP3    H111283   3.419   3.494   1.545  3.0133 -0.6830  2.0710
 3759TIP3    H211284   3.375   3.355   1.587 -2.1833 -0.6003 -2.1031
 3760TIP3   OH211285   1.911   2.002   4.016 -0.6528 -0.4342 -0.2235
 3760TIP3    H111286   1.820   2.031   4.018 -0.7928 -0.8655 -0.0704
 3760TIP3    H211287   1.942   2.012   4.106 -0.4216  0.0947 -0.3600
 3761TIP3   OH211288   2.488   5.647   3.464 -0.1571 -0.3815 -0.3284
 3761TIP3    H111289   2.508   5.702   3.539  0.7047 -0.2019 -0.6781
 3761TIP3    H211290   2.569   5.644   3.413 -0.7975 -0.2431 -1.4100
 3762TIP3   OH211291   2.440   5.267   3.479 -0.1932 -0.5782 -0.3623
 3762TIP3    H111292   2.505   5.312   3.425 -1.2025 -0.2963 -1.3934
 3762TIP3    H211293   2.357   5.311   3.458 -0.9563 -1.8682 -0.1995
 3763TIP3   OH211294   2.818   3.322   0.757  0.0769  0.3328 -0.0322
 3763TIP3    H111295   2.831   3.227   0.752  1.6291  0.5343 -0.2354
 3763TIP3    H211296   2.753   3.341   0.690  0.5496 -0.4647 -0.7341
 3764TIP3   OH211297   3.609   2.185   1.705 -0.5018 -0.2917  0.1180
 3764TIP3    H111298   3.582   2.262   1.655  1.0178 -0.3596 -0.8903
 3764TIP3    H211299   3.703   2.177   1.687 -0.6868 -2.5973 -0.1590
 3765TIP3   OH211300   3.343   3.255   1.033  0.1123  0.2480 -0.3263
 3765TIP3    H111301   3.268   3.222   0.983  0.6681 -1.7179  0.0525
 3765TIP3    H211302   3.305   3.288   1.114 -0.4008 -0.4590 -0.2658
 3766TIP3   OH211303   4.866   3.959   4.449  0.7415 -0.8510  0.2810
 3766TIP3    H111304   4.945   3.923   4.409 -0.2493 -0.9937 -1.6616
 3766TIP3    H211305   4.852   4.043   4.404 -0.1096 -0.7514  0.7032
 3767TIP3   OH211306   1.478   3.279   0.544  0.0346 -0.0898  0.0302
 3767TIP3    H111307   1.431   3.229   0.478  0.0737  0.4423 -0.4117
 3767TIP3    H211308   1.523   3.213   0.597 -2.1541 -0.6889  1.2370
 3768TIP3   OH211309   5.049   2.838   1.974 -0.0230  0.5329 -0.5807
 3768TIP3    H111310   5.137   2.821   1.939  0.6350  2.1870  0.1371
 3768TIP3    H211311   5.036   2.932   1.959 -0.8733  0.7067  1.0639
 3769TIP3   OH211312   3.270   3.652   1.639  0.5099 -0.1500  0.1343
 3769TIP3    H111313   3.263   3.725   1.579  0.4790 -0.3736 -0.1360
 3769TIP3    H211314   3.179   3.625   1.654  0.4704  0.3435  0.8261
 3770TIP3   OH211315   3.359   5.387   2.297  0.2095 -0.6242  0.2759
 3770TIP3    H111316   3.390   5.395   2.387 -4.0866  1.3390  1.8743
 3770TIP3    H211317   3.325   5.298   2.292 -0.3807 -0.4566  0.9955
 3771TIP3   OH211318   0.144   1.697   0.192  0.2576 -0.4248 -0.0123
 3771TIP3    H111319   0.103   1.702   0.106  2.2760 -0.9228 -1.0629
 3771TIP3    H211320   0.074   1.669   0.251 -1.4771  1.1007 -1.2334
 3772TIP3   OH211321   3.065   0.305   3.573  0.1728 -0.2012  0.4402
 3772TIP3    H111322   3.149   0.348   3.589  1.2982 -1.9715 -0.4328
 3772TIP3    H211323   3.003   0.352   3.629  1.7741  0.9761  1.3119
 3773TIP3   OH211324   4.929   1.418   2.799 -0.1788  0.1553  0.0133
 3773TIP3    H111325   4.949   1.511   2.811 -1.1985  0.4808 -0.6560
 3773TIP3    H211326   4.911   1.386   2.888  1.3594  0.2905  0.3921
 3774TIP3   OH211327   0.325   5.720   3.876  0.0273 -0.2964 -0.6965
 3774TIP3    H111328   0.354   5.721   3.785  1.1203 -0.6996 -0.3753
 3774TIP3    H211329   0.330   5.628   3.902  2.2179  0.0733  0.4832
 3775TIP3   OH211330   1.571   4.315   0.340  0.0337 -0.2560  0.6943
 3775TIP3    H111331   1.536   4.404   0.339 -1.2658 -0.7402  0.7490
 3775TIP3    H211332   1.513   4.266   0.281  1.1444 -0.9209  0.1358
 3776TIP3   OH211333   1.964   2.737   0.660  0.4678  0.3745  0.6769
 3776TIP3    H111334   1.933   2.827   0.671 -0.3049  0.0547  1.2640
 3776TIP3    H211335   1.950   2.697   0.746  0.4187 -0.4147  0.3084
 3777TIP3   OH211336   0.595   5.567   1.881 -0.0670 -0.3269 -0.1808
 3777TIP3    H111337   0.647   5.492   1.850 -1.2483 -0.7751 -1.1426
 3777TIP3    H211338   0.505   5.534   1.884 -0.5176  0.8818 -0.0056
 3778TIP3   OH211339   1.197   1.898   4.052 -0.3829  0.3181 -0.2300
 3778TIP3    H111340   1.146   1.978   4.059 -1.1023 -0.1148 -0.3641
 3778TIP3    H211341   1.288   1.927   4.044 -0.5308  1.0856  0.6882
 3779TIP3   OH211342   5.440   5.528   4.146 -0.5917  0.1312  0.0715
 3779TIP3    H111343   5.432   5.515   4.051  3.4498  1.2706 -0.6294
 3779TIP3    H211344   5.443   5.623   4.157  2.9337  0.1166  0.6309
 3780TIP3   OH211345   3.644   3.739   3.033  0.1238  0.2237  0.5577
 3780TIP3    H111346   3.614   3.651   3.057 -0.1761  0.0734 -0.3144
 3780TIP3    H211347   3.691   3.770   3.110 -0.6214 -0.3046  1.2523
 3781TIP3   OH211348   3.274   4.745   1.887 -0.4895  0.2910  0.1783
 3781TIP3    H111349   3.285   4.652   1.867  0.1612  0.3883  0.0449
 3781TIP3    H211350   3.344   4.764   1.950  1.2073  1.3246 -1.8872
 3782TIP3   OH211351   3.833   4.076   2.080 -0.4084 -0.1763  0.1285
 3782TIP3    H111352   3.846   3.984   2.057  0.1302 -0.0067 -0.2626
 3782TIP3    H211353   3.863   4.125   2.003 -0.2670  0.3434  0.5076
 3783TIP3   OH211354   4.870   4.154   1.933 -0.4384  0.0119  0.5827
 3783TIP3    H111355   4.876   4.159   2.028 -0.1145  1.1446  0.5124
 3783TIP3    H211356   4.829   4.236   1.907 -0.3926 -0.2292 -0.2642
 3784TIP3   OH211357   4.425   2.051   1.845  0.4795 -0.7126  0.3612
 3784TIP3    H111358   4.338   2.080   1.818  1.3748  0.1157 -1.8856
 3784TIP3    H211359   4.431   1.960   1.816  0.7218 -0.4340 -0.4964
 3785TIP3   OH211360   3.049   1.622   2.379 -0.0118 -0.3900 -0.2931
 3785TIP3    H111361   3.013   1.707   2.354 -1.3094 -0.9325 -0.3177
 3785TIP3    H211362   3.066   1.630   2.473 -1.2801 -0.4833 -0.0344
 3786TIP3   OH211363   5.369   5.787   4.220  0.2244  0.1820  0.6604
 3786TIP3    H111364   5.308   5.861   4.210 -0.7203 -0.5157  1.0798
 3786TIP3    H211365   5.385   5.781   4.314  1.7525  0.9643  0.4838
 3787TIP3   OH211366   2.869   5.530   3.941  0.8925  0.9054 -0.3821
 3787TIP3    H111367   2.811   5.603   3.962 -0.8150 -0.9179  1.7835
 3787TIP3    H211368   2.821   5.479   3.875  0.4256 -0.0291  0.6314
 3788TIP3   OH211369   0.896   0.683   0.915 -0.0250  0.0336 -0.3415
 3788TIP3    H111370   0.859   0.772   0.915 -0.5169 -0.1511  0.8397
 3788TIP3    H211371   0.822   0.628   0.940  0.3737 -0.6773 -0.7208
 3789TIP3   OH211372   1.852   2.749   3.810 -0.0849  0.4228 -0.0080
 3789TIP3    H111373   1.854   2.771   3.717 -1.3818 -2.1312 -0.7114
 3789TIP3    H211374   1.781   2.802   3.846  1.0168  2.1345 -0.1738
 3790TIP3   OH211375   1.276   3.359   0.027 -0.1383 -0.0247 -0.6438
 3790TIP3    H111376   1.342   3.349   0.096  2.3798  0.3786 -2.8474
 3790TIP3    H211377   1.212   3.290   0.045  0.7306 -0.3074  1.7269
 3791TIP3   OH211378   5.061   0.080   4.860  0.3463  0.6141  0.0047
 3791TIP3    H111379   5.034   0.042   4.777  0.4319 -1.0901  0.7256
 3791TIP3    H211380   5.149   0.048   4.875  0.9583  2.2004  0.0235
 3792TIP3   OH211381   3.179   3.794   3.862  0.2053 -0.3603  0.1780
 3792TIP3    H111382   3.100   3.845   3.845  0.3640  0.1591  0.9280
 3792TIP3    H211383   3.210   3.768   3.775 -1.4990 -1.7101 -0.0868
 3793TIP3   OH211384   0.709   1.287   1.271  0.6750 -0.4641 -0.1699
 3793TIP3    H111385   0.750   1.297   1.185 -0.9765  1.8566 -0.7799
 3793TIP3    H211386   0.690   1.376   1.299 -0.3287 -1.2545  1.8656
 3794TIP3   OH211387   2.733   5.924   3.273  0.3513  0.1941 -0.1139
 3794TIP3    H111388   2.821   5.954   3.250  0.2880 -0.5164 -1.3748
 3794TIP3    H211389   2.691   6.001   3.311  1.3419  0.6914  0.0053
 3795TIP3   OH211390   3.374   0.364   4.553  0.1206  0.2125  0.2031
 3795TIP3    H111391   3.334   0.302   4.492  0.3865 -0.4971  0.7382
 3795TIP3    H211392   3.433   0.416   4.498  0.5771 -0.6118 -0.1157
 3796TIP3   OH211393   1.092   4.194   1.874  0.0620 -0.4596  0.4730
 3796TIP3    H111394   1.050   4.109   1.865 -1.1014  0.2146 -0.8370
 3796TIP3    H211395   1.146   4.186   1.953 -0.3806 -2.2417  0.6367
 3797TIP3   OH211396   4.978   4.155   0.904  0.0183  0.2458 -0.5729
 3797TIP3    H111397   4.998   4.109   0.822  2.2433  0.1721 -0.0417
 3797TIP3    H211398   4.923   4.094   0.953  0.9856 -0.8971 -0.8686
 3798TIP3   OH211399   4.213   3.530   4.351  0.2369 -0.5111  0.0856
 3798TIP3    H111400   4.273   3.555   4.281 -0.6820  2.0436  0.1065
 3798TIP3    H211401   4.159   3.607   4.365 -2.0298 -2.1844  1.1524
 3799TIP3   OH211402   5.122   0.848   3.343 -0.0513  0.2598 -0.2537
 3799TIP3    H111403   5.175   0.812   3.414  0.1507 -0.3843 -0.7154
 3799TIP3    H211404   5.179   0.914   3.303 -0.0550  0.4183  0.0029
 3800TIP3   OH211405   4.502   3.247   2.077  0.4104  0.1437  0.0147
 3800TIP3    H111406   4.504   3.336   2.043 -1.1906  0.1135 -0.2267
 3800TIP3    H211407   4.595   3.223   2.087  0.8664  1.6359 -0.3878
 3801TIP3   OH211408   6.078   5.420   5.179  0.3154  0.4918 -0.5729
 3801TIP3    H111409   6.135   5.355   5.138 -0.5813 -0.1827 -0.7983
 3801TIP3    H211410   6.009   5.436   5.114  1.0537  2.4519 -0.9366
 3802TIP3   OH211411   3.697   3.005   2.219  0.1513 -0.3483  0.1111
 3802TIP3    H111412   3.781   3.038   2.184 -0.1154 -1.4123 -1.6537
 3802TIP3    H211413   3.700   2.911   2.203 -0.2324 -0.8614  2.6352
 3803TIP3   OH211414   2.296   0.079   2.185  0.0930  0.1535 -0.1318
 3803TIP3    H111415   2.203   0.099   2.184  0.3844  2.2164  2.7557
 3803TIP3    H211416   2.338   0.160   2.214  2.5290 -1.4967  1.3078
 3804TIP3   OH211417   2.143   1.330   4.734 -0.3476  0.3309 -0.0192
 3804TIP3    H111418   2.233   1.357   4.716 -0.1691 -0.0098  0.3578
 3804TIP3    H211419   2.089   1.401   4.698  0.1422  1.8756  2.0909
 3805TIP3   OH211420   4.371   2.787   2.886 -0.0901 -0.2254  0.0283
 3805TIP3    H111421   4.344   2.748   2.803  2.2708  0.9113 -1.3730
 3805TIP3    H211422   4.421   2.864   2.861  0.4175  0.3446  2.5425
 3806TIP3   OH211423   5.630   4.068   0.186 -0.4885 -0.2451 -0.0983
 3806TIP3    H111424   5.597   4.099   0.270  2.0017 -0.0582  0.8966
 3806TIP3    H211425   5.641   3.973   0.198  0.4842 -0.1263  0.0469
 3807TIP3   OH211426   4.755   4.584   0.719  0.4102  0.3359 -0.2654
 3807TIP3    H111427   4.689   4.540   0.666 -0.5392  0.3423  0.8824
 3807TIP3    H211428   4.735   4.677   0.710  0.0650  0.3186  0.3488
 3808TIP3   OH211429   2.019   5.833   4.568  0.1473 -0.1677 -0.1391
 3808TIP3    H111430   1.978   5.767   4.512  0.0654 -0.0588 -0.2092
 3808TIP3    H211431   2.088   5.871   4.512 -0.0707  0.0859 -0.2404
 3809TIP3   OH211432   2.236   0.710   4.113 -0.2696 -0.4626  0.3482
 3809TIP3    H111433   2.159   0.755   4.078 -0.5886 -1.0461  0.2916
 3809TIP3    H211434   2.227   0.719   4.208 -0.4508 -0.5889  0.3453
 3810TIP3   OH211435   1.284   5.868   1.055  0.3254  0.1756 -0.0307
 3810TIP3    H111436   1.361   5.863   0.998  1.2955  1.4948  1.0893
 3810TIP3    H211437   1.259   5.960   1.052 -1.3498 -0.2519 -0.4841
 3811TIP3   OH211438   2.367   3.288   4.311  0.1883 -0.2358  0.4041
 3811TIP3    H111439   2.274   3.287   4.287  0.0326  0.6043  0.9283
 3811TIP3    H211440   2.367   3.264   4.404  0.3345  1.3758  0.8440
 3812TIP3   OH211441   0.440   2.022   0.966 -0.1887 -0.1811  0.1594
 3812TIP3    H111442   0.376   2.024   0.894  0.0613 -0.7303 -0.0851
 3812TIP3    H211443   0.389   1.997   1.043  0.0898 -2.9907 -0.4592
 3813TIP3   OH211444   4.367   4.555   4.966 -0.0089  0.2512 -0.0612
 3813TIP3    H111445   4.288   4.606   4.985 -0.3108  0.2977 -1.4066
 3813TIP3    H211446   4.356   4.526   4.876  0.6482 -1.3260  0.3368
 3814TIP3   OH211447   0.684   2.516   0.968  0.2745  0.0498 -0.2303
 3814TIP3    H111448   0.763   2.523   0.915  0.1574 -0.4330 -0.4738
 3814TIP3    H211449   0.678   2.424   0.991  0.4713  0.3030  0.8671
 3815TIP3   OH211450   0.218   5.007   2.058  0.1089 -0.1392  0.1381
 3815TIP3    H111451   0.173   5.090   2.075 -0.7421 -0.7121  0.7403
 3815TIP3    H211452   0.190   4.983   1.970 -2.0914 -1.2697  1.0632
 3816TIP3   OH211453   1.885   5.952   2.514 -0.2277 -0.1790 -0.3400
 3816TIP3    H111454   1.814   6.003   2.554 -0.0088  0.8478 -1.2221
 3816TIP3    H211455   1.842   5.874   2.479 -0.8425  0.1993 -0.4377
 3817TIP3   OH211456   3.978   4.453   2.323  0.0168  0.5881  0.5061
 3817TIP3    H111457   3.969   4.362   2.294  1.9159  0.8174 -1.0079
 3817TIP3    H211458   3.920   4.502   2.265 -1.2945  0.3340  1.5677
 3818TIP3   OH211459   4.376   3.447   1.636 -0.4269  0.0208  0.1439
 3818TIP3    H111460   4.448   3.442   1.699 -0.5858  0.4301  0.3655
 3818TIP3    H211461   4.297   3.441   1.689 -0.5780  1.2403  0.0968
 3819TIP3   OH211462   3.816   0.711   2.176 -0.5640 -0.2042 -0.6439
 3819TIP3    H111463   3.902   0.746   2.199 -0.6181 -0.3285 -0.2481
 3819TIP3    H211464   3.759   0.789   2.173 -0.4328 -0.1195 -0.9301
 3820TIP3   OH211465   4.741   0.378   1.845  0.5278  0.1663  0.2127
 3820TIP3    H111466   4.718   0.465   1.812  2.9140  0.8018  0.0401
 3820TIP3    H211467   4.749   0.324   1.767  0.1316  0.0693  0.2373
 3821TIP3   OH211468   1.243   0.084   1.746  0.1264  0.0625  0.2484
 3821TIP3    H111469   1.289   0.115   1.669 -0.1651 -1.0965 -0.4172
 3821TIP3    H211470   1.274  -0.006   1.759 -1.3980 -0.5139  0.1823
 3822TIP3   OH211471   2.013   3.679   1.189  0.3255 -0.3885 -0.0433
 3822TIP3    H111472   2.048   3.768   1.180  0.1960 -0.2531  0.7544
 3822TIP3    H211473   2.067   3.626   1.131  0.7470  0.1205 -0.1196
 3823TIP3   OH211474   0.597   2.743   2.800  0.0910 -0.2533  0.4207
 3823TIP3    H111475   0.675   2.703   2.839 -0.1509  0.7574  2.0467
 3823TIP3    H211476   0.527   2.725   2.863  0.1023  3.2180  1.6577
 3824TIP3   OH211477   0.721   4.327   1.307  0.4301 -0.3981  0.1668
 3824TIP3    H111478   0.782   4.306   1.377 -0.0740  0.9384  1.0597
 3824TIP3    H211479   0.759   4.288   1.228  1.1105 -1.7659  1.1334
 3825TIP3   OH211480   1.740   1.784   0.921 -0.0716  0.3756 -0.7618
 3825TIP3    H111481   1.720   1.749   0.835  0.6619 -2.0137 -0.0347
 3825TIP3    H211482   1.687   1.863   0.928 -1.7226 -0.5039 -2.5873
 3826TIP3   OH211483   5.543   4.366   5.210  0.0081  0.1982  0.1768
 3826TIP3    H111484   5.522   4.410   5.127  2.0636  3.7450  1.3253
 3826TIP3    H211485   5.632   4.334   5.198 -0.8446 -2.3565 -0.0071
 3827TIP3   OH211486   2.430   2.041   3.840  0.1505 -0.0369  0.4200
 3827TIP3    H111487   2.461   2.131   3.832  3.4566 -1.0277  0.1836
 3827TIP3    H211488   2.472   1.996   3.766 -0.6061 -1.9355  1.0978
 3828TIP3   OH211489   5.966   0.542   1.455 -0.1246  0.2292  0.1588
 3828TIP3    H111490   6.057   0.570   1.457 -0.4561  1.3132  1.4712
 3828TIP3    H211491   5.968   0.453   1.491  0.5097 -0.1334 -0.7288
 3829TIP3   OH211492   3.417   0.399   2.790 -0.4936  0.2591  0.5427
 3829TIP3    H111493   3.348   0.335   2.812  1.1885 -1.8700 -0.0695
 3829TIP3    H211494   3.421   0.398   2.695  0.0662  0.7052  0.5592
 3830TIP3   OH211495   4.957   4.863   4.323 -0.0616  0.3041  0.0363
 3830TIP3    H111496   4.983   4.807   4.396  0.8422 -1.2596 -1.4173
 3830TIP3    H211497   4.928   4.802   4.255 -0.8597  1.7079 -0.9433
 3831TIP3   OH211498   0.827   5.664   0.821 -0.3808 -0.0456  0.2809
 3831TIP3    H111499   0.871   5.749   0.819  1.8711 -1.0899 -2.1820
 3831TIP3    H211500   0.879   5.611   0.882 -0.2298 -0.3092 -0.0656
 3832TIP3   OH211501   1.587   3.107   4.220 -0.3757  0.1233  0.0832
 3832TIP3    H111502   1.585   3.162   4.142 -0.0875  1.1645  0.7767
 3832TIP3    H211503   1.626   3.164   4.287 -0.7200 -0.7062  1.0041
 3833TIP3   OH211504   0.430   4.394   1.597  0.0230 -0.2741 -0.3321
 3833TIP3    H111505   0.432   4.394   1.501  0.4066 -0.4011 -0.3268
 3833TIP3    H211506   0.507   4.446   1.622  0.2689 -0.7433 -0.0915
 3834TIP3   OH211507   0.371   5.202   2.637  0.0693 -0.7555  0.0715
 3834TIP3    H111508   0.464   5.181   2.636 -0.2415 -2.3381 -1.6936
 3834TIP3    H211509   0.367   5.296   2.652  1.9902 -0.4967 -0.8250
 3835TIP3   OH211510   5.398   5.938   1.304  0.2302  0.1006 -0.0964
 3835TIP3    H111511   5.332   6.007   1.292  0.2142 -0.0557 -1.0186
 3835TIP3    H211512   5.434   5.925   1.216 -1.1486 -2.4540 -0.3502
 3836TIP3   OH211513   1.897   2.600   1.000  0.0135  0.0908  0.8656
 3836TIP3    H111514   1.977   2.548   0.993  1.4430  2.4059 -1.5920
 3836TIP3    H211515   1.928   2.689   1.017 -1.8921  1.2809 -1.3748
 3837TIP3   OH211516   5.174   3.063   3.371 -0.1058  0.1134  0.0181
 3837TIP3    H111517   5.229   3.093   3.444  0.5760 -2.5601  0.7414
 3837TIP3    H211518   5.147   3.143   3.326  1.6165  1.7142  1.6501
 3838TIP3   OH211519   5.254   3.066   0.645 -0.6691  0.2384  0.3685
 3838TIP3    H111520   5.202   3.067   0.564  0.0599 -0.4549 -0.1166
 3838TIP3    H211521   5.305   3.147   0.640  1.5356 -1.1313 -1.3412
 3839TIP3   OH211522   3.542   3.496   3.110  0.1014 -0.3782 -0.6287
 3839TIP3    H111523   3.501   3.515   3.194 -0.5934  1.1907 -1.2980
 3839TIP3    H211524   3.481   3.437   3.066 -0.4278  0.2729 -0.7714
 3840TIP3   OH211525   3.438   3.597   4.888 -0.1967 -0.2334  0.3026
 3840TIP3    H111526   3.450   3.679   4.841  0.5013 -0.7782 -0.5114
 3840TIP3    H211527   3.521   3.583   4.933 -0.2429 -0.5937  0.2782
 3841TIP3   OH211528   0.838   4.178   4.207 -0.0650 -0.7023 -0.3694
 3841TIP3    H111529   0.883   4.238   4.267  1.2209  1.1216 -2.9270
 3841TIP3    H211530   0.909   4.129   4.165 -0.6014  0.2415 -2.5096
 3842TIP3   OH211531   0.967   0.391   4.091 -0.6587 -0.0027 -0.2457
 3842TIP3    H111532   1.006   0.345   4.018 -1.4860 -2.1985  0.6036
 3842TIP3    H211533   1.023   0.370   4.166  0.0769  2.0610 -0.1483
 3843TIP3   OH211534   3.959   1.211   2.399 -0.2610 -0.2644 -0.8274
 3843TIP3    H111535   4.028   1.155   2.363 -0.4309 -0.2335 -1.2023
 3843TIP3    H211536   4.002   1.294   2.416  0.1050 -0.6380  0.1520
 3844TIP3   OH211537   4.081   2.058   3.089 -0.4024  0.9184  0.2351
 3844TIP3    H111538   4.111   2.086   3.176  1.0542  3.3076 -0.9435
 3844TIP3    H211539   4.067   2.139   3.041  0.4938 -0.3368 -2.3175
 3845TIP3   OH211540   6.060   2.915   1.073 -0.5457  0.1300  0.5592
 3845TIP3    H111541   6.081   2.828   1.038 -1.1359  0.7394 -1.4476
 3845TIP3    H211542   6.050   2.901   1.167 -0.1503 -1.8777  0.3527
 3846TIP3   OH211543   5.375   5.729   0.426  0.1758  0.0533 -0.1396
 3846TIP3    H111544   5.318   5.707   0.353  1.8331  0.1143 -1.5054
 3846TIP3    H211545   5.420   5.809   0.399  1.1298 -0.1545  0.7498
 3847TIP3   OH211546   4.931   1.451   1.465 -0.5304  0.0026 -0.1912
 3847TIP3    H111547   4.867   1.427   1.532 -0.9620 -0.4979 -0.7754
 3847TIP3    H211548   4.928   1.547   1.464  0.0842  0.0541  1.0741
 3848TIP3   OH211549   5.085   1.454   0.237  0.3633 -0.1043  0.0074
 3848TIP3    H111550   5.095   1.360   0.219  1.3882  0.0070 -0.0482
 3848TIP3    H211551   5.028   1.486   0.167  3.2024  0.0733 -2.3775
 3849TIP3   OH211552   0.185   4.348   0.039  0.1196 -0.0831  0.5367
 3849TIP3    H111553   0.203   4.258   0.064 -1.2467 -1.5772 -3.1198
 3849TIP3    H211554   0.125   4.380   0.106  2.8723 -0.7432  3.5380
 3850TIP3   OH211555   0.242   4.370   3.615 -0.2930  0.7535 -0.0404
 3850TIP3    H111556   0.193   4.448   3.642 -1.1481  0.5299 -0.9131
 3850TIP3    H211557   0.203   4.344   3.532  1.3982  0.6477 -0.8468
 3851TIP3   OH211558   2.336   5.656   1.915  0.0081  0.5624  0.0818
 3851TIP3    H111559   2.416   5.639   1.964 -0.6930  1.2719  1.5271
 3851TIP3    H211560   2.265   5.640   1.978 -1.0169 -0.2036 -1.2006
 3852TIP3   OH211561   2.555   3.488   0.624 -0.7069  0.3981 -0.0140
 3852TIP3    H111562   2.580   3.581   0.624  0.9736 -0.0078  0.8865
 3852TIP3    H211563   2.479   3.484   0.566 -0.5317  2.2613 -0.4560
 3853TIP3   OH211564   4.259   4.340   4.417 -0.6640  0.1412 -0.1581
 3853TIP3    H111565   4.233   4.381   4.335 -1.0691  0.5166  0.1534
 3853TIP3    H211566   4.326   4.398   4.453 -1.0833  0.4167  0.1793
 3854TIP3   OH211567   5.630   1.286   1.855 -0.1177 -0.4541 -0.0512
 3854TIP3    H111568   5.660   1.377   1.854 -1.0296 -0.1527 -1.3584
 3854TIP3    H211569   5.553   1.285   1.798 -0.5087 -1.9198  0.4673
 3855TIP3   OH211570   6.110   1.448   4.222  0.2565  0.1082 -0.6566
 3855TIP3    H111571   6.080   1.363   4.187  0.7918 -1.4216  2.2879
 3855TIP3    H211572   6.056   1.513   4.177 -1.6165 -1.9297 -1.5362
 3856TIP3   OH211573   4.954   1.110   3.379  0.2652  0.1790 -0.1092
 3856TIP3    H111574   4.921   1.040   3.322  0.2149 -1.0870  1.4172
 3856TIP3    H211575   5.047   1.089   3.391  0.4874  0.9502 -0.4347
 3857TIP3   OH211576   2.284   3.628   3.937  0.5797 -0.1103 -0.6884
 3857TIP3    H111577   2.277   3.533   3.952  0.6416  0.2195  1.9647
 3857TIP3    H211578   2.194   3.656   3.921 -0.2289 -0.0891  3.0408
 3858TIP3   OH211579   3.094   2.387   4.377 -0.1036  0.2300  0.4287
 3858TIP3    H111580   3.008   2.424   4.356  0.1445 -0.3589 -1.9462
 3858TIP3    H211581   3.080   2.339   4.459 -2.2127 -0.3704 -0.2042
 3859TIP3   OH211582   1.830   1.976   3.391 -0.0312  0.6256  0.2549
 3859TIP3    H111583   1.898   2.043   3.399  0.1998  0.2413  1.9942
 3859TIP3    H211584   1.876   1.900   3.354  0.1183  0.8566 -0.0390
 3860TIP3   OH211585   2.650   3.676   0.288 -0.2620  0.2836  0.3860
 3860TIP3    H111586   2.614   3.604   0.236  0.6709 -0.5545  0.8614
 3860TIP3    H211587   2.574   3.717   0.327 -0.8148 -0.5011  0.1722
 3861TIP3   OH211588   5.506   3.193   2.133 -0.1964  0.0866 -0.3906
 3861TIP3    H111589   5.501   3.233   2.047  0.1504  1.9884  0.4177
 3861TIP3    H211590   5.599   3.198   2.156 -0.0348 -1.8159 -0.5109
 3862TIP3   OH211591   1.775   2.405   0.295  0.6953  0.1162  0.0159
 3862TIP3    H111592   1.685   2.420   0.323  0.7128  0.2036  0.0271
 3862TIP3    H211593   1.793   2.314   0.316  0.1769 -0.2802 -1.1647
 3863TIP3   OH211594   0.550   4.271   0.136 -0.3424  0.7623  0.3730
 3863TIP3    H111595   0.616   4.337   0.157 -0.7180  1.5250 -0.7380
 3863TIP3    H211596   0.482   4.283   0.202 -0.9514  2.3072 -0.4750
 3864TIP3   OH211597   4.226   2.006   2.298  0.5818  0.5288  0.8641
 3864TIP3    H111598   4.202   2.067   2.367  1.0553  1.7179  0.0062
 3864TIP3    H211599   4.142   1.984   2.255  0.1208 -1.1167  2.4725
 3865TIP3   OH211600   0.951   2.804   0.120 -0.1040 -0.4579  0.5454
 3865TIP3    H111601   0.898   2.725   0.119 -1.2169  0.2623  0.2769
 3865TIP3    H211602   0.888   2.875   0.106  0.7690  0.5314  1.4454
 3866TIP3   OH211603   5.089   5.370   4.960  0.4119 -0.4893 -0.7172
 3866TIP3    H111604   5.011   5.376   5.015  1.0135  2.2906 -0.0431
 3866TIP3    H211605   5.079   5.286   4.914 -3.5436  0.2109 -1.5087
 3867TIP3   OH211606   5.464   1.098   3.160  0.4375  0.3192 -0.0447
 3867TIP3    H111607   5.461   1.050   3.243 -1.8992  0.6136  0.1191
 3867TIP3    H211608   5.532   1.054   3.109  1.0189 -0.7019  1.5458
 3868TIP3   OH211609   3.607   2.947   1.351 -0.2551 -0.3350  0.1140
 3868TIP3    H111610   3.598   3.040   1.334  0.6915 -0.3221 -0.3729
 3868TIP3    H211611   3.651   2.942   1.436 -0.8023 -0.3500  0.4005
 3869TIP3   OH211612   4.183   2.038   0.288 -0.2492 -0.0786 -0.8048
 3869TIP3    H111613   4.222   2.116   0.248 -0.5644  1.5229  1.7386
 3869TIP3    H211614   4.242   1.967   0.264  4.1227  2.0603  2.2029
 3870TIP3   OH211615   2.290   4.671   0.130  0.2211  0.3383  0.8078
 3870TIP3    H111616   2.253   4.592   0.170 -0.0241  0.5004  0.9047
 3870TIP3    H211617   2.222   4.738   0.142 -0.0977  0.2512 -0.3827
 3871TIP3   OH211618   2.112   0.157   4.879 -0.4024 -0.3682 -0.4350
 3871TIP3    H111619   2.078   0.168   4.968 -1.3475 -3.8090 -0.2467
 3871TIP3    H211620   2.071   0.228   4.829  0.5838  2.0015  1.8877
 3872TIP3   OH211621   2.450   3.103   4.096 -0.1717  0.7626 -0.5070
 3872TIP3    H111622   2.450   3.117   4.191  0.0014  2.5485 -0.7282
 3872TIP3    H211623   2.479   3.187   4.060  0.1673 -0.0135 -2.1318
 3873TIP3   OH211624   5.964   0.309   3.136 -0.2239  0.3328 -0.5329
 3873TIP3    H111625   6.044   0.257   3.128 -0.3079  0.2327 -0.7176
 3873TIP3    H211626   5.897   0.258   3.090 -0.9593 -0.7612  1.6259
 3874TIP3   OH211627   1.394   2.216   1.415  0.3305  0.0215  0.4890
 3874TIP3    H111628   1.448   2.146   1.450  0.5596  0.6715  1.4704
 3874TIP3    H211629   1.349   2.253   1.491 -2.8931 -1.5896 -0.4477
 3875TIP3   OH211630   1.839   5.246   3.917  0.3331  0.5182 -0.5813
 3875TIP3    H111631   1.896   5.309   3.873  0.7095 -0.0504 -0.9153
 3875TIP3    H211632   1.759   5.247   3.864  0.4226  0.5540 -0.7176
 3876TIP3   OH211633   4.133   2.000   3.872 -0.0915 -0.1018 -0.5034
 3876TIP3    H111634   4.194   2.035   3.807  0.3436  0.5363  0.2243
 3876TIP3    H211635   4.146   1.905   3.868  0.8435  0.0116 -0.4795
 3877TIP3   OH211636   6.139   2.585   0.211 -0.6091  0.7423  0.0985
 3877TIP3    H111637   6.129   2.582   0.306  1.3890  2.3626  0.4171
 3877TIP3    H211638   6.095   2.665   0.184 -1.5610  0.0617 -0.4373
 3878TIP3   OH211639   3.090   4.300   5.130  0.2980 -0.3012 -0.4139
 3878TIP3    H111640   3.138   4.217   5.129  0.5534 -0.1711 -2.1394
 3878TIP3    H211641   3.004   4.278   5.167  1.1921 -0.7923  1.5079
 3879TIP3   OH211642   1.638   1.957   4.987 -0.4003 -0.0147  0.3085
 3879TIP3    H111643   1.610   1.916   5.068  0.1398 -1.5417 -0.2418
 3879TIP3    H211644   1.662   1.884   4.930 -0.6522  1.0211 -1.1878
 3880TIP3   OH211645   5.438   5.845   4.486  0.0918  0.6425 -0.0705
 3880TIP3    H111646   5.378   5.796   4.541 -2.0252  2.4290 -0.6650
 3880TIP3    H211647   5.460   5.923   4.537 -0.5577  1.4934 -1.0520
 3881TIP3   OH211648   3.539   2.882   0.923 -0.3975 -0.4189  0.0001
 3881TIP3    H111649   3.570   2.854   0.837 -0.4778 -0.5494  0.0150
 3881TIP3    H211650   3.537   2.978   0.917 -2.8694 -0.4659 -1.0100
 3882TIP3   OH211651   6.238   2.197   1.810  0.1480  0.1018 -0.4950
 3882TIP3    H111652   6.226   2.127   1.746  1.6820  1.2549 -2.1563
 3882TIP3    H211653   6.328   2.188   1.840 -0.0598  0.5621  0.3086
 3883TIP3   OH211654   2.020   1.194   2.957 -0.1754 -0.1031  0.4297
 3883TIP3    H111655   1.929   1.195   2.987 -0.3687 -1.0308 -0.0608
 3883TIP3    H211656   2.013   1.194   2.861  0.3878  1.3400  0.3717
 3884TIP3   OH211657   1.224   4.752   3.284  0.1615 -0.0633 -0.6565
 3884TIP3    H111658   1.193   4.802   3.359  1.5804  1.6659 -1.1534
 3884TIP3    H211659   1.144   4.729   3.236 -0.5746  1.9348 -0.5016
 3885TIP3   OH211660   0.368   5.065   0.128 -0.1364 -0.0240 -0.0462
 3885TIP3    H111661   0.413   5.004   0.069 -1.1893 -0.1246 -0.7721
 3885TIP3    H211662   0.380   5.151   0.088  0.9913  0.2151  0.7578
 3886TIP3   OH211663   4.495   5.637   2.973  0.1740 -0.0458  0.1593
 3886TIP3    H111664   4.490   5.546   3.000 -0.4360  0.2299  1.0603
 3886TIP3    H211665   4.544   5.680   3.043  0.7338  0.2628 -0.4156
 3887TIP3   OH211666   3.000   0.042   4.551  0.2744 -0.5053 -0.4827
 3887TIP3    H111667   2.994   0.129   4.590  1.0675 -1.0386  0.8954
 3887TIP3    H211668   2.984  -0.018   4.624 -1.4174 -1.5378 -1.6202
 3888TIP3   OH211669   1.579   1.236   0.752  0.2185 -0.3951 -0.6848
 3888TIP3    H111670   1.565   1.330   0.758 -0.0505 -0.4621 -0.2165
 3888TIP3    H211671   1.673   1.224   0.765  0.2516 -0.1917 -0.7385
 3889TIP3   OH211672   2.062   0.019   4.424  0.4465  0.1918  0.1155
 3889TIP3    H111673   2.027   0.033   4.335  1.1374  0.3450 -0.1388
 3889TIP3    H211674   2.004   0.070   4.480 -0.5627 -0.6565 -0.1327
 3890TIP3   OH211675   5.263   4.606   4.203  0.6193 -0.1033 -0.1888
 3890TIP3    H111676   5.272   4.526   4.255 -2.8002 -1.2321 -1.0232
 3890TIP3    H211677   5.238   4.673   4.266  0.5015 -0.4625  0.1517
 3891TIP3   OH211678   6.080   5.504   2.648  0.1701  0.7991 -0.3204
 3891TIP3    H111679   6.044   5.588   2.619  0.6713  1.6815  1.4539
 3891TIP3    H211680   6.084   5.512   2.743 -3.3079 -2.7141  0.3485
 3892TIP3   OH211681   5.956   3.071   4.389  1.0693  0.4592  0.2324
 3892TIP3    H111682   6.049   3.090   4.399  1.6796 -0.3037 -2.9381
 3892TIP3    H211683   5.953   2.977   4.371 -0.6455 -0.1028  2.8903
 3893TIP3   OH211684   2.057   0.883   1.447  0.4339 -0.1467  0.1085
 3893TIP3    H111685   2.112   0.952   1.484  1.6147 -1.6326  1.2296
 3893TIP3    H211686   2.118   0.820   1.410 -0.5259 -1.4542  0.6634
 3894TIP3   OH211687   5.976   4.362   1.532 -0.0246  0.0553 -0.4173
 3894TIP3    H111688   6.010   4.342   1.620 -1.0702  2.7817  0.6927
 3894TIP3    H211689   5.881   4.359   1.542 -0.1887  2.0629 -0.9801
 3895TIP3   OH211690   2.018   1.124   4.009  0.1992 -0.3687  0.4474
 3895TIP3    H111691   1.938   1.077   3.986 -1.0725  1.6232  0.5831
 3895TIP3    H211692   1.989   1.191   4.071  1.5973  1.6947 -1.0072
 3896TIP3   OH211693   2.782   1.793   0.795 -0.4009  0.7005 -0.0225
 3896TIP3    H111694   2.867   1.774   0.835 -0.2691 -0.5344 -0.8364
 3896TIP3    H211695   2.718   1.776   0.864 -0.3275 -3.1706 -0.6737
 3897TIP3   OH211696   1.300   2.673   0.213  0.1277  0.1367  0.0378
 3897TIP3    H111697   1.390   2.696   0.239  0.1160 -0.1326  0.3171
 3897TIP3    H211698   1.311   2.602   0.151  0.0962 -0.1036  0.3040
 3898TIP3   OH211699   4.982   2.831   2.529  0.1007  0.4451  0.6320
 3898TIP3    H111700   4.901   2.874   2.557  0.5333  1.7771 -0.0644
 3898TIP3    H211701   4.974   2.823   2.434 -0.1968 -1.5800  0.7771
 3899TIP3   OH211702   3.900   0.149   2.027  0.2014  0.2073  0.2564
 3899TIP3    H111703   3.965   0.080   2.013  0.5515  0.3648  1.0744
 3899TIP3    H211704   3.863   0.165   1.940  1.6033  0.4664 -0.3178
 3900TIP3   OH211705   1.417   4.720   0.591  0.1671  0.1653  0.2350
 3900TIP3    H111706   1.355   4.773   0.541 -0.1030 -0.9568 -0.6720
 3900TIP3    H211707   1.503   4.745   0.558  0.0983  0.6499  0.4232
 3901TIP3   OH211708   3.513   2.445   3.441  0.1528 -0.2433 -0.1898
 3901TIP3    H111709   3.466   2.366   3.414  0.4256  0.0798 -1.7208
 3901TIP3    H211710   3.484   2.461   3.531  0.0852 -2.0672  0.1458
 3902TIP3   OH211711   3.709   0.361   1.102  0.0153 -0.5600  0.1681
 3902TIP3    H111712   3.751   0.446   1.085 -0.7097  0.0916  1.4756
 3902TIP3    H211713   3.622   0.384   1.133 -0.3473 -1.8163  0.0998
 3903TIP3   OH211714   1.095   2.564   3.107 -0.4165 -0.0115 -0.1114
 3903TIP3    H111715   1.051   2.497   3.055 -1.4679  0.5788  0.0037
 3903TIP3    H211716   1.161   2.601   3.048  0.1189 -1.0715 -0.2021
 3904TIP3   OH211717   0.168   1.013   2.222  0.6494  0.1930 -0.1482
 3904TIP3    H111718   0.257   1.049   2.214  0.7524  0.5708  2.0987
 3904TIP3    H211719   0.181   0.925   2.258  0.1030  0.4728  0.7509
 3905TIP3   OH211720   4.900   4.810   3.320  0.5194  0.4511 -0.3060
 3905TIP3    H111721   4.990   4.829   3.293  0.2176  1.4622 -0.6271
 3905TIP3    H211722   4.852   4.890   3.302  0.0587  0.8293  2.2388
 3906TIP3   OH211723   2.678   2.267   0.117  0.1933 -0.1585  0.8156
 3906TIP3    H111724   2.628   2.192   0.085 -0.4616  0.4198  0.4594
 3906TIP3    H211725   2.750   2.229   0.167  0.2108 -1.0382  0.1367
 3907TIP3   OH211726   0.366   2.309   4.018  0.4530 -0.3377 -0.3720
 3907TIP3    H111727   0.448   2.324   3.972  0.5717 -1.6005 -0.6033
 3907TIP3    H211728   0.312   2.258   3.957 -0.2439 -0.1163  0.0371
 3908TIP3   OH211729   0.926   2.998   0.366 -0.3506 -0.3095  0.2398
 3908TIP3    H111730   0.841   2.961   0.346 -0.2247 -1.0228  0.9891
 3908TIP3    H211731   0.927   3.082   0.319  0.0885 -1.9996 -3.0514
 3909TIP3   OH211732   2.001   1.428   0.374  0.0850 -0.1939  0.1316
 3909TIP3    H111733   1.916   1.432   0.331 -0.0622  3.4556  0.4618
 3909TIP3    H211734   2.061   1.395   0.306 -1.0224  0.4303 -1.1855
 3910TIP3   OH211735   0.377   4.438   4.376 -0.0759  0.0642  0.2475
 3910TIP3    H111736   0.371   4.445   4.471 -0.7334 -2.6345  0.4802
 3910TIP3    H211737   0.455   4.385   4.360 -0.5785 -0.4386 -0.6446
 3911TIP3   OH211738   4.559   4.346   2.213  0.2723  0.7152 -0.0659
 3911TIP3    H111739   4.481   4.316   2.166  0.1555 -2.0616  1.6718
 3911TIP3    H211740   4.571   4.436   2.184 -2.1048  0.4501 -2.2832
 3912TIP3   OH211741   4.562   3.641   2.133 -0.6855  0.3792  0.1143
 3912TIP3    H111742   4.481   3.624   2.084 -0.4068  1.5610 -0.7995
 3912TIP3    H211743   4.534   3.645   2.225 -1.4117 -0.6767 -0.0373
 3913TIP3   OH211744   2.208   0.329   3.694  0.0480  0.2389  0.3056
 3913TIP3    H111745   2.284   0.276   3.668  1.4027  1.5076  1.5077
 3913TIP3    H211746   2.177   0.289   3.775 -0.1325  0.1406  0.1886
 3914TIP3   OH211747   2.137   0.381   1.062  0.8483  0.5634  0.1867
 3914TIP3    H111748   2.220   0.418   1.031 -0.0855  0.1341 -3.1041
 3914TIP3    H211749   2.131   0.295   1.020 -0.2486 -0.4468  2.2255
 3915TIP3   OH211750   0.651   4.777   0.704  0.3683  0.4918  0.2888
 3915TIP3    H111751   0.651   4.715   0.777  2.1853  2.2097  1.8518
 3915TIP3    H211752   0.559   4.782   0.677 -0.1582 -1.1473  1.5885
 3916TIP3   OH211753   5.444   1.807   4.425  0.1219 -0.4995  0.9789
 3916TIP3    H111754   5.506   1.746   4.385  0.9768  1.4288 -0.7999
 3916TIP3    H211755   5.365   1.799   4.371 -0.9705 -2.3290  2.7252
 3917TIP3   OH211756   6.020   5.161   1.572  0.0813  0.0878  0.0086
 3917TIP3    H111757   6.010   5.209   1.490  0.8480  1.0882  0.4788
 3917TIP3    H211758   6.108   5.124   1.568  0.4476  0.8442  0.7203
 3918TIP3   OH211759   5.978   5.859   4.148 -0.8436  0.3900 -0.2638
 3918TIP3    H111760   5.918   5.825   4.216 -1.0839  0.4471 -0.4462
 3918TIP3    H211761   6.043   5.909   4.197 -0.6559 -0.0888 -0.0165
 3919TIP3   OH211762   5.197   4.006   2.197 -0.4018 -0.2612  0.1145
 3919TIP3    H111763   5.270   3.979   2.141 -0.9632 -1.5768 -0.0161
 3919TIP3    H211764   5.153   3.924   2.219 -2.5560  0.5969 -0.7887
 3920TIP3   OH211765   2.862   3.345   1.929  0.0219 -0.3683  0.2358
 3920TIP3    H111766   2.846   3.435   1.957  1.0590  0.4365 -1.6109
 3920TIP3    H211767   2.776   3.303   1.933 -0.3427  0.4504  1.8829
 3921TIP3   OH211768   1.364   0.870   3.967  0.0506  0.2002 -0.6936
 3921TIP3    H111769   1.285   0.885   3.915 -0.9491  1.1102  0.9912
 3921TIP3    H211770   1.355   0.781   3.999  0.1031  0.0371 -1.1228
 3922TIP3   OH211771   2.278   0.771   1.810  0.0264  0.5154 -0.1185
 3922TIP3    H111772   2.338   0.813   1.747 -2.2381  0.4222 -2.5072
 3922TIP3    H211773   2.282   0.678   1.787 -2.3794  0.7095 -1.7094
 3923TIP3   OH211774   0.047   3.329   2.967  0.0378  0.3222 -0.2221
 3923TIP3    H111775   0.127   3.310   2.919 -0.9926  0.2312 -2.0018
 3923TIP3    H211776   0.013   3.409   2.926 -1.4218 -0.3464 -0.4076
 3924TIP3   OH211777   4.428   1.295   3.687 -0.4741 -0.3265  0.0180
 3924TIP3    H111778   4.510   1.266   3.728  0.1083 -0.9975 -1.5200
 3924TIP3    H211779   4.451   1.377   3.644 -0.3260 -0.9627 -1.1736
 3925TIP3   OH211780   3.355   0.164   3.791  0.2664 -0.3818  0.5619
 3925TIP3    H111781   3.312   0.250   3.795  0.4383 -0.2996  0.6641
 3925TIP3    H211782   3.305   0.110   3.853 -0.7211 -0.7574 -0.5261
 3926TIP3   OH211783   5.474   4.001   3.149 -0.0835  0.5284 -0.0949
 3926TIP3    H111784   5.556   3.989   3.198 -0.6275 -0.2267  0.6605
 3926TIP3    H211785   5.479   3.937   3.078  1.1004  2.2176 -1.6192
 3927TIP3   OH211786   4.344   1.451   4.559  1.1309 -0.0149 -0.3314
 3927TIP3    H111787   4.257   1.487   4.544  1.0588  0.3191  0.7902
 3927TIP3    H211788   4.404   1.519   4.529  1.0340 -0.5151 -1.7386
 3928TIP3   OH211789   6.202   4.711   0.371  0.5870 -0.2772  0.2805
 3928TIP3    H111790   6.146   4.634   0.361  1.0223 -0.7572  1.3792
 3928TIP3    H211791   6.162   4.760   0.443  0.5462  0.3240 -0.1442
 3929TIP3   OH211792   5.112   4.661   4.843 -0.0717  1.3495  0.4176
 3929TIP3    H111793   5.020   4.655   4.871  0.0943 -0.5226  0.7162
 3929TIP3    H211794   5.162   4.656   4.925  0.3131  0.8010  0.1534
 3930TIP3   OH211795   6.094   5.772   4.413  0.0977  0.3982  0.5431
 3930TIP3    H111796   6.121   5.847   4.465  0.7528  1.6424 -1.4844
 3930TIP3    H211797   6.002   5.760   4.435  0.4911  0.4462  2.4176
 3931TIP3   OH211798   6.172   2.879   0.735 -0.8447 -0.4704  0.2237
 3931TIP3    H111799   6.241   2.893   0.669  0.1290 -0.4485  1.2161
 3931TIP3    H211800   6.209   2.815   0.795 -2.1394 -1.2900  0.1803
 3932TIP3   OH211801   1.674   2.508   2.033 -0.4861 -0.7682 -0.4412
 3932TIP3    H111802   1.615   2.512   1.957 -1.9639 -1.2866  0.6187
 3932TIP3    H211803   1.618   2.476   2.104  1.1055 -1.2884  0.6222
 3933TIP3   OH211804   6.119   2.989   3.636  0.0856 -0.0338 -0.5437
 3933TIP3    H111805   6.171   3.009   3.558  0.3456  0.3080 -0.2857
 3933TIP3    H211806   6.112   3.072   3.682  1.4173 -0.5639  0.6794
 3934TIP3   OH211807   0.269   4.853   5.091  0.1629  0.3455 -0.1078
 3934TIP3    H111808   0.299   4.762   5.095 -0.7921 -0.1388 -2.4225
 3934TIP3    H211809   0.350   4.905   5.089  0.7640 -0.5822 -0.6381
 3935TIP3   OH211810   3.438   3.319   2.377  0.1106  0.1680 -0.2665
 3935TIP3    H111811   3.436   3.359   2.290 -1.6848  0.8301  0.0269
 3935TIP3    H211812   3.386   3.239   2.368 -1.7989  1.2251  0.5738
 3936TIP3   OH211813   0.814   4.840   5.005  0.5774  0.1769 -0.5346
 3936TIP3    H111814   0.724   4.871   5.008  0.3671 -0.4592  0.0966
 3936TIP3    H211815   0.855   4.890   4.934 -0.2376  0.5473 -0.7520
 3937TIP3   OH211816   0.114   3.332   1.266 -0.0324 -0.3469 -0.0717
 3937TIP3    H111817   0.205   3.303   1.260  0.2196  0.4008  0.0453
 3937TIP3    H211818   0.078   3.283   1.339  0.6155  0.2095  0.6332
 3938TIP3   OH211819   5.703   5.626   3.875  0.8062  0.3095 -0.1090
 3938TIP3    H111820   5.769   5.617   3.807  1.6933  0.2612  0.7418
 3938TIP3    H211821   5.638   5.558   3.855  1.4963 -0.2692 -0.4062
 3939TIP3   OH211822   0.170   3.750   0.309 -0.3615 -0.0764  0.2492
 3939TIP3    H111823   0.090   3.720   0.354 -0.8360  1.2455  0.3213
 3939TIP3    H211824   0.141   3.823   0.254  0.9919  1.2588  1.2276
 3940TIP3   OH211825   1.760   4.460   1.305 -0.2105 -0.5733 -0.3119
 3940TIP3    H111826   1.673   4.470   1.344  0.3264  0.1880  0.7345
 3940TIP3    H211827   1.750   4.495   1.216 -1.1731 -1.2995 -0.5128
 3941TIP3   OH211828   4.510   2.698   1.070  1.0328 -0.5535 -0.7706
 3941TIP3    H111829   4.602   2.701   1.043  1.3063 -1.2083  0.0405
 3941TIP3    H211830   4.474   2.781   1.040  1.9509 -0.1806 -0.8920
 3942TIP3   OH211831   4.519   4.806   4.709 -0.1032 -0.1693 -0.0171
 3942TIP3    H111832   4.432   4.810   4.669  0.2814  1.0744 -0.7789
 3942TIP3    H211833   4.520   4.879   4.771 -0.0562 -1.0008  0.9993
 3943TIP3   OH211834   4.932   4.707   2.888 -0.1008  0.1542 -0.4100
 3943TIP3    H111835   4.883   4.677   2.811 -0.0641 -2.7269  0.5588
 3943TIP3    H211836   4.865   4.718   2.956 -0.0446  1.9959 -0.6042
 3944TIP3   OH211837   4.298   3.505   1.179 -0.3781 -0.0080  0.1875
 3944TIP3    H111838   4.392   3.515   1.165  0.0750 -0.5081  2.5129
 3944TIP3    H211839   4.265   3.594   1.186  0.3698  0.1847  1.7370
 3945TIP3   OH211840   2.518   0.190   0.426 -0.0123  0.0965  0.3908
 3945TIP3    H111841   2.580   0.179   0.497 -0.6110 -1.5956  0.7048
 3945TIP3    H211842   2.438   0.222   0.468  0.4442  1.7191  0.0690
 3946TIP3   OH211843   2.505   3.350   5.092 -0.1864 -0.4548  0.2322
 3946TIP3    H111844   2.551   3.349   5.008  0.7928  0.8580  0.7059
 3946TIP3    H211845   2.484   3.442   5.106 -0.3938 -0.6632  1.3849
 3947TIP3   OH211846   1.619   1.944   2.847  0.3848 -0.0912  0.2504
 3947TIP3    H111847   1.696   1.891   2.826 -0.1411 -1.3234  1.2917
 3947TIP3    H211848   1.580   1.964   2.762  0.0710 -2.2399 -0.1669
 3948TIP3   OH211849   0.218   0.442   3.799  0.1603 -0.1129 -0.1008
 3948TIP3    H111850   0.262   0.502   3.859 -0.8771 -1.2395  1.9025
 3948TIP3    H211851   0.249   0.355   3.825  0.1394 -0.6254 -1.6460
 3949TIP3   OH211852   3.199   0.821   4.757 -0.2407 -0.3350 -0.5704
 3949TIP3    H111853   3.230   0.857   4.674 -2.0426 -2.1750 -2.1515
 3949TIP3    H211854   3.279   0.800   4.806  0.9294 -0.5776 -2.4839
 3950TIP3   OH211855   0.208   1.952   0.256 -0.1658  0.3531  0.5222
 3950TIP3    H111856   0.120   1.975   0.285 -1.3633 -1.4541 -1.3163
 3950TIP3    H211857   0.201   1.860   0.231  2.1241  0.3089 -0.1777
 3951TIP3   OH211858   5.881   5.820   4.973 -0.8783 -0.2058 -0.1016
 3951TIP3    H111859   5.849   5.785   5.056  1.4373  0.2142  1.0690
 3951TIP3    H211860   5.810   5.806   4.911 -2.7843 -0.3029  2.0022
 3952TIP3   OH211861   4.768   5.801   2.019 -0.3729 -0.1263 -0.0469
 3952TIP3    H111862   4.775   5.747   1.940  0.0336  0.2939 -0.2959
 3952TIP3    H211863   4.856   5.802   2.055 -0.1880  1.0545 -0.4950
 3953TIP3   OH211864   5.028   5.846   0.338  0.3396 -0.1516 -0.1430
 3953TIP3    H111865   4.938   5.828   0.364  0.7897 -0.0650  1.6203
 3953TIP3    H211866   5.022   5.917   0.275 -0.8063 -0.0232  0.1042
 3954TIP3   OH211867   1.142   2.707   4.104 -0.3085 -0.3945 -0.2256
 3954TIP3    H111868   1.053   2.677   4.119 -0.8415  0.8751 -0.6565
 3954TIP3    H211869   1.134   2.773   4.035  1.0546 -0.7311 -0.7520
 3955TIP3   OH211870   4.304   5.703   0.389 -0.0997 -0.4098  0.5720
 3955TIP3    H111871   4.228   5.751   0.421 -1.2580 -1.0893 -1.0190
 3955TIP3    H211872   4.297   5.709   0.294  1.8377 -0.5329  0.3901
 3956TIP3   OH211873   3.682   4.794   0.691  0.4981 -0.4932 -0.5761
 3956TIP3    H111874   3.729   4.838   0.762  0.7831  0.4470 -1.3319
 3956TIP3    H211875   3.668   4.862   0.625 -2.8310 -0.4454  0.0264
 3957TIP3   OH211876   4.554   5.719   0.522 -0.2131  0.0600  0.1947
 3957TIP3    H111877   4.475   5.719   0.468 -0.3826 -0.6966  0.4257
 3957TIP3    H211878   4.522   5.732   0.611  0.0489  1.0862  0.1516
 3958TIP3   OH211879   3.282   1.480   1.754 -0.3169  0.4395 -0.1638
 3958TIP3    H111880   3.212   1.535   1.721  0.2418  1.6840  0.6530
 3958TIP3    H211881   3.285   1.499   1.848  0.2055 -0.6312  0.0505
 3959TIP3   OH211882   0.851   2.341   0.367 -0.0518 -0.2394  0.4890
 3959TIP3    H111883   0.768   2.382   0.390 -0.5280 -0.7210 -0.3172
 3959TIP3    H211884   0.902   2.411   0.327  0.1806  0.2084  1.5189
 3960TIP3   OH211885   2.233   2.869   3.701 -0.5738  0.5182 -0.0083
 3960TIP3    H111886   2.201   2.785   3.668  1.2708 -0.1134 -0.3015
 3960TIP3    H211887   2.271   2.848   3.786 -1.4800  1.3740  0.6365
 3961TIP3   OH211888   3.245   1.458   0.218  0.6716  0.4994 -0.1361
 3961TIP3    H111889   3.312   1.413   0.167 -0.5190  0.9261 -2.1866
 3961TIP3    H211890   3.293   1.504   0.286  2.1269 -2.1200  0.7668
 3962TIP3   OH211891   2.465   5.534   0.002 -0.2706  0.1349  0.4607
 3962TIP3    H111892   2.401   5.475   0.042  0.6839 -0.4242  1.1810
 3962TIP3    H211893   2.468   5.610   0.061 -1.0414  0.6601 -0.1426
 3963TIP3   OH211894   6.075   4.299   1.981 -0.5991  0.3972  0.2458
 3963TIP3    H111895   6.143   4.347   2.028 -0.1066  0.4726 -0.5305
 3963TIP3    H211896   6.004   4.288   2.045 -0.7235  2.1502  0.4360
 3964TIP3   OH211897   2.135   3.273   0.891 -0.1764 -0.6836  0.0891
 3964TIP3    H111898   2.158   3.365   0.899  2.3220 -1.2399  0.1234
 3964TIP3    H211899   2.060   3.262   0.949 -0.7753  1.3815 -0.2252
 3965TIP3   OH211900   0.675   2.336   2.885 -0.0423 -0.2672  0.0275
 3965TIP3    H111901   0.698   2.403   2.820  0.4144  0.5808  1.0426
 3965TIP3    H211902   0.740   2.266   2.871 -1.3734 -1.2085 -1.9880
 3966TIP3   OH211903   3.101   2.600   2.555  0.1671  0.1157 -0.4172
 3966TIP3    H111904   3.066   2.670   2.609  0.0134  0.4381 -0.9278
 3966TIP3    H211905   3.192   2.590   2.583  0.0790  0.2491 -0.0773
 3967TIP3   OH211906   0.841   0.035   3.818 -0.0180  0.4092  0.4457
 3967TIP3    H111907   0.753   0.022   3.854 -0.5867  0.1375 -0.9727
 3967TIP3    H211908   0.832   0.017   3.725  2.1634 -2.5844  0.6528
 3968TIP3   OH211909   0.253   5.036   2.437  0.1690 -0.1145  0.6857
 3968TIP3    H111910   0.285   5.095   2.505  1.0769 -0.2149  0.3609
 3968TIP3    H211911   0.170   5.075   2.409  0.8216  1.1285  0.3637
 3969TIP3   OH211912   4.449   0.676   2.432  0.3860 -0.1690 -0.2291
 3969TIP3    H111913   4.473   0.653   2.342 -0.8382 -0.9573 -0.3648
 3969TIP3    H211914   4.432   0.771   2.428  1.8087  0.1033 -0.4772
 3970TIP3   OH211915   1.877   2.837   3.131  0.2834 -0.5640 -0.5324
 3970TIP3    H111916   1.901   2.754   3.091  0.9794 -0.4879 -0.2767
 3970TIP3    H211917   1.781   2.834   3.138  0.3699 -1.8092  0.4746
 3971TIP3   OH211918   3.927   2.906   1.150  0.4258  0.5364 -0.4146
 3971TIP3    H111919   3.995   2.908   1.218 -0.8687 -0.0042  0.9550
 3971TIP3    H211920   3.898   2.997   1.143 -0.4275  0.3903  0.8503
 3972TIP3   OH211921   1.617   1.828   0.368  0.1118  0.5139 -0.1743
 3972TIP3    H111922   1.690   1.862   0.317 -0.2411  0.5360 -0.6704
 3972TIP3    H211923   1.597   1.898   0.430  2.2712 -0.5306  1.8466
 3973TIP3   OH211924   0.318   4.560   3.423  0.4628 -0.3279 -0.3070
 3973TIP3    H111925   0.276   4.509   3.355  0.4354  0.1636 -0.6681
 3973TIP3    H211926   0.254   4.565   3.494 -0.0014  0.2154 -0.7572
 3974TIP3   OH211927   5.220   5.295   3.098  0.3078 -0.1684  0.1195
 3974TIP3    H111928   5.245   5.356   3.168  0.4543 -1.1850  0.9811
 3974TIP3    H211929   5.303   5.271   3.057  0.2481  0.2169 -0.2323
 3975TIP3   OH211930   0.543   0.541   2.222 -0.5073 -0.4662  0.3427
 3975TIP3    H111931   0.507   0.582   2.300 -1.6928 -1.6980  0.4807
 3975TIP3    H211932   0.606   0.605   2.188 -0.3484  0.3048  1.9926
 3976TIP3   OH211933   4.182   1.886   2.691 -0.1926 -0.4964  0.7418
 3976TIP3    H111934   4.163   1.979   2.698  0.9844  0.3076 -3.5571
 3976TIP3    H211935   4.096   1.844   2.685 -0.7329  0.5902  0.6651
 3977TIP3   OH211936   3.568   2.236   0.072  0.5286 -0.7043 -0.8960
 3977TIP3    H111937   3.540   2.327   0.065  2.2223 -0.1049 -0.3709
 3977TIP3    H211938   3.646   2.239   0.127  1.8529 -2.2081 -2.5558
 3978TIP3   OH211939   2.329   3.253   2.039  0.3644  0.3525 -0.0435
 3978TIP3    H111940   2.284   3.269   1.956 -0.2902  1.2551  0.4666
 3978TIP3    H211941   2.392   3.184   2.019 -0.8796 -0.5929 -0.9067
 3979TIP3   OH211942   4.948   1.370   3.281 -0.0196  0.4823 -0.4277
 3979TIP3    H111943   4.940   1.281   3.315 -1.1758  1.4339  2.0580
 3979TIP3    H211944   4.909   1.425   3.349  0.7138  2.9088 -1.8493
 3980TIP3   OH211945   4.149   3.288   1.065 -0.5944 -0.3670 -0.1081
 3980TIP3    H111946   4.082   3.347   1.098 -1.4528 -0.9775 -0.7121
 3980TIP3    H211947   4.210   3.278   1.138 -1.6797 -0.5688  0.7944
 3981TIP3   OH211948   1.199   2.158   0.908 -0.4624  0.2293  0.7761
 3981TIP3    H111949   1.269   2.221   0.929  0.0829 -0.6972  1.7831
 3981TIP3    H211950   1.239   2.098   0.845 -0.6859  0.3135  0.5504
 3982TIP3   OH211951   3.844   0.262   4.961 -0.1482 -0.5323  0.2983
 3982TIP3    H111952   3.929   0.218   4.966  0.0595 -0.5353 -2.1071
 3982TIP3    H211953   3.852   0.335   5.022  2.9362  1.4794 -2.1542
 3983TIP3   OH211954   1.736   1.478   0.306 -0.3540  0.3351 -0.2411
 3983TIP3    H111955   1.677   1.506   0.375  0.4388  0.3198  0.4657
 3983TIP3    H211956   1.681   1.432   0.243 -1.4503  2.1148 -0.6660
 3984TIP3   OH211957   5.823   1.332   0.810  0.1800  0.4984  0.4768
 3984TIP3    H111958   5.817   1.329   0.906 -0.5904 -1.0890  0.4044
 3984TIP3    H211959   5.733   1.343   0.780  0.1370 -1.0352 -0.0799
 3985TIP3   OH211960   5.004   4.399   2.401 -0.1499 -0.4062  0.0037
 3985TIP3    H111961   5.000   4.493   2.386  0.9109 -0.4667 -0.7422
 3985TIP3    H211962   5.009   4.390   2.496 -0.5653  0.2646  0.0940
 3986TIP3   OH211963   1.756   3.686   3.548  0.3935  0.3032 -0.4838
 3986TIP3    H111964   1.743   3.738   3.627  0.5260  0.8059 -0.7918
 3986TIP3    H211965   1.671   3.688   3.503  0.3191  0.0197 -0.3639
 3987TIP3   OH211966   2.516   1.073   3.490 -0.0866  0.5364  0.4171
 3987TIP3    H111967   2.520   0.996   3.547 -0.6031  1.5999  1.9445
 3987TIP3    H211968   2.439   1.059   3.435 -0.4513  0.1744  1.0166
 3988TIP3   OH211969   5.207   5.667   3.995 -0.1143  0.2737  0.1624
 3988TIP3    H111970   5.160   5.590   4.028 -0.9241  0.5891 -0.2103
 3988TIP3    H211971   5.223   5.720   4.073 -1.8707  0.9359  0.1159
 3989TIP3   OH211972   6.034   2.998   4.934 -0.2981 -0.7654  0.2527
 3989TIP3    H111973   5.966   2.931   4.935 -1.0967  0.0039 -0.3206
 3989TIP3    H211974   5.990   3.078   4.965  0.4240 -0.3346  0.1918
 3990TIP3   OH211975   5.448   5.521   1.821  0.3456 -0.4888 -0.3942
 3990TIP3    H111976   5.528   5.523   1.873  0.8367  0.1650 -1.1605
 3990TIP3    H211977   5.386   5.575   1.870 -0.3011 -2.5476  1.2171
 3991TIP3   OH211978   4.752   1.816   2.959 -0.3000 -0.1091 -0.0257
 3991TIP3    H111979   4.829   1.858   2.998  0.0937  0.3260 -1.2254
 3991TIP3    H211980   4.678   1.861   2.999  0.0995  0.6534 -0.1131
 3992TIP3   OH211981   4.409   3.467   3.376  0.0846 -0.0142  0.7615
 3992TIP3    H111982   4.400   3.373   3.364 -0.7682  0.1504 -0.0667
 3992TIP3    H211983   4.441   3.477   3.466  0.8406 -1.1043  0.6316
 3993TIP3   OH211984   0.297   1.703   0.864 -0.7339  0.0310  0.1685
 3993TIP3    H111985   0.321   1.669   0.950 -3.5181 -0.3233  0.9048
 3993TIP3    H211986   0.361   1.773   0.847 -0.4874  0.5478  2.8269
 3994TIP3   OH211987   3.154   2.656   3.971  0.5179  0.5364  0.7024
 3994TIP3    H111988   3.234   2.661   3.920  1.4908 -3.4265  1.5094
 3994TIP3    H211989   3.088   2.700   3.918  2.0121 -1.0771 -2.7688
 3995TIP3   OH211990   1.546   4.620   4.794 -0.0150  0.2897  0.3663
 3995TIP3    H111991   1.462   4.625   4.839 -1.1207  1.8927 -1.6714
 3995TIP3    H211992   1.556   4.706   4.753  1.6424 -0.5498 -1.1380
 3996TIP3   OH211993   3.164   3.376   2.576 -0.1917 -0.1123 -0.0166
 3996TIP3    H111994   3.253   3.371   2.609  0.9500 -0.2563 -2.8388
 3996TIP3    H211995   3.130   3.459   2.609  1.1217  0.1250  0.7798
 3997TIP3   OH211996   4.461   4.205   4.103  0.4136  0.0128 -0.4155
 3997TIP3    H111997   4.488   4.113   4.095 -1.9270 -0.7057 -1.0323
 3997TIP3    H211998   4.403   4.219   4.028 -0.9690  1.3260  0.8394
 3998TIP3   OH211999   4.503   5.954   2.013  0.6585  0.2197  0.1193
 3998TIP3    H112000   4.494   5.886   1.946  0.7491  0.2775  0.0493
 3998TIP3    H212001   4.597   5.960   2.029  0.7080  0.8073 -0.3661
 3999TIP3   OH212002   3.359   0.981   3.139  0.6608  0.1309  0.6559
 3999TIP3    H112003   3.365   1.045   3.068 -1.2217 -1.9590 -1.5527
 3999TIP3    H212004   3.449   0.969   3.168  1.1276  3.5596  1.0985
 4000TIP3   OH212005   5.635   1.483   3.496 -0.3703 -0.0618 -0.0913
 4000TIP3    H112006   5.667   1.398   3.525 -1.0664 -0.1199  0.5482
 4000TIP3    H212007   5.552   1.463   3.452  1.5792 -0.2584 -4.2000
 4001TIP3   OH212008   2.599   5.989   2.982 -0.3023 -0.1184  0.1783
 4001TIP3    H112009   2.510   6.011   3.010 -0.5015 -1.3245  0.5784
 4001TIP3    H212010   2.593   5.898   2.952  0.8378 -0.3064  0.4509
 4002TIP3   OH212011   4.898   5.692   4.996  0.4760  0.2449  0.0843
 4002TIP3    H112012   4.887   5.736   5.081  1.1152 -0.8783  0.7761
 4002TIP3    H212013   4.863   5.604   5.011  2.3710 -0.5958 -0.2254
 4003TIP3   OH212014   5.115   0.340   2.513  0.2974 -0.3315  0.2729
 4003TIP3    H112015   5.023   0.329   2.490 -0.2548  0.6256  1.8379
 4003TIP3    H212016   5.119   0.319   2.607  2.1420 -2.6888 -0.2337
 4004TIP3   OH212017   2.136   4.529   4.751 -0.3709  0.0332 -0.7612
 4004TIP3    H112018   2.053   4.491   4.722 -1.2324  1.8394 -0.8210
 4004TIP3    H212019   2.113   4.617   4.781  1.2616 -0.0231  0.8400
 4005TIP3   OH212020   3.881   2.766   0.928 -0.3242 -0.3199 -0.3433
 4005TIP3    H112021   3.896   2.803   1.015 -1.2144 -0.2092 -0.2340
 4005TIP3    H212022   3.814   2.699   0.941  0.9849 -1.7500 -0.6036
 4006TIP3   OH212023   1.166   2.883   3.274  0.5977 -0.6078  0.2660
 4006TIP3    H112024   1.130   2.945   3.337  2.3398 -0.6842  1.4233
 4006TIP3    H212025   1.090   2.840   3.235 -0.6626  2.0753 -0.4361
 4007TIP3   OH212026   0.023   1.563   0.659 -0.1049 -0.2950  0.6375
 4007TIP3    H112027   0.106   1.610   0.651 -0.7657  0.6911 -0.8913
 4007TIP3    H212028  -0.042   1.622   0.623 -1.2697 -1.6475  0.4145
 4008TIP3   OH212029   3.048   1.659   0.169 -0.2534  0.3701  0.4032
 4008TIP3    H112030   3.097   1.578   0.186 -1.1998 -0.2443  0.2585
 4008TIP3    H212031   3.012   1.648   0.081 -1.5902  0.3078  0.9287
 4009TIP3   OH212032   1.623   4.993   0.324  0.2239 -0.8966 -0.1967
 4009TIP3    H112033   1.680   5.010   0.248 -0.8722 -2.1523 -1.3513
 4009TIP3    H212034   1.555   5.059   0.318  0.1431 -0.9890 -0.3044
 4010TIP3   OH212035   5.061   0.137   1.167 -0.5131 -0.5175  0.6893
 4010TIP3    H112036   5.040   0.225   1.137 -0.8415 -0.3673  1.3182
 4010TIP3    H212037   4.989   0.083   1.134  1.1663 -1.1450 -2.2348
 4011TIP3   OH212038   0.259   0.325   0.598 -0.1794  0.3532 -0.0129
 4011TIP3    H112039   0.245   0.231   0.593 -0.5101  0.4339 -0.6628
 4011TIP3    H212040   0.235   0.348   0.688 -1.3538  0.0165 -0.2335
 4012TIP3   OH212041   5.109   3.290   3.248 -0.3303  0.1168 -0.1908
 4012TIP3    H112042   5.066   3.373   3.271 -1.4016 -0.4885  0.0826
 4012TIP3    H212043   5.051   3.250   3.183  1.2204  0.4975 -1.8922
 4013TIP3   OH212044   4.037   0.059   0.865 -0.0697 -0.0610 -0.3245
 4013TIP3    H112045   3.944   0.080   0.874 -0.1075 -0.6788  1.0424
 4013TIP3    H212046   4.079   0.141   0.841 -0.8989  0.3313 -0.4616
 4014TIP3   OH212047   1.638  -0.006   3.451 -0.1766 -0.0158 -0.2882
 4014TIP3    H112048   1.566   0.007   3.389 -0.3467  0.2209 -0.0441
 4014TIP3    H212049   1.708   0.052   3.419  0.8102 -1.9766 -1.9053
 4015TIP3   OH212050   5.112   1.367   4.350 -0.1168 -0.3422  0.5416
 4015TIP3    H112051   5.097   1.288   4.401 -1.3398  0.2577  1.1546
 4015TIP3    H212052   5.105   1.439   4.414 -1.7267  0.4246 -0.4190
 4016TIP3   OH212053   2.009   3.597   3.525 -0.2242  0.5130 -0.1629
 4016TIP3    H112054   2.065   3.657   3.575 -0.1845 -1.1874  1.9732
 4016TIP3    H212055   1.921   3.631   3.538 -0.4606 -0.9280  2.8440
 4017TIP3   OH212056   5.674   5.873   1.846  0.0317 -0.1270 -0.1769
 4017TIP3    H112057   5.694   5.799   1.789  0.5644 -0.7488  0.7939
 4017TIP3    H212058   5.733   5.862   1.921 -0.9628  0.4325  0.7021
 4018TIP3   OH212059   5.981   3.752   3.642  0.0593  0.2646  0.4233
 4018TIP3    H112060   5.962   3.669   3.599 -1.9324  0.9412 -0.1192
 4018TIP3    H212061   6.038   3.799   3.581  0.7361 -0.4638  0.4817
 4019TIP3   OH212062   4.476   3.077   0.281 -0.0935 -0.0576  0.4884
 4019TIP3    H112063   4.411   3.064   0.212 -1.3497  0.1264  1.6169
 4019TIP3    H212064   4.543   3.011   0.262 -1.0843 -0.9272 -0.1265
 4020TIP3   OH212065   4.654   4.947   3.471  0.1583  0.4058  0.2170
 4020TIP3    H112066   4.648   4.853   3.488  1.9766 -0.4086 -2.9275
 4020TIP3    H212067   4.602   4.987   3.541 -1.5913 -2.9489  1.0533
 4021TIP3   OH212068   6.368   5.372   4.811  0.2932 -0.2152  0.0225
 4021TIP3    H112069   6.361   5.311   4.737 -1.1157 -2.7911  2.0956
 4021TIP3    H212070   6.304   5.440   4.792 -0.1481 -0.9151 -1.1043
 4022TIP3   OH212071   3.059   1.847   1.522  0.3094 -0.3674  1.1187
 4022TIP3    H112072   3.126   1.879   1.461 -0.0718 -0.3421  0.7062
 4022TIP3    H212073   3.081   1.754   1.534 -1.0111 -1.0268 -0.9982
 4023TIP3   OH212074   1.243   5.575   2.732  0.1937  0.4143  0.4498
 4023TIP3    H112075   1.317   5.526   2.695  1.0003  1.5904  0.4657
 4023TIP3    H212076   1.165   5.527   2.703  0.9659 -1.1224  0.8307
 4024TIP3   OH212077   4.359   1.422   3.938 -0.2096 -0.2943 -0.3595
 4024TIP3    H112078   4.358   1.357   3.867  1.8520 -0.5471 -0.2128
 4024TIP3    H212079   4.368   1.370   4.018  0.1728  0.1181 -0.1335
 4025TIP3   OH212080   0.281   4.588   2.277  0.5243 -0.6074  0.3844
 4025TIP3    H112081   0.369   4.612   2.249  0.1191  0.5153  0.0217
 4025TIP3    H212082   0.235   4.671   2.286 -0.9890 -1.2236 -1.0834
 4026TIP3   OH212083   0.428   3.927   2.921  0.2689 -0.0788  0.0996
 4026TIP3    H112084   0.340   3.960   2.904 -0.6497 -2.9517 -1.4099
 4026TIP3    H212085   0.464   3.910   2.834  1.2350 -1.5512  0.7489
 4027TIP3   OH212086   1.999   0.503   1.278  0.3262  0.6843  0.4019
 4027TIP3    H112087   1.909   0.470   1.282 -0.0451  1.5300 -0.7294
 4027TIP3    H212088   2.038   0.458   1.203  0.7614  0.5608  0.6959
 4028TIP3   OH212089   5.871   5.127   3.825  0.5453 -0.1308 -0.0396
 4028TIP3    H112090   5.965   5.137   3.841  0.7943 -2.1525  0.1375
 4028TIP3    H212091   5.862   5.132   3.730  1.0383 -1.0693 -0.1535
 4029TIP3   OH212092   0.055   2.098   5.000  0.4754 -0.4761 -0.2721
 4029TIP3    H112093   0.064   2.073   5.092  1.0106 -1.7013 -0.6390
 4029TIP3    H212094   0.066   2.016   4.952  0.5623  0.2128 -1.4485
 4030TIP3   OH212095   1.447   0.852   4.869  0.7668  0.4436 -0.0926
 4030TIP3    H112096   1.503   0.925   4.894 -0.2979  0.9065  1.0186
 4030TIP3    H212097   1.359   0.890   4.862  0.2109 -0.7006  0.4105
 4031TIP3   OH212098   2.567   1.576   2.593  0.0700 -0.2900  0.0101
 4031TIP3    H112099   2.512   1.579   2.671 -0.4817 -0.5191 -0.3741
 4031TIP3    H212100   2.556   1.488   2.558 -1.5654  0.5232 -1.6714
 4032TIP3   OH212101   1.145   4.297   2.581  0.6311  0.0517  0.2190
 4032TIP3    H112102   1.154   4.361   2.511  2.0063  0.4013  0.6718
 4032TIP3    H212103   1.235   4.285   2.613  0.1862 -0.9905  1.1168
 4033TIP3   OH212104   5.844   4.661   4.126  0.4671  0.1476 -0.8822
 4033TIP3    H112105   5.866   4.754   4.115 -0.0402  0.3749 -0.0581
 4033TIP3    H212106   5.766   4.648   4.073  0.3053  0.2905 -0.6797
 4034TIP3   OH212107   0.244   5.716   2.202 -0.2751  0.1303  0.0895
 4034TIP3    H112108   0.245   5.620   2.201  0.2365  0.1002  1.5709
 4034TIP3    H212109   0.232   5.739   2.294  0.3319  1.4861 -0.1515
 4035TIP3   OH212110   4.010   2.521   3.431 -0.3467  0.0679 -0.2954
 4035TIP3    H112111   3.945   2.562   3.488 -0.6332  0.4257 -0.8678
 4035TIP3    H212112   4.049   2.452   3.485 -0.6335  0.3757  0.3171
 4036TIP3   OH212113   6.268   4.102   3.679  0.3996  0.4780 -0.3565
 4036TIP3    H112114   6.296   4.176   3.733  2.2630 -0.4402  0.0151
 4036TIP3    H212115   6.349   4.055   3.659 -0.6389 -0.9947 -1.2928
 4037TIP3   OH212116   1.092   5.349   4.901 -0.2194  0.4791 -0.1336
 4037TIP3    H112117   1.081   5.380   4.991  1.9729  1.9595 -0.2902
 4037TIP3    H212118   1.029   5.401   4.850 -1.1951 -0.0887  0.4657
 4038TIP3   OH212119   1.305   3.020   1.268 -0.3703 -0.3941 -0.0820
 4038TIP3    H112120   1.280   2.949   1.327 -1.0017  0.3909  0.6191
 4038TIP3    H212121   1.374   3.067   1.315 -0.0197 -0.4870 -0.5009
 4039TIP3   OH212122   4.091   5.071   3.467  0.5602 -0.0927 -0.3839
 4039TIP3    H112123   4.037   5.139   3.427 -0.1644  0.1685  0.9805
 4039TIP3    H212124   4.035   4.992   3.465  0.3523  0.0204  0.4380
 4040TIP3   OH212125   4.491   4.212   0.640  0.3584  0.0987  0.0114
 4040TIP3    H112126   4.562   4.153   0.667  0.0371 -0.6795 -0.7813
 4040TIP3    H212127   4.534   4.297   0.629  0.8745 -0.0269  0.9513
 4041TIP3   OH212128   6.353   3.396   0.165  0.1891  0.6536 -0.1354
 4041TIP3    H112129   6.330   3.489   0.160  0.6548  0.8082  0.4266
 4041TIP3    H212130   6.358   3.368   0.074 -1.8128  0.6843 -0.2987
 4042TIP3   OH212131   1.113   1.678   2.915  0.6913  0.3504 -0.2506
 4042TIP3    H112132   1.155   1.592   2.906 -0.1062 -0.3170  1.8289
 4042TIP3    H212133   1.118   1.698   3.009  0.5539  2.4425 -0.6388
 4043TIP3   OH212134   3.814   4.842   3.771  0.0969 -0.5378 -0.0075
 4043TIP3    H112135   3.857   4.916   3.816  1.0508 -0.8558 -0.3678
 4043TIP3    H212136   3.883   4.777   3.761 -0.0305 -0.4112 -2.0879
 4044TIP3   OH212137   3.482   3.398   4.670 -0.1110  0.0748 -0.1247
 4044TIP3    H112138   3.434   3.449   4.606 -0.5820  0.9947  0.9261
 4044TIP3    H212139   3.491   3.457   4.746  3.2825  0.2534 -0.4899
 4045TIP3   OH212140   3.301   3.102   3.677 -0.2045 -0.3718 -0.3009
 4045TIP3    H112141   3.212   3.087   3.643 -0.6727  0.2311  0.6298
 4045TIP3    H212142   3.288   3.123   3.769  1.0283 -1.7879  0.2404
 4046TIP3   OH212143   4.318   4.605   1.588 -0.8480 -0.5368  0.0479
 4046TIP3    H112144   4.397   4.656   1.606 -1.6452  0.7702 -0.0811
 4046TIP3    H212145   4.284   4.643   1.507 -2.8913  0.5234  1.3387
 4047TIP3   OH212146   3.615   0.512   0.616 -0.7501 -0.3742 -0.9773
 4047TIP3    H112147   3.609   0.501   0.522 -1.0493 -1.3267 -0.8561
 4047TIP3    H212148   3.577   0.598   0.633  2.9203  1.6444 -2.1059
 4048TIP3   OH212149   4.404   1.698   2.647  0.4751  0.2989  0.6207
 4048TIP3    H112150   4.369   1.645   2.719 -0.6019 -1.0285 -0.8232
 4048TIP3    H212151   4.348   1.776   2.645 -1.2568 -0.8865 -0.3962
 4049TIP3   OH212152   3.847   1.617   3.685  0.0332 -0.4075 -0.1137
 4049TIP3    H112153   3.898   1.573   3.617 -1.3572  0.1500 -1.5750
 4049TIP3    H212154   3.774   1.657   3.638  0.2273  1.9049  1.4032
 4050TIP3   OH212155   1.541   3.079   0.814 -0.6483 -0.2954 -0.2864
 4050TIP3    H112156   1.535   3.011   0.881 -0.9505  0.0941  0.0854
 4050TIP3    H212157   1.450   3.103   0.795 -0.5329  0.3261 -0.0862
 4051TIP3   OH212158   5.874   0.189   3.861  0.5047  0.1145 -0.3535
 4051TIP3    H112159   5.810   0.118   3.859 -0.2371  0.6109  2.1637
 4051TIP3    H212160   5.922   0.176   3.943 -0.7154  3.3240  1.0157
 4052TIP3   OH212161   1.733   1.755   3.126 -0.2601  0.0546  0.1349
 4052TIP3    H112162   1.699   1.720   3.209  0.2126  0.1934  0.3911
 4052TIP3    H212163   1.655   1.784   3.079 -0.3977  1.9358  1.4185
 4053TIP3   OH212164   2.349   5.418   2.738  0.6404 -0.2087 -0.2855
 4053TIP3    H112165   2.378   5.347   2.795  1.7965  0.4616  0.0153
 4053TIP3    H212166   2.293   5.376   2.674 -0.1484 -1.0962  0.9375
 4054TIP3   OH212167   5.880   0.696   2.129 -0.3162 -0.3155  0.0552
 4054TIP3    H112168   5.889   0.611   2.173  1.5752 -0.5145 -0.6393
 4054TIP3    H212169   5.786   0.708   2.121 -0.8896 -0.0112  4.6191
 4055TIP3   OH212170   3.127   4.787   3.431 -0.0166 -0.0640  0.5552
 4055TIP3    H112171   3.128   4.702   3.386  0.3079  0.8688 -1.2904
 4055TIP3    H212172   3.035   4.802   3.450 -0.3102 -0.0365 -0.7578
 4056TIP3   OH212173   5.249   5.259   2.431  0.2144 -0.4580 -0.1148
 4056TIP3    H112174   5.240   5.354   2.436  1.0892 -0.3906  0.4007
 4056TIP3    H212175   5.314   5.238   2.498  0.3313 -1.3761 -0.5082
 4057TIP3   OH212176   2.737   3.978   1.392 -0.4417 -0.5507  0.6212
 4057TIP3    H112177   2.725   3.883   1.385  1.2275 -0.7060 -0.8165
 4057TIP3    H212178   2.653   4.014   1.366 -0.4415 -1.6336 -1.0333
 4058TIP3   OH212179   3.566   2.220   2.383 -0.7019 -0.1381 -0.2174
 4058TIP3    H112180   3.622   2.178   2.318  0.2067  0.6281  0.0529
 4058TIP3    H212181   3.556   2.155   2.452  0.1291 -0.1636 -0.1179
 4059TIP3   OH212182   4.267   0.701   1.300  0.4016  0.2407 -0.6185
 4059TIP3    H112183   4.311   0.667   1.222  2.1868  1.6035 -0.2594
 4059TIP3    H212184   4.289   0.637   1.368 -0.8360 -0.7436 -1.1070
 4060TIP3   OH212185   4.298   3.759   2.742 -0.1250  0.2210 -0.1777
 4060TIP3    H112186   4.312   3.852   2.762  1.5763  0.4763 -2.2221
 4060TIP3    H212187   4.242   3.759   2.665  2.2865 -0.2555 -2.0387
 4061TIP3   OH212188   2.250   3.284   1.365  0.4290 -0.5501  0.1860
 4061TIP3    H112189   2.280   3.258   1.278 -0.1658 -1.7061  0.2939
 4061TIP3    H212190   2.297   3.365   1.384  0.6491 -0.3351 -1.1596
 4062TIP3   OH212191   5.429   1.295   0.196 -0.0949 -0.0880 -0.0540
 4062TIP3    H112192   5.390   1.340   0.121  0.6575 -1.0532 -1.0785
 4062TIP3    H212193   5.354   1.261   0.245 -0.6369  1.5132  0.2756
 4063TIP3   OH212194   0.755   2.131   3.787  0.2416  0.2307 -0.4116
 4063TIP3    H112195   0.814   2.066   3.747 -0.8746 -1.1144  0.0471
 4063TIP3    H212196   0.802   2.161   3.865  0.8754  0.1630 -0.7570
 4064TIP3   OH212197   1.714   1.952   2.395 -0.4468 -0.3253  0.1580
 4064TIP3    H112198   1.634   1.926   2.440 -1.0834  1.2778 -0.0039
 4064TIP3    H212199   1.704   1.917   2.306 -1.8309  1.3655 -0.4063
 4065TIP3   OH212200   1.949   0.196   1.714 -0.2567  0.2518 -0.2772
 4065TIP3    H112201   1.938   0.281   1.671 -1.3566  0.5820  0.6032
 4065TIP3    H212202   1.869   0.148   1.693 -0.0049 -0.2577 -0.0881
 4066TIP3   OH212203   5.734   2.411   1.344 -0.2975  0.0523 -0.4222
 4066TIP3    H112204   5.701   2.326   1.317  0.0263  0.3256 -1.7293
 4066TIP3    H212205   5.724   2.411   1.440 -1.2738 -1.0281 -0.4990
 4067TIP3   OH212206   3.695   4.165   3.980  0.3716 -0.2551  0.2686
 4067TIP3    H112207   3.753   4.093   3.957 -1.9524 -1.7449 -1.3317
 4067TIP3    H212208   3.612   4.123   4.000 -1.4936  2.0092 -2.0876
 4068TIP3   OH212209   3.056   1.103   3.178 -0.6534  0.4947  0.2162
 4068TIP3    H112210   3.136   1.146   3.150 -0.6440  0.8538  0.7885
 4068TIP3    H212211   3.039   1.137   3.266 -1.4154  0.3978  0.1141
 4069TIP3   OH212212   0.516   3.880   2.240 -0.2001  0.2623  0.5651
 4069TIP3    H112213   0.489   3.945   2.305 -1.4308 -0.5595  0.9144
 4069TIP3    H212214   0.608   3.865   2.258 -0.1745  1.1004  1.1944
 4070TIP3   OH212215   0.470   0.751   0.934 -0.0930  0.2814  0.0811
 4070TIP3    H112216   0.461   0.843   0.908  1.8901  0.5308  0.1522
 4070TIP3    H212217   0.508   0.755   1.022  0.5706 -0.6012 -0.1514
 4071TIP3   OH212218  -0.002   3.715   3.668 -0.2838  0.0490  0.8542
 4071TIP3    H112219  -0.054   3.772   3.725 -1.0080  0.8527 -0.5787
 4071TIP3    H212220   0.088   3.739   3.687 -0.5640  1.3996  0.5878
 4072TIP3   OH212221   0.209   2.914   2.360  0.3395 -0.0301  0.2959
 4072TIP3    H112222   0.253   2.976   2.301  1.3038  0.5702  1.6050
 4072TIP3    H212223   0.252   2.927   2.444 -2.1056  0.3128  1.5820
 4073TIP3   OH212224   0.555   1.651   2.745  0.1023 -0.3309  0.3146
 4073TIP3    H112225   0.472   1.695   2.725 -0.0488 -1.4602 -1.8554
 4073TIP3    H212226   0.546   1.564   2.706  2.2899 -0.5009  0.0714
 4074TIP3   OH212227   2.945   3.803   1.563 -0.5071  0.1633  0.4015
 4074TIP3    H112228   2.944   3.763   1.477 -1.3414 -0.1819  0.5665
 4074TIP3    H212229   2.875   3.868   1.561  0.6814  1.5157  0.2025
 4075TIP3   OH212230   3.103   0.724   3.689  0.4436  0.0803 -0.0247
 4075TIP3    H112231   3.183   0.722   3.636  0.0802  0.7837 -0.6171
 4075TIP3    H212232   3.111   0.804   3.741 -0.0579  0.3751 -0.3894
 4076TIP3   OH212233   3.382   0.922   1.647  0.3276 -0.5256 -0.3242
 4076TIP3    H112234   3.436   0.894   1.573 -0.9360 -1.2813 -0.9833
 4076TIP3    H212235   3.411   0.867   1.720  1.3129 -0.0396 -0.3257
 4077TIP3   OH212236   5.897   0.830   4.543 -0.4404 -0.1894  0.1934
 4077TIP3    H112237   5.841   0.758   4.571  1.0016 -1.8576 -1.0309
 4077TIP3    H212238   5.972   0.826   4.602 -1.8038  2.5229  2.3422
 4078TIP3   OH212239   4.381   2.940   0.967 -0.2637 -0.2421 -0.0825
 4078TIP3    H112240   4.286   2.934   0.973 -0.1819 -0.4548  1.3445
 4078TIP3    H212241   4.397   3.028   0.933 -0.9322  1.4129  3.4589
 4079TIP3   OH212242   2.378   0.145   5.033 -0.1371 -0.1158 -0.6114
 4079TIP3    H112243   2.346   0.082   4.968  0.7890 -1.2534 -0.0014
 4079TIP3    H212244   2.473   0.136   5.030 -0.0930 -0.5761  1.2627
 4080TIP3   OH212245   2.765   0.392   0.196  0.4499  0.5755  0.2228
 4080TIP3    H112246   2.781   0.462   0.134  0.6327  0.6327  0.3320
 4080TIP3    H212247   2.853   0.365   0.224  0.4213 -0.3642 -0.5569
 4081TIP3   OH212248   0.151   1.758   4.395 -0.1514  0.0853  0.4900
 4081TIP3    H112249   0.191   1.713   4.470 -1.7799 -0.1317  1.2833
 4081TIP3    H212250   0.122   1.687   4.338 -0.5326  0.1803  0.5580
 4082TIP3   OH212251   0.455   4.526   0.552  0.3446 -0.0360  0.7968
 4082TIP3    H112252   0.474   4.608   0.598 -0.5165  0.3431  0.4815
 4082TIP3    H212253   0.360   4.523   0.544  0.4659 -0.0474 -1.0459
 4083TIP3   OH212254   3.012   1.384   1.172 -0.2496  0.3501 -0.2799
 4083TIP3    H112255   2.961   1.398   1.092 -0.5253  0.4490 -0.0874
 4083TIP3    H212256   3.062   1.304   1.155 -0.6650  0.1053 -0.3663
 4084TIP3   OH212257   2.391   2.420   2.550  0.0657 -0.4288 -0.2045
 4084TIP3    H112258   2.447   2.401   2.625 -0.3376  0.3196  0.2965
 4084TIP3    H212259   2.309   2.372   2.568 -0.5791  0.9179  0.5701
 4085TIP3   OH212260   3.102   0.415   3.256 -0.2692 -0.5076 -0.2797
 4085TIP3    H112261   3.077   0.326   3.281 -0.4830 -0.7406 -1.2573
 4085TIP3    H212262   3.103   0.464   3.338 -3.0535 -0.6885 -0.0630
 4086TIP3   OH212263   0.069   3.830   1.263  0.3805 -0.6522 -0.0084
 4086TIP3    H112264   0.065   3.737   1.238 -0.6907 -0.2195 -1.5861
 4086TIP3    H212265  -0.004   3.842   1.323  0.6411 -0.8488  0.3584
 4087TIP3   OH212266   1.229   4.429   5.132  0.3775 -0.4223  0.7295
 4087TIP3    H112267   1.322   4.446   5.117  0.3813  1.3779  2.3378
 4087TIP3    H212268   1.188   4.443   5.047  1.6572 -2.2906 -0.2688
 4088TIP3   OH212269   3.286   2.825   1.292 -0.3296  0.0634 -0.3485
 4088TIP3    H112270   3.258   2.743   1.333  2.3795  0.3940  2.5006
 4088TIP3    H212271   3.379   2.812   1.273  0.1459  2.3881  0.0667
 4089TIP3   OH212272   2.956   1.119   2.237 -0.3579 -0.6292 -0.6040
 4089TIP3    H112273   3.013   1.086   2.168  1.5415 -0.0081  0.5876
 4089TIP3    H212274   2.960   1.214   2.229  1.4833 -0.4395  1.4545
 4090TIP3   OH212275   3.633   5.939   3.891 -0.1291 -0.3936 -0.8463
 4090TIP3    H112276   3.638   5.901   3.804 -0.9991 -1.0434 -0.6262
 4090TIP3    H212277   3.598   5.869   3.946 -0.7501  0.3812 -0.2201
 4091TIP3   OH212278   1.366   1.812   1.174  0.4745  0.1647  0.2157
 4091TIP3    H112279   1.377   1.905   1.155 -0.4114  0.4813  1.1080
 4091TIP3    H212280   1.349   1.810   1.269 -2.7909 -0.5398 -0.2748
 4092TIP3   OH212281   0.080   1.205   3.944 -0.3193 -0.2406  0.0339
 4092TIP3    H112282   0.079   1.231   3.852  0.9031 -1.4800 -0.3654
 4092TIP3    H212283   0.162   1.241   3.979  0.7776 -2.3573 -0.2140
 4093TIP3   OH212284   4.058   2.267   1.231 -0.0799 -0.2298 -0.2715
 4093TIP3    H112285   4.138   2.320   1.228  1.0379 -1.8928 -2.8547
 4093TIP3    H212286   3.993   2.319   1.184  0.0465  0.2445  0.0684
 4094TIP3   OH212287   0.712   5.571   4.721 -0.2141  0.0776 -0.3039
 4094TIP3    H112288   0.651   5.497   4.714  0.2598 -0.2711 -0.8448
 4094TIP3    H212289   0.664   5.644   4.681 -0.7670  0.1230  0.4261
 4095TIP3   OH212290   0.315   4.766   4.128  0.4461  0.4936  0.1960
 4095TIP3    H112291   0.241   4.826   4.117  0.7378  0.9368  0.6018
 4095TIP3    H212292   0.377   4.814   4.182  1.4602  0.4909 -0.9338
 4096TIP3   OH212293   5.489   4.348   4.054 -0.0907  0.2835  0.0522
 4096TIP3    H112294   5.518   4.361   3.964  1.1118 -0.3729  0.3232
 4096TIP3    H212295   5.494   4.253   4.068 -3.8255 -0.0974 -0.3152
 4097TIP3   OH212296   3.305   2.740   0.553  0.3243 -0.5428  0.5729
 4097TIP3    H112297   3.277   2.746   0.645  0.8942 -1.5041  0.8285
 4097TIP3    H212298   3.244   2.796   0.506 -0.4906 -0.6686  1.4376
 4098TIP3   OH212299   4.513   4.175   3.208  0.1690 -0.8373 -0.1650
 4098TIP3    H112300   4.571   4.205   3.138 -1.3539 -2.0445 -2.0208
 4098TIP3    H212301   4.560   4.197   3.289  2.3846 -0.2012 -1.5472
 4099TIP3   OH212302   1.182   4.385   3.183 -0.0710  0.0127  0.6642
 4099TIP3    H112303   1.193   4.443   3.259  0.2888  2.2562 -0.9909
 4099TIP3    H212304   1.096   4.346   3.195  0.0429  0.1871  2.3000
 4100TIP3   OH212305   2.703   4.397   2.715  0.1389 -0.1894 -0.1313
 4100TIP3    H112306   2.795   4.411   2.692 -0.1252  0.3354 -0.9286
 4100TIP3    H212307   2.701   4.399   2.811  0.7563  1.2278 -0.1220
 4101TIP3   OH212308   1.858   2.107   0.882 -0.7551 -0.4352  0.3288
 4101TIP3    H112309   1.889   2.045   0.816 -0.5896 -0.3186  0.2983
 4101TIP3    H212310   1.774   2.070   0.911 -1.6390  0.3711 -1.1261
 4102TIP3   OH212311   4.206   3.705   4.642 -0.5212  0.3506 -0.3737
 4102TIP3    H112312   4.184   3.614   4.662  0.0160 -0.1454 -1.9427
 4102TIP3    H212313   4.291   3.700   4.598  0.1256  1.7381  0.6297
 4103TIP3   OH212314   6.078   0.114   0.963  0.2876 -0.1358 -0.0279
 4103TIP3    H112315   6.049   0.029   0.997 -2.7978  0.4667 -0.8681
 4103TIP3    H212316   6.032   0.178   1.017  1.0095  0.9660 -0.6893
 4104TIP3   OH212317   2.423   5.065   5.027  0.6139  0.9032  0.2792
 4104TIP3    H112318   2.504   5.046   4.980  0.4144  0.6770  0.0224
 4104TIP3    H212319   2.447   5.060   5.120  0.6298 -0.3561  0.2179
 4105TIP3   OH212320   4.039   0.947   4.983 -0.5576  0.7735 -0.0196
 4105TIP3    H112321   4.022   0.856   4.958  0.3284  1.0648 -1.7735
 4105TIP3    H212322   4.133   0.960   4.969 -0.6456  1.9227  0.3139
 4106TIP3   OH212323   5.208   1.126   0.597 -0.0052 -0.1739  0.6275
 4106TIP3    H112324   5.139   1.124   0.530  1.2205  0.6329 -0.7225
 4106TIP3    H212325   5.240   1.036   0.601 -0.6949 -0.4181  0.8005
 4107TIP3   OH212326   5.802   1.203   2.578 -0.5507 -0.5511  0.1416
 4107TIP3    H112327   5.845   1.282   2.545 -1.6640  1.2011  2.5512
 4107TIP3    H212328   5.709   1.223   2.573 -0.8798 -1.9819  0.2461
 4108TIP3   OH212329   4.140   1.392   0.076  0.5688  0.0688 -0.0168
 4108TIP3    H112330   4.057   1.390   0.123  1.6748  0.1895  2.0487
 4108TIP3    H212331   4.200   1.340   0.129  2.0739  0.7553 -0.9635
 4109TIP3   OH212332   4.301   2.651   2.338 -0.0534  0.0833  0.3314
 4109TIP3    H112333   4.298   2.559   2.310 -2.2011  0.1910 -0.0151
 4109TIP3    H212334   4.290   2.701   2.257  0.2465  0.6082  0.6138
 4110TIP3   OH212335   3.564   0.436   0.334  0.1264 -0.1031 -0.2956
 4110TIP3    H112336   3.491   0.387   0.296  1.3116 -3.0737  0.8592
 4110TIP3    H212337   3.605   0.480   0.260 -1.5656 -0.1074 -1.2840
 4111TIP3   OH212338   3.743   1.926   5.101 -0.7475  0.4715  0.2538
 4111TIP3    H112339   3.824   1.950   5.146 -0.4740 -0.2790  0.1751
 4111TIP3    H212340   3.700   2.010   5.082  0.6931  0.9577 -0.9833
 4112TIP3   OH212341   4.414   1.122   2.892 -0.1204 -0.1417  0.3825
 4112TIP3    H112342   4.429   1.029   2.907 -1.5805 -0.1866  1.8270
 4112TIP3    H212343   4.337   1.143   2.945 -0.2501  1.7377 -0.4644
 4113TIP3   OH212344   3.437   5.464   4.229 -0.2386  0.0028 -0.4650
 4113TIP3    H112345   3.363   5.516   4.261 -0.9131 -0.3303 -1.4481
 4113TIP3    H212346   3.494   5.527   4.186  0.0444  0.2549  0.2551
 4114TIP3   OH212347   3.973   1.897   2.185  0.2573 -0.4962  0.1836
 4114TIP3    H112348   3.878   1.902   2.177  0.2904 -2.2580 -2.5211
 4114TIP3    H212349   3.988   1.814   2.230  0.5619  0.3021  1.6304
 4115TIP3   OH212350   4.568   4.588   0.161  0.5442  0.0455 -0.3818
 4115TIP3    H112351   4.473   4.597   0.154  0.4419 -1.1123 -0.7696
 4115TIP3    H212352   4.581   4.497   0.188  1.4938  0.6875  1.4631
 4116TIP3   OH212353   1.300   3.888   2.067  0.1146  0.5653  0.3983
 4116TIP3    H112354   1.356   3.930   2.133 -0.2192  1.7718 -0.0632
 4116TIP3    H212355   1.343   3.908   1.983 -0.0234 -0.0700  0.1728
 4117TIP3   OH212356   1.446   0.931   2.469  0.7708  0.4071 -0.2477
 4117TIP3    H112357   1.476   0.856   2.417 -1.2395 -0.7904  0.2304
 4117TIP3    H212358   1.422   0.894   2.553 -3.2772  0.9209 -0.9943
 4118TIP3   OH212359   2.222   3.912   3.166 -0.3762 -0.1128 -0.2369
 4118TIP3    H112360   2.253   3.938   3.253 -0.8771 -0.7967  0.1494
 4118TIP3    H212361   2.133   3.881   3.180 -0.4942 -0.1439 -1.0126
 4119TIP3   OH212362   3.021   1.260   1.630  0.2508 -0.5956 -0.4265
 4119TIP3    H112363   3.042   1.169   1.651 -0.1882 -0.9437 -1.4318
 4119TIP3    H212364   3.091   1.288   1.572  1.6970  0.5002  1.7396
 4120TIP3   OH212365   2.909   4.232   3.855 -0.0951 -0.1695  0.9470
 4120TIP3    H112366   2.887   4.267   3.768  2.5726 -1.9974 -0.5759
 4120TIP3    H212367   2.975   4.293   3.888  0.4785 -0.6703  0.7287
 4121TIP3   OH212368   5.591   0.212   1.669 -0.6879  0.5335 -0.2099
 4121TIP3    H112369   5.605   0.220   1.575 -4.1812 -0.9185 -0.9997
 4121TIP3    H212370   5.653   0.145   1.698  0.2389  0.8110 -1.5005
 4122TIP3   OH212371   1.674   1.506   4.091 -0.3647  0.3178  0.0184
 4122TIP3    H112372   1.759   1.507   4.048  0.4848 -0.6340  1.5819
 4122TIP3    H212373   1.671   1.588   4.141 -0.9400  0.9616 -1.0368
 4123TIP3   OH212374   1.357   4.017   0.298  0.4233 -0.1387 -0.2341
 4123TIP3    H112375   1.398   3.997   0.382  1.0891  0.5820 -0.3711
 4123TIP3    H212376   1.411   3.972   0.233 -0.9655 -1.9667 -0.2066
 4124TIP3   OH212377   0.142   5.873   0.412  0.1085 -0.0533  0.5046
 4124TIP3    H112378   0.124   5.888   0.319 -1.7260 -0.6631  0.7178
 4124TIP3    H212379   0.224   5.825   0.413  0.3451  0.2738 -0.7785
 4125TIP3   OH212380   3.061   1.628   3.312  0.2875 -0.2628  0.9853
 4125TIP3    H112381   3.122   1.578   3.366  1.4095 -1.0296 -0.8723
 4125TIP3    H212382   3.109   1.644   3.230 -0.8808  1.8978  0.6478
 4126TIP3   OH212383   0.261   1.597   3.922  0.3071 -0.3278  0.5333
 4126TIP3    H112384   0.254   1.550   3.839  3.8323  1.3677 -0.9578
 4126TIP3    H212385   0.263   1.529   3.989 -1.6703 -1.7940 -0.8027
 4127TIP3   OH212386   5.471   5.492   3.867  0.6263  0.1850  0.4740
 4127TIP3    H112387   5.462   5.414   3.813  1.0741 -0.1048  0.8137
 4127TIP3    H212388   5.405   5.553   3.833 -0.8585 -0.9256  1.2634
 4128TIP3   OH212389   3.969   2.413   0.362 -0.1709  0.2263  0.5717
 4128TIP3    H112390   3.988   2.381   0.450 -1.4711  0.9552  1.1340
 4128TIP3    H212391   4.051   2.452   0.333  0.0523  0.6749  1.7672
 4129TIP3   OH212392   3.728   1.084   3.068  0.2758  0.1538  0.2560
 4129TIP3    H112393   3.708   0.997   3.101  0.7561 -0.3111 -0.6502
 4129TIP3    H212394   3.686   1.088   2.982 -0.8969  1.3165  0.8386
 4130TIP3   OH212395   3.514   2.277   4.664  0.6559 -0.0635  0.1363
 4130TIP3    H112396   3.461   2.346   4.625  0.3469 -0.3758 -0.0055
 4130TIP3    H212397   3.473   2.196   4.635  0.5504 -0.3035  0.9409
 4131TIP3   OH212398   1.428   0.302   1.226 -0.3528 -0.2397 -0.4838
 4131TIP3    H112399   1.480   0.316   1.305 -0.7433  2.3169 -0.5948
 4131TIP3    H212400   1.461   0.219   1.190  0.7600 -0.7710  1.6106
 4132TIP3   OH212401   4.753   5.026   3.069 -0.5342  0.2037 -0.3676
 4132TIP3    H112402   4.846   5.013   3.050 -0.4313 -0.2119  0.3494
 4132TIP3    H212403   4.714   4.940   3.056 -0.8283  0.3876 -0.7065
 4133TIP3   OH212404   5.288   2.650   0.681  0.1827 -0.0736 -0.1038
 4133TIP3    H112405   5.266   2.558   0.695 -0.4373  0.0815 -0.0297
 4133TIP3    H212406   5.223   2.698   0.733  0.0148  0.4240 -0.7676
 4134TIP3   OH212407   0.912   4.307   0.043  1.0274  0.1093 -0.0341
 4134TIP3    H112408   0.865   4.229   0.015  0.3944  0.6446 -0.5010
 4134TIP3    H212409   0.914   4.302   0.138  1.8495 -0.9596 -0.0942
 4135TIP3   OH212410   3.218   3.791   4.136 -0.2943 -0.0144 -0.3354
 4135TIP3    H112411   3.173   3.771   4.053  0.2466 -0.5515 -0.5029
 4135TIP3    H212412   3.148   3.820   4.194 -0.8662 -0.8376 -0.5968
 4136TIP3   OH212413   2.457   4.775   4.301  0.3907  0.0641 -0.5350
 4136TIP3    H112414   2.432   4.692   4.261 -0.8668  0.0256  0.2655
 4136TIP3    H212415   2.435   4.842   4.236 -0.7200 -0.0782 -0.3383
 4137TIP3   OH212416   3.383   1.163   2.646  0.1905 -0.4024 -0.4343
 4137TIP3    H112417   3.325   1.191   2.576  0.0695 -0.5288 -0.3848
 4137TIP3    H212418   3.411   1.075   2.621  1.4246  0.1609 -1.1371
 4138TIP3   OH212419   5.462   3.002   0.393 -0.2394  0.3634 -0.8115
 4138TIP3    H112420   5.418   3.027   0.474 -0.7163 -1.2435 -0.5507
 4138TIP3    H212421   5.428   3.063   0.327 -1.6309  0.1749 -0.2856
 4139TIP3   OH212422   0.197   1.944   3.320  0.4492 -0.1451 -0.2516
 4139TIP3    H112423   0.145   2.010   3.366  0.2140  0.6831 -1.6473
 4139TIP3    H212424   0.145   1.921   3.243  2.3078  1.0789 -1.9740
 4140TIP3   OH212425   6.277   0.793   2.382 -1.0859 -0.3772  0.3639
 4140TIP3    H112426   6.205   0.771   2.441 -1.3711 -1.0836 -0.2305
 4140TIP3    H212427   6.355   0.786   2.436 -1.4098 -0.2165  0.8604
 4141TIP3   OH212428   5.546   0.728   4.659  0.7929  0.5195  0.7151
 4141TIP3    H112429   5.476   0.720   4.724  1.2104  1.1556  1.2601
 4141TIP3    H212430   5.531   0.656   4.598  0.2975  0.0022  1.4297
 4142TIP3   OH212431   5.572   5.562   4.461  0.2989 -0.2639  0.1867
 4142TIP3    H112432   5.593   5.535   4.372 -0.5642 -1.9162  0.4420
 4142TIP3    H212433   5.528   5.646   4.451 -0.5366 -0.8102 -1.0527
 4143TIP3   OH212434   6.037   2.736   3.731  0.2756 -0.2630 -0.8742
 4143TIP3    H112435   6.054   2.830   3.725  1.1091 -0.1726  1.7520
 4143TIP3    H212436   6.002   2.724   3.819 -0.6546 -2.3171 -1.4860
 4144TIP3   OH212437   0.292   4.756   2.830  0.2018 -0.0995 -0.4494
 4144TIP3    H112438   0.358   4.687   2.825  0.2858 -0.4493  3.0330
 4144TIP3    H212439   0.334   4.825   2.883 -1.7145  0.2358  0.7272
 4145TIP3   OH212440   2.841   2.943   0.475 -0.6742 -0.0625  0.4496
 4145TIP3    H112441   2.863   2.911   0.562 -0.1736 -0.4494  0.1875
 4145TIP3    H212442   2.831   3.038   0.486  0.5992  0.0696  0.7130
 4146TIP3   OH212443   3.490   0.508   3.792 -0.1045  0.7527  0.3542
 4146TIP3    H112444   3.533   0.585   3.828 -0.7023  0.9395  0.6966
 4146TIP3    H212445   3.427   0.482   3.860 -0.7764  0.7077 -0.2735
 4147TIP3   OH212446   5.402   1.081   3.623  0.2247 -0.0328 -0.0870
 4147TIP3    H112447   5.479   1.024   3.618  0.6758  0.6298 -1.1165
 4147TIP3    H212448   5.406   1.119   3.711  0.9803 -0.1421 -0.0663
 4148TIP3   OH212449   1.612   0.374   1.779 -0.1415 -0.0186  0.4595
 4148TIP3    H112450   1.572   0.436   1.840 -0.4071  0.2193  0.0463
 4148TIP3    H212451   1.624   0.294   1.831  0.0184  0.3109  0.9389
 4149TIP3   OH212452   1.059   2.031   1.367 -0.0721  0.3016  0.0940
 4149TIP3    H112453   1.114   2.040   1.444  0.5142  0.2431 -0.3099
 4149TIP3    H212454   1.079   1.943   1.333  0.5123  0.7447 -0.7498
 4150TIP3   OH212455   3.828   3.592   4.055  0.1953 -0.4576 -0.4616
 4150TIP3    H112456   3.883   3.648   4.001  1.6173 -0.6562  0.7123
 4150TIP3    H212457   3.848   3.503   4.026  2.0599 -0.6669  1.2741
 4151TIP3   OH212458   4.127   0.940   3.642  0.1243 -0.1839  0.2698
 4151TIP3    H112459   4.146   1.004   3.573 -0.3370  0.8445  1.0678
 4151TIP3    H212460   4.053   0.890   3.609 -0.3437  0.5601  0.1562
 4152TIP3   OH212461   4.138   1.143   3.856 -0.0787 -0.6411  0.1585
 4152TIP3    H112462   4.135   1.110   3.766  0.7957 -0.2753 -0.0218
 4152TIP3    H212463   4.093   1.076   3.907 -0.8265 -0.7222 -0.5802
 4153TIP3   OH212464   4.690   1.027   0.558 -0.1582  0.0041  0.1860
 4153TIP3    H112465   4.759   0.967   0.588  2.0554  2.3623  0.0932
 4153TIP3    H212466   4.711   1.044   0.466 -1.7388 -0.2968 -0.2658
 4154TIP3   OH212467   2.618   4.660   2.957  0.0679  0.2274  0.2543
 4154TIP3    H112468   2.657   4.746   2.941  0.5953 -0.0178  0.1944
 4154TIP3    H212469   2.597   4.661   3.050  0.9834  0.0631  0.4737
 4155TIP3   OH212470   1.922   2.512   3.076  0.7653  0.2060  0.3838
 4155TIP3    H112471   1.898   2.474   2.991  1.4240 -1.5233  0.9263
 4155TIP3    H212472   1.843   2.504   3.129  0.7171  0.1474  0.3036
 4156TIP3   OH212473   0.222   2.021   0.786 -0.6532  0.1433 -0.6376
 4156TIP3    H112474   0.129   2.001   0.794 -0.6922  0.0537 -1.3033
 4156TIP3    H212475   0.235   2.039   0.693  0.1147 -0.4557 -0.6515
 4157TIP3   OH212476   4.413   5.324   1.917 -0.1960  0.3897 -0.2639
 4157TIP3    H112477   4.344   5.388   1.936  0.4109  1.1803 -0.7284
 4157TIP3    H212478   4.382   5.278   1.839  1.0277  2.6099 -2.1653
 4158TIP3   OH212479   0.622   0.290   1.356 -0.2743  0.1700 -0.3807
 4158TIP3    H112480   0.543   0.338   1.381  0.7903  0.7561  2.1673
 4158TIP3    H212481   0.665   0.270   1.439  1.1489 -2.1097 -1.5726
 4159TIP3   OH212482   4.751   5.127   4.914  0.2160  0.1848  0.3853
 4159TIP3    H112483   4.690   5.093   4.848  0.6326 -1.5451  0.8344
 4159TIP3    H212484   4.751   5.222   4.901 -0.9185  0.0165 -1.0389
 4160TIP3   OH212485   2.089   3.573   2.796  0.1545 -0.4859 -0.4059
 4160TIP3    H112486   2.010   3.531   2.829  0.4737 -1.2829 -0.6156
 4160TIP3    H212487   2.077   3.666   2.814 -2.4932 -0.0069 -3.6356
 4161TIP3   OH212488   1.867   3.970   2.639 -0.2885 -0.4437  0.3060
 4161TIP3    H112489   1.917   4.005   2.566 -2.2332  1.8786 -0.0619
 4161TIP3    H212490   1.805   3.909   2.599 -0.3508 -0.3027  0.1835
 4162TIP3   OH212491   4.714   0.959   2.230 -0.0854  0.0748  0.2131
 4162TIP3    H112492   4.658   1.016   2.178 -0.2168 -1.0384 -0.9133
 4162TIP3    H212493   4.711   0.996   2.319  0.1884  2.0505 -0.5474
 4163TIP3   OH212494   4.150   0.073   0.392 -0.0469  0.1630 -0.8906
 4163TIP3    H112495   4.117   0.051   0.480  0.4013  0.9204 -0.5199
 4163TIP3    H212496   4.086   0.035   0.332 -0.8922  0.4845 -0.2139
 4164TIP3   OH212497   3.120   1.623   4.515  0.3926  0.5017 -0.3002
 4164TIP3    H112498   3.181   1.553   4.539 -1.7652 -0.8805  1.5627
 4164TIP3    H212499   3.092   1.601   4.427  0.9400 -0.0776 -0.3385
 4165TIP3   OH212500   4.271   4.848   5.129  0.0662  0.8945 -0.3769
 4165TIP3    H112501   4.290   4.764   5.169  0.3935 -0.2887 -2.8306
 4165TIP3    H212502   4.245   4.904   5.202 -0.9365 -1.5238  1.2386
 4166TIP3   OH212503   1.601   4.375   3.864 -0.2038 -0.1503  0.6497
 4166TIP3    H112504   1.557   4.316   3.925 -0.0469 -1.5493 -0.5554
 4166TIP3    H212505   1.564   4.461   3.884 -1.6832 -0.9000  1.3095
 4167TIP3   OH212506   3.761   3.646   3.672 -0.3449 -0.1619 -0.2994
 4167TIP3    H112507   3.766   3.622   3.579 -0.3651  2.0336 -0.9194
 4167TIP3    H212508   3.841   3.611   3.710  0.3620  0.1512 -1.4661
 4168TIP3   OH212509   1.639   5.484   0.322  0.2296 -0.5540  0.7563
 4168TIP3    H112510   1.674   5.413   0.376 -1.2356 -0.7504  1.5121
 4168TIP3    H212511   1.715   5.519   0.276  1.2068 -1.6955  1.4323
 4169TIP3   OH212512   0.631   2.950   3.976 -0.1457  1.1751 -0.3534
 4169TIP3    H112513   0.540   2.980   3.969  0.2844  2.6702 -0.0387
 4169TIP3    H212514   0.630   2.861   3.943 -1.6712  1.2837 -0.6718
 4170TIP3   OH212515   1.010   1.772   1.994 -0.1453  0.2857 -0.4034
 4170TIP3    H112516   0.924   1.792   1.959  0.0436  0.2408 -0.9024
 4170TIP3    H212517   1.010   1.676   2.004 -0.6155  0.3962  0.8386
 4171TIP3   OH212518   0.177   3.477   5.140  0.1096 -0.4347 -0.4465
 4171TIP3    H112519   0.208   3.425   5.214 -1.1115 -1.8940 -0.9026
 4171TIP3    H212520   0.256   3.500   5.091  0.9890  0.9604  1.5157
 4172TIP3   OH212521   0.343   0.318   4.291 -0.4436  0.2602 -0.2471
 4172TIP3    H112522   0.337   0.265   4.370  0.1710 -0.3240 -0.5818
 4172TIP3    H212523   0.383   0.400   4.320  0.1384 -0.1025 -0.0195
 4173TIP3   OH212524   2.817   5.302   3.349 -0.3123  0.1851  0.1789
 4173TIP3    H112525   2.844   5.211   3.364  0.2431  0.3480  0.1920
 4173TIP3    H212526   2.823   5.343   3.436  1.7176  0.8168 -0.1910
 4174TIP3   OH212527   3.397   2.864   2.350 -0.4982 -0.4530 -0.1985
 4174TIP3    H112528   3.362   2.907   2.428  1.5504 -1.4187  1.3413
 4174TIP3    H212529   3.337   2.890   2.279 -0.5941  3.1524  1.0005
 4175TIP3   OH212530   2.113   3.960   4.731 -0.0336 -0.0985 -0.6148
 4175TIP3    H112531   2.112   3.998   4.819 -0.4231  1.1281 -1.1321
 4175TIP3    H212532   2.181   3.892   4.735 -0.2963 -0.3216  0.7235
 4176TIP3   OH212533   2.569   5.835   2.648 -0.0214  0.0360 -0.2416
 4176TIP3    H112534   2.574   5.747   2.612 -0.1686  0.1620 -0.5773
 4176TIP3    H212535   2.608   5.828   2.735 -0.7207 -0.5258  0.0369
 4177TIP3   OH212536   5.125   2.353   3.924 -0.8398 -0.2113 -0.4825
 4177TIP3    H112537   5.092   2.442   3.932 -0.0083  0.2876 -2.1248
 4177TIP3    H212538   5.143   2.326   4.014 -1.7857  1.0007  0.0980
 4178TIP3   OH212539   1.771   1.151   2.458 -0.8065  0.4692  0.1809
 4178TIP3    H112540   1.833   1.089   2.419 -0.1099  0.7427  0.8411
 4178TIP3    H212541   1.706   1.166   2.388 -0.8383 -0.7705 -0.0944
 4179TIP3   OH212542   5.615   4.855   2.653 -0.1636  0.1063  0.0071
 4179TIP3    H112543   5.634   4.762   2.659  1.0261  0.3448  0.0177
 4179TIP3    H212544   5.682   4.890   2.595 -0.9219  0.8694 -0.4284
 4180TIP3   OH212545   4.319   3.728   3.035 -0.3569  0.0202  0.1087
 4180TIP3    H112546   4.282   3.706   2.949  0.8344 -1.6361 -0.0154
 4180TIP3    H212547   4.275   3.669   3.096  0.5022 -0.4446  0.2845
 4181TIP3   OH212548   5.856   4.372   0.786  0.3807 -0.0701  0.8354
 4181TIP3    H112549   5.812   4.334   0.862  0.8229 -2.7348 -0.1316
 4181TIP3    H212550   5.935   4.318   0.774  1.2692  1.4165 -0.4649
 4182TIP3   OH212551   5.344   0.191   2.978 -0.5796  0.3454 -0.2417
 4182TIP3    H112552   5.274   0.233   3.027  0.7862  1.0065  1.2565
 4182TIP3    H212553   5.390   0.263   2.935  1.1403  0.3537  1.4877
 4183TIP3   OH212554   1.719   3.667   1.155  0.8865  0.0900  0.2659
 4183TIP3    H112555   1.807   3.654   1.189  0.1221  0.8008  2.7378
 4183TIP3    H212556   1.685   3.741   1.205 -0.6846  0.6859 -1.5533
 4184TIP3   OH212557   5.104   5.982   2.939  0.0110  0.5963  0.0197
 4184TIP3    H112558   5.077   5.916   2.875  2.4373 -0.2263 -0.2902
 4184TIP3    H212559   5.030   5.990   2.999 -1.4046 -0.3703 -1.5225
 4185TIP3   OH212560   5.943   1.930   0.556  0.2055 -0.1095  0.2081
 4185TIP3    H112561   5.927   2.023   0.569  1.2965  0.8267 -3.6323
 4185TIP3    H212562   5.923   1.890   0.640  0.2588  3.6176  2.2277
 4186TIP3   OH212563   3.954   1.568   3.174 -0.6845 -0.7351 -0.3849
 4186TIP3    H112564   4.022   1.537   3.234 -0.9974 -1.4002 -0.3580
 4186TIP3    H212565   3.999   1.582   3.091 -0.2333  0.2544  0.0119
 4187TIP3   OH212566   4.948   5.232   0.518  0.1208 -0.1644 -0.1704
 4187TIP3    H112567   5.002   5.174   0.572  0.8509 -0.2578 -0.9821
 4187TIP3    H212568   4.921   5.178   0.444  1.1585  0.6026 -1.1612
 4188TIP3   OH212569   1.004   5.764   4.822  0.1147  1.0040  0.2885
 4188TIP3    H112570   1.059   5.806   4.755 -1.5118  0.8247 -1.2383
 4188TIP3    H212571   0.928   5.822   4.831 -0.2490  0.4134  1.1088
 4189TIP3   OH212572   3.981   0.494   4.668 -0.0692 -0.6829 -0.0856
 4189TIP3    H112573   4.011   0.433   4.602 -1.3806  1.8118 -3.2424
 4189TIP3    H212574   3.888   0.476   4.677 -0.5603  0.9848 -1.3586
 4190TIP3   OH212575   4.697   3.075   3.159  0.5883 -0.6891 -0.0150
 4190TIP3    H112576   4.667   2.985   3.173 -1.2038 -0.1030  0.1757
 4190TIP3    H212577   4.734   3.102   3.243 -1.0106 -0.4892  0.6489
 4191TIP3   OH212578   4.436   1.610   3.212  0.0850 -0.1074 -0.5434
 4191TIP3    H112579   4.367   1.543   3.213  0.2000 -0.2291 -0.6832
 4191TIP3    H212580   4.389   1.693   3.202 -0.0864 -0.1282  0.0208
 4192TIP3   OH212581   2.460   5.116   4.644 -0.3599 -0.2837  0.2595
 4192TIP3    H112582   2.429   5.183   4.705 -0.0418  0.1869 -0.0836
 4192TIP3    H212583   2.381   5.088   4.597 -0.6507 -0.8456  1.0586
 4193TIP3   OH212584   5.003   0.767   0.498  0.2147  0.0670 -0.2318
 4193TIP3    H112585   5.082   0.713   0.495  1.1643  1.4270 -0.5089
 4193TIP3    H212586   4.962   0.754   0.413 -1.1869 -2.4861  0.7328
 4194TIP3   OH212587   1.256   4.720   4.903 -0.0016  0.4047 -0.0945
 4194TIP3    H112588   1.270   4.812   4.883 -1.3002  0.7165  0.3521
 4194TIP3    H212589   1.305   4.705   4.983 -0.6637  1.0017  0.4333
 4195TIP3   OH212590   0.892   1.889   2.484 -0.1230 -0.1546  0.3587
 4195TIP3    H112591   0.924   1.800   2.498 -1.0657 -0.8032 -1.2795
 4195TIP3    H212592   0.814   1.878   2.428 -0.1433  1.7048 -0.0459
 4196TIP3   OH212593   1.202   3.036   2.002  0.0038  0.2282  0.1086
 4196TIP3    H112594   1.240   3.013   2.087 -0.9446  0.6010  0.6494
 4196TIP3    H212595   1.260   3.103   1.966  0.3404  0.1595  0.5196
 4197TIP3   OH212596   1.792   3.095   1.980  0.0398  0.0949 -0.0016
 4197TIP3    H112597   1.812   3.022   1.921  1.2883  1.4801 -1.4027
 4197TIP3    H212598   1.720   3.141   1.937  1.1123  1.2493 -0.6246
 4198TIP3   OH212599   1.048   3.470   0.352  0.1164 -0.2020  0.5749
 4198TIP3    H112600   1.061   3.534   0.422 -0.6418  0.4340  0.1494
 4198TIP3    H212601   1.045   3.522   0.272  1.3205 -0.9606  0.0185
 4199TIP3   OH212602   5.679   1.642   1.068 -0.5992 -0.4124 -0.2443
 4199TIP3    H112603   5.673   1.736   1.081 -0.6464 -0.4048 -0.3221
 4199TIP3    H212604   5.627   1.625   0.989  1.2771 -0.2042 -1.5791
 4200TIP3   OH212605   3.696   3.043   3.124  0.4332  0.7382  0.2988
 4200TIP3    H112606   3.617   3.040   3.178  0.3763  0.8276  0.2211
 4200TIP3    H212607   3.752   2.975   3.160  1.1877  2.0398  1.6591
 4201TIP3   OH212608   3.678   3.127   4.299  0.4101 -0.5263 -0.0144
 4201TIP3    H112609   3.753   3.088   4.255  1.8498  2.8058 -0.7731
 4201TIP3    H212610   3.604   3.109   4.240  1.3586 -0.4758 -1.2542
 4202TIP3   OH212611   4.027   5.853   2.517 -0.5852  0.0258 -0.1888
 4202TIP3    H112612   3.981   5.801   2.583  0.3589 -1.1849 -0.4542
 4202TIP3    H212613   4.118   5.856   2.548 -0.4722  0.9016 -0.5728
 4203TIP3   OH212614   2.256   4.564   2.502  0.0049  0.1892 -0.0513
 4203TIP3    H112615   2.324   4.603   2.556  3.2181  0.3680 -3.7568
 4203TIP3    H212616   2.245   4.627   2.430 -4.0487  0.0327  0.2224
 4204TIP3   OH212617   5.609   3.958   4.876 -0.0157  0.0333  0.2572
 4204TIP3    H112618   5.619   3.965   4.970  0.1797  1.6653  0.1399
 4204TIP3    H212619   5.687   3.911   4.847 -0.2004 -0.6989  0.9267
 4205TIP3   OH212620   4.876   5.991   3.557  0.2248 -0.3152  0.3635
 4205TIP3    H112621   4.792   6.004   3.600 -0.7185  0.0295 -1.4852
 4205TIP3    H212622   4.855   5.944   3.476  1.9389 -1.0735  0.3036
 4206TIP3   OH212623   2.257   4.393   4.024  0.1807 -0.4161 -0.2349
 4206TIP3    H112624   2.285   4.307   4.056  0.2308 -1.6594 -3.3110
 4206TIP3    H212625   2.166   4.380   3.997  0.2758  0.4114 -0.9950
 4207TIP3   OH212626   5.016   5.922   4.517 -0.0914  0.5576 -0.1441
 4207TIP3    H112627   4.936   5.970   4.494 -1.1752 -0.9765  0.2856
 4207TIP3    H212628   5.032   5.864   4.443  0.1880  0.3057  0.1114
 4208TIP3   OH212629   4.671   1.805   4.121 -0.0661  0.0849 -0.1127
 4208TIP3    H112630   4.586   1.765   4.102  0.4538 -1.0193 -0.1840
 4208TIP3    H212631   4.662   1.838   4.210  0.1978 -2.2427  0.8409
 4209TIP3   OH212632   2.841   0.280   2.430  0.4869 -0.1589  0.2663
 4209TIP3    H112633   2.776   0.297   2.498 -0.6934 -0.3125 -0.7823
 4209TIP3    H212634   2.898   0.212   2.467 -0.9460 -1.2258  0.6080
 4210TIP3   OH212635   5.351   2.099   0.555 -0.3421  0.1973  0.4724
 4210TIP3    H112636   5.304   2.174   0.519 -0.4079 -0.0927 -0.0522
 4210TIP3    H212637   5.377   2.047   0.479  0.2114 -0.0144  0.7957
 4211TIP3   OH212638   1.799   2.977   2.223 -0.4693  0.2746  0.0847
 4211TIP3    H112639   1.839   3.016   2.145 -0.1198 -0.4251 -0.0950
 4211TIP3    H212640   1.854   2.901   2.243  0.5260  1.4074  2.0534
 4212TIP3   OH212641   2.256   2.637   3.522 -0.3247  0.0726  0.1837
 4212TIP3    H112642   2.192   2.661   3.455  0.5753  0.7288 -0.4596
 4212TIP3    H212643   2.323   2.588   3.475 -0.1018 -0.2009  0.7686
 4213TIP3   OH212644   3.304   2.351   0.890  0.5993 -0.0015  0.0483
 4213TIP3    H112645   3.346   2.385   0.811  1.1987 -1.0198 -0.0843
 4213TIP3    H212646   3.375   2.314   0.942 -0.0257 -1.1043  0.1534
 4214TIP3   OH212647   3.982   2.703   5.065  0.5584  0.1193 -0.0945
 4214TIP3    H112648   4.035   2.629   5.036 -0.5384 -0.4532 -0.7459
 4214TIP3    H212649   3.985   2.698   5.161  0.7321 -0.6131 -0.1275
 4215TIP3   OH212650   4.564   4.288   4.654 -0.3331  0.1846 -0.2215
 4215TIP3    H112651   4.585   4.289   4.561  1.3366  1.9854  0.1036
 4215TIP3    H212652   4.534   4.199   4.671  2.6726 -1.2875 -1.8090
 4216TIP3   OH212653   1.916   2.278   2.275 -0.2090 -0.5806  0.2644
 4216TIP3    H112654   1.821   2.276   2.263 -0.2346  0.3085  0.2636
 4216TIP3    H212655   1.931   2.233   2.358 -0.8654  1.3702  1.5123
 4217TIP3   OH212656   6.260   5.303   2.346 -0.4918 -0.4076  0.1494
 4217TIP3    H112657   6.168   5.279   2.336 -0.2244 -1.2953 -0.2717
 4217TIP3    H212658   6.268   5.328   2.438 -1.6502  1.9508 -0.3016
 4218TIP3   OH212659   6.093   1.307   0.826 -0.1338 -0.0934  0.8289
 4218TIP3    H112660   6.003   1.330   0.805 -0.0475  0.9334  1.5348
 4218TIP3    H212661   6.087   1.254   0.905 -0.1194  0.0538  0.9300
 4219TIP3   OH212662   2.372   2.629   4.126 -0.0643 -0.0217  0.0357
 4219TIP3    H112663   2.328   2.555   4.084  1.0219 -0.3116 -0.6452
 4219TIP3    H212664   2.378   2.695   4.057  0.3919  0.0841  0.1742
 4220TIP3   OH212665   3.829   4.939   3.416 -0.0602 -0.1031  0.0917
 4220TIP3    H112666   3.819   4.977   3.329 -0.8305 -0.6718 -0.0704
 4220TIP3    H212667   3.760   4.980   3.468 -3.5683 -3.9404 -1.0002
 4221TIP3   OH212668   4.018   5.218   4.854  0.2025  0.2872 -0.3058
 4221TIP3    H112669   3.943   5.277   4.864 -0.1039 -0.2384  0.6675
 4221TIP3    H212670   4.080   5.246   4.921  0.3709 -0.0246 -0.3283
 4222TIP3   OH212671   4.200   3.002   3.488  0.1404 -0.0732 -0.0705
 4222TIP3    H112672   4.141   2.963   3.552  0.4766  0.6280  0.6854
 4222TIP3    H212673   4.183   3.096   3.494  2.8387  0.4020  1.7751
 4223TIP3   OH212674   5.879   3.295   4.247 -0.7673 -0.1235 -0.3407
 4223TIP3    H112675   5.790   3.302   4.283 -0.3926 -0.3688  0.6417
 4223TIP3    H212676   5.914   3.215   4.285  0.0801  0.2700 -0.2772
 4224TIP3   OH212677   1.814   2.414   4.773 -0.1007  0.3684  0.0200
 4224TIP3    H112678   1.865   2.356   4.716  0.4619  0.7839  0.0833
 4224TIP3    H212679   1.799   2.363   4.852  2.2958  1.0101  0.9932
 4225TIP3   OH212680   4.824   3.438   4.187 -0.1361 -0.2907  0.3163
 4225TIP3    H112681   4.876   3.502   4.235 -1.4186  1.5988 -0.6756
 4225TIP3    H212682   4.815   3.364   4.248 -0.0758  1.1983  2.2272
 4226TIP3   OH212683   2.062   0.682   1.008 -0.1618 -0.3924 -0.1325
 4226TIP3    H112684   2.100   0.596   0.988 -1.6178 -1.4160  1.2142
 4226TIP3    H212685   1.968   0.666   1.012 -0.4943  1.3586 -0.1601
 4227TIP3   OH212686   5.068   0.486   4.682  0.6627  0.4184  0.0384
 4227TIP3    H112687   5.135   0.449   4.739 -0.5362 -0.4944  0.8993
 4227TIP3    H212688   4.991   0.496   4.738 -0.9549 -1.6545 -1.6566
 4228TIP3   OH212689   3.237   4.237   3.566 -0.3114  0.2789  0.0367
 4228TIP3    H112690   3.204   4.148   3.567 -1.2930  0.6253  1.0804
 4228TIP3    H212691   3.312   4.235   3.626 -0.0709  0.0705 -0.2687
 4229TIP3   OH212692   6.215   3.274   1.148 -0.5960 -0.2814 -0.2542
 4229TIP3    H112693   6.302   3.307   1.171 -1.2334  1.9603 -0.8129
 4229TIP3    H212694   6.209   3.286   1.053 -1.2069 -1.2800 -0.3634
 4230TIP3   OH212695   3.418   5.836   1.805  0.1327  0.7870 -0.0192
 4230TIP3    H112696   3.356   5.909   1.790  0.4520  0.7751 -1.5536
 4230TIP3    H212697   3.369   5.758   1.779 -0.4478  0.3292  2.2783
 4231TIP3   OH212698   0.997   1.742   1.344  0.2483  0.0789 -0.2118
 4231TIP3    H112699   0.903   1.757   1.343  0.3246  0.5967 -0.2001
 4231TIP3    H212700   1.013   1.684   1.270 -0.2706 -1.2879  0.7266
 4232TIP3   OH212701   4.417   2.422   1.851 -0.4264 -0.0942 -0.0540
 4232TIP3    H112702   4.418   2.505   1.899  1.0379  0.0441 -0.2859
 4232TIP3    H212703   4.471   2.363   1.903 -0.7939 -0.6661 -0.3069
 4233TIP3   OH212704   1.963   1.665   1.039  0.2581  0.1983  0.6157
 4233TIP3    H112705   1.882   1.715   1.025 -0.2090 -0.8140 -0.3715
 4233TIP3    H212706   1.955   1.632   1.128  0.6966  2.0697  1.4002
 4234TIP3   OH212707   5.061   1.177   1.430  0.0773 -0.0325  0.1308
 4234TIP3    H112708   5.134   1.199   1.372 -1.8324  1.1992 -1.9819
 4234TIP3    H212709   5.018   1.261   1.447 -0.5473 -0.6531  1.7825
 4235TIP3   OH212710   0.726   5.392   5.100  0.1371  0.3591 -0.3583
 4235TIP3    H112711   0.701   5.452   5.031  0.5156  0.2551 -0.5901
 4235TIP3    H212712   0.814   5.421   5.127 -0.5326  1.2327  1.0042
 4236TIP3   OH212713   6.072   4.517   4.851 -0.5900 -0.4050  0.2504
 4236TIP3    H112714   6.166   4.531   4.841 -0.4951 -0.8750  0.4538
 4236TIP3    H212715   6.044   4.582   4.916 -0.6247  0.5129 -0.6551
 4237TIP3   OH212716   5.229   5.576   1.222  0.1522 -0.4697  0.3122
 4237TIP3    H112717   5.293   5.571   1.293  2.1636  0.9366 -1.3038
 4237TIP3    H212718   5.254   5.653   1.172 -2.1211 -0.5473 -1.0905
 4238TIP3   OH212719   3.346   5.518   3.321 -0.3923 -0.0858  0.7018
 4238TIP3    H112720   3.429   5.553   3.353  0.2926 -0.1427 -0.9281
 4238TIP3    H212721   3.325   5.447   3.382 -0.5338  1.4821  2.5764
 4239TIP3   OH212722   4.403   3.516   0.259  0.2749  0.0652  0.0145
 4239TIP3    H112723   4.474   3.562   0.305  0.3567 -0.8746  0.8543
 4239TIP3    H212724   4.441   3.491   0.175  0.8799 -0.2464  0.3740
 4240TIP3   OH212725   4.955   1.729   3.115 -0.3843  0.5139 -0.7151
 4240TIP3    H112726   4.956   1.663   3.045  2.4258  0.5799 -0.8300
 4240TIP3    H212727   5.040   1.721   3.156 -1.6349  1.0659  2.2233
 4241TIP3   OH212728   4.190   0.184   0.070 -0.8395 -0.2641  0.1465
 4241TIP3    H112729   4.162   0.270   0.100  0.0446  0.3766 -0.8167
 4241TIP3    H212730   4.253   0.155   0.136  1.9533  1.6187 -1.4785
 4242TIP3   OH212731   3.124   5.569   2.862  0.0488 -0.4077 -0.3159
 4242TIP3    H112732   3.203   5.521   2.885 -0.4223 -0.2069  1.8785
 4242TIP3    H212733   3.053   5.523   2.906 -0.7054  0.9146 -0.0831
 4243TIP3   OH212734   1.689   4.200   1.226  0.0890  0.0835  0.1239
 4243TIP3    H112735   1.642   4.276   1.259 -0.8646  0.7668 -2.5737
 4243TIP3    H212736   1.781   4.216   1.250 -0.2021  1.7301  0.2276
 4244TIP3   OH212737   5.343   4.461   3.261  0.5139  0.5196 -0.2103
 4244TIP3    H112738   5.251   4.481   3.245  1.2715  1.8180 -3.9899
 4244TIP3    H212739   5.374   4.534   3.313 -0.4573  0.3386  0.6542
 4245TIP3   OH212740   3.450   1.790   1.638 -0.0495  0.0917  0.5925
 4245TIP3    H112741   3.424   1.870   1.594  1.1319 -0.5228 -1.3316
 4245TIP3    H212742   3.535   1.810   1.677  1.7189 -0.9402 -2.3934
 4246TIP3   OH212743   2.275   2.008   2.187  0.4926 -0.3603 -0.1499
 4246TIP3    H112744   2.290   1.927   2.235  0.5375  0.1041  0.6317
 4246TIP3    H212745   2.302   2.078   2.247 -2.6258  0.4255  0.5182
 4247TIP3   OH212746   1.741   4.507   1.700 -0.4669 -0.2296  0.1292
 4247TIP3    H112747   1.663   4.559   1.679 -0.2031  0.6691  1.2967
 4247TIP3    H212748   1.794   4.565   1.755  1.0129 -0.8379 -0.6054
 4248TIP3   OH212749   2.671   1.005   0.953  0.0449  0.1455  0.2266
 4248TIP3    H112750   2.723   0.928   0.976  0.3582  0.1100 -0.5482
 4248TIP3    H212751   2.631   1.033   1.035 -0.7026 -1.2951  0.3857
 4249TIP3   OH212752   0.025   0.830   3.846  0.1356  0.0248 -0.1968
 4249TIP3    H112753   0.008   0.875   3.763  3.3350  0.6422 -0.6569
 4249TIP3    H212754   0.007   0.738   3.828 -1.8826  0.4504 -0.6724
 4250TIP3   OH212755   1.556   1.119   2.303 -0.0527  0.1830 -0.2308
 4250TIP3    H112756   1.515   1.094   2.221  1.3298 -1.4517 -0.4901
 4250TIP3    H212757   1.526   1.053   2.366 -0.0393  0.6216  0.2422
 4251TIP3   OH212758   2.659   2.510   1.379 -0.5401 -0.2471  0.3585
 4251TIP3    H112759   2.685   2.430   1.332  0.5272  0.5845 -0.5206
 4251TIP3    H212760   2.741   2.557   1.392 -1.0568  0.3408  1.5885
 4252TIP3   OH212761   0.976   5.854   0.090  0.0253  0.1003 -0.0840
 4252TIP3    H112762   0.882   5.869   0.105 -0.0341  1.2668 -1.4011
 4252TIP3    H212763   1.011   5.833   0.176 -1.7672 -2.3267  0.1800
 4253TIP3   OH212764   1.532   1.907   2.591 -0.3070  0.2434 -0.2990
 4253TIP3    H112765   1.444   1.908   2.629 -1.6479 -0.0286 -3.1375
 4253TIP3    H212766   1.554   1.814   2.584  0.8182  0.3191  1.5275
 4254TIP3   OH212767   1.338   3.259   1.928  0.1923  0.4427 -0.4818
 4254TIP3    H112768   1.427   3.247   1.894  0.4638 -0.0384  0.3665
 4254TIP3    H212769   1.287   3.286   1.852  0.7097 -0.9193 -1.3381
 4255TIP3   OH212770   1.461   0.098   3.280  0.7890 -0.0016  0.0593
 4255TIP3    H112771   1.371   0.068   3.288  1.0076 -0.4426  0.9852
 4255TIP3    H212772   1.465   0.140   3.194 -0.1020 -0.6193 -0.2933
 4256TIP3   OH212773   3.909   5.588   1.751 -0.0687 -0.0759 -0.0265
 4256TIP3    H112774   3.908   5.622   1.662  2.1607  1.0938  0.3048
 4256TIP3    H212775   4.001   5.591   1.776 -0.3114 -2.5976  1.5181
 4257TIP3   OH212776   1.279   1.771   0.875 -0.3782 -0.0182  0.1365
 4257TIP3    H112777   1.320   1.857   0.865 -1.8455  0.6331 -0.5715
 4257TIP3    H212778   1.269   1.760   0.970  0.3404  0.3215  0.2593
 4258TIP3   OH212779   1.666   3.192   4.612  0.2608  0.0796  0.1313
 4258TIP3    H112780   1.738   3.131   4.599 -0.3309 -0.1685 -2.4068
 4258TIP3    H212781   1.615   3.153   4.683  0.9459 -1.3432 -0.1147
 4259TIP3   OH212782   1.129   2.874   4.610 -0.3554 -0.0785  0.2176
 4259TIP3    H112783   1.114   2.787   4.647  0.1177  0.2593  1.2574
 4259TIP3    H212784   1.155   2.858   4.519 -0.2790 -1.0230  0.3969
 4260TIP3   OH212785   3.374   1.453   1.419  0.2699 -0.6284  0.0355
 4260TIP3    H112786   3.387   1.469   1.513  0.6142 -0.8088  0.0178
 4260TIP3    H212787   3.320   1.373   1.416  1.5011 -1.4916  0.0602
 4261TIP3   OH212788   5.774   4.873   3.444 -0.0407 -0.0944 -0.0670
 4261TIP3    H112789   5.823   4.800   3.405 -1.5403 -2.2271  1.7476
 4261TIP3    H212790   5.698   4.884   3.387  0.4703  0.4579 -0.6530
 4262TIP3   OH212791   1.162   3.309   2.723  0.4189 -0.0572  0.9916
 4262TIP3    H112792   1.182   3.363   2.800  0.5349  0.8665  0.3312
 4262TIP3    H212793   1.066   3.302   2.724  0.0571  2.7656 -0.5417
 4263TIP3   OH212794   0.368   0.902   2.684 -0.1184  0.2675 -0.2389
 4263TIP3    H112795   0.353   0.808   2.671  0.9725  0.0349  0.1511
 4263TIP3    H212796   0.375   0.937   2.595 -2.0090  0.2548 -0.4421
 4264TIP3   OH212797   1.929   5.549   4.113 -0.2013 -0.2486 -0.3388
 4264TIP3    H112798   1.901   5.547   4.021 -0.6391  1.9858 -0.3154
 4264TIP3    H212799   2.019   5.515   4.111  0.1647  0.6944 -1.7891
 4265TIP3   OH212800   0.218   3.458   4.537 -0.3760 -0.1607 -0.4458
 4265TIP3    H112801   0.153   3.401   4.496 -1.2695  0.7505 -0.3266
 4265TIP3    H212802   0.170   3.539   4.558  1.3978  1.8012 -3.1628
 4266TIP3   OH212803   2.915   3.380   0.261 -0.0560 -0.5878  0.2649
 4266TIP3    H112804   2.853   3.373   0.334  0.6167  0.2542  0.9486
 4266TIP3    H212805   2.862   3.411   0.188 -0.1036  2.3211  1.4161
 4267TIP3   OH212806   1.339   2.076   1.182 -0.7759  0.3393 -0.1919
 4267TIP3    H112807   1.347   2.141   1.112 -1.2475  0.9973  0.3486
 4267TIP3    H212808   1.364   2.124   1.261 -0.0345 -0.4554  0.0679
 4268TIP3   OH212809   3.091   4.814   1.036 -0.0055  0.1556  0.1949
 4268TIP3    H112810   3.030   4.745   1.009  0.4454  0.8667 -3.0570
 4268TIP3    H212811   3.036   4.880   1.077 -0.9148 -0.7260  0.4219
 4269TIP3   OH212812   3.795   2.369   3.162 -0.5449  0.3686  0.3625
 4269TIP3    H112813   3.832   2.442   3.112  0.6238  0.2940  1.0853
 4269TIP3    H212814   3.736   2.326   3.100 -0.5983  1.4150 -0.3394
 4270TIP3   OH212815   2.346   2.806   4.624  0.1166 -0.6072 -0.2597
 4270TIP3    H112816   2.341   2.847   4.710 -0.2222 -1.0972 -0.0387
 4270TIP3    H212817   2.256   2.785   4.601  0.0031  1.0222 -1.5022
 4271TIP3   OH212818   5.640   1.125   0.121 -0.9836  0.3140  0.7551
 4271TIP3    H112819   5.591   1.046   0.099 -0.6539 -0.2505  1.9264
 4271TIP3    H212820   5.575   1.195   0.119 -1.2842  0.0127 -0.2791
 4272TIP3   OH212821   1.370   0.961   3.035 -0.1460  0.2599  0.6113
 4272TIP3    H112822   1.385   0.912   2.954 -0.2919  0.8886  0.1968
 4272TIP3    H212823   1.315   0.903   3.088 -0.5805  0.0990  0.0013
 4273TIP3   OH212824   0.341   4.092   0.534  0.2273 -0.4929  0.5224
 4273TIP3    H112825   0.411   4.035   0.503  0.1613 -1.7803  2.5147
 4273TIP3    H212826   0.261   4.047   0.510  0.1625 -0.9253  1.5224
 4274TIP3   OH212827   3.638   4.260   2.227  0.1266  0.4552 -0.1466
 4274TIP3    H112828   3.634   4.233   2.135  1.3765 -0.5042  0.0456
 4274TIP3    H212829   3.653   4.178   2.275  0.3054  1.0496  0.8370
 4275TIP3   OH212830   4.598   3.908   5.052  0.1444  0.1736  0.1558
 4275TIP3    H112831   4.684   3.891   5.091  0.6781 -3.8140 -2.2807
 4275TIP3    H212832   4.542   3.929   5.126  2.1335 -2.1926  2.5089
 4276TIP3   OH212833   2.835   2.459   1.932  0.0400  0.4528  0.5387
 4276TIP3    H112834   2.751   2.433   1.896  0.9571  0.8377 -2.1352
 4276TIP3    H212835   2.885   2.378   1.938 -0.0890  0.3987  0.9243
 4277TIP3   OH212836   6.310   1.769   4.605 -0.2676 -0.7324 -0.1015
 4277TIP3    H112837   6.274   1.688   4.569 -3.1854  0.0327  0.8108
 4277TIP3    H212838   6.354   1.811   4.532 -1.2236 -1.8079 -1.3384
 4278TIP3   OH212839   2.393   0.871   2.664  0.3012  0.4360 -0.2609
 4278TIP3    H112840   2.394   0.788   2.713 -0.3635 -0.4091 -1.6120
 4278TIP3    H212841   2.362   0.936   2.727 -0.9706 -0.7010  0.3466
 4279TIP3   OH212842   1.075   3.837   3.444 -0.0057  0.0033 -0.3508
 4279TIP3    H112843   1.107   3.910   3.391  0.1273  0.4756  0.3656
 4279TIP3    H212844   1.137   3.766   3.427  0.0809  0.1737 -0.7596
 4280TIP3   OH212845   4.622   4.162   1.620 -0.3008  0.3672  0.4750
 4280TIP3    H112846   4.589   4.176   1.531  0.6580 -0.2857  0.0042
 4280TIP3    H212847   4.711   4.198   1.618  0.5126 -1.5528  0.5537
 4281TIP3   OH212848   3.748   5.756   0.853  0.2628 -0.3140  0.1734
 4281TIP3    H112849   3.809   5.778   0.923 -1.3137 -0.3041  1.5907
 4281TIP3    H212850   3.697   5.683   0.887 -1.2965  0.4231 -0.4924
 4282TIP3   OH212851   3.971   3.982   1.146  0.0682  0.0348  0.0350
 4282TIP3    H112852   4.036   4.019   1.205  2.2455 -0.1443 -2.1111
 4282TIP3    H212853   3.966   3.889   1.170  0.9470 -0.0407 -0.0698
 4283TIP3   OH212854   0.948   3.977   1.804  0.0487 -0.4773  0.7196
 4283TIP3    H112855   0.998   3.896   1.804 -0.0826 -0.5602  0.4764
 4283TIP3    H212856   0.869   3.957   1.855 -0.7131 -0.9682 -0.6018
 4284TIP3   OH212857   5.787   1.674   1.591  0.6118  0.3376 -0.2836
 4284TIP3    H112858   5.831   1.607   1.643  0.2604 -0.5299 -1.0821
 4284TIP3    H212859   5.731   1.625   1.531  0.1795  1.3574 -0.7307
 4285TIP3   OH212860   2.797   1.721   2.568 -0.4448 -0.1058 -0.1692
 4285TIP3    H112861   2.721   1.664   2.581 -0.3545  0.0222  1.0221
 4285TIP3    H212862   2.872   1.665   2.587 -0.3094  0.1576  0.0689
 4286TIP3   OH212863   4.095   3.566   1.480 -0.0418  0.0443 -0.2751
 4286TIP3    H112864   4.103   3.473   1.459 -2.8236 -0.4427  0.4401
 4286TIP3    H212865   4.073   3.568   1.573  0.6038  1.4763 -0.1235
 4287TIP3   OH212866   5.477   2.049   2.432  0.4580 -0.3015  0.2833
 4287TIP3    H112867   5.532   2.119   2.396  1.6865 -1.5127 -0.2552
 4287TIP3    H212868   5.502   1.971   2.384  0.1897 -1.4282  1.8955
 4288TIP3   OH212869   5.638   4.252   2.572 -0.2369  0.1469  0.6965
 4288TIP3    H112870   5.642   4.345   2.552 -0.0434  0.1055  0.5345
 4288TIP3    H212871   5.692   4.242   2.650  0.0066  0.1218  0.5260
 4289TIP3   OH212872   6.156   3.067   2.693  0.1977 -0.3048 -0.2738
 4289TIP3    H112873   6.151   3.090   2.786  0.0990 -0.8298 -0.1467
 4289TIP3    H212874   6.245   3.034   2.682  0.8400  1.4813 -0.7786
 4290TIP3   OH212875   0.693   1.225   2.396  0.1013 -0.0519  0.0856
 4290TIP3    H112876   0.645   1.143   2.400 -2.0130  1.1330  0.4045
 4290TIP3    H212877   0.785   1.199   2.388 -0.4924 -2.4161  0.3237
 4291TIP3   OH212878   2.427   2.235   0.770  0.1388  0.4636 -0.2273
 4291TIP3    H112879   2.482   2.233   0.848  1.5065  1.1320 -1.1336
 4291TIP3    H212880   2.480   2.194   0.702 -2.0540 -2.7052 -0.2694
 4292TIP3   OH212881   0.853   5.944   4.111 -0.4529  0.1173 -0.9286
 4292TIP3    H112882   0.840   5.886   4.187 -1.3136  1.2124 -0.2027
 4292TIP3    H212883   0.844   5.887   4.035 -1.8382 -0.6177 -0.2496
 4293TIP3   OH212884   1.847   3.661   4.303 -0.1897  0.0479 -0.0804
 4293TIP3    H112885   1.907   3.626   4.368 -0.8404 -1.8021 -0.4164
 4293TIP3    H212886   1.888   3.641   4.219  0.3826  1.9382 -0.3123
 4294TIP3   OH212887   5.955   5.864   3.843 -0.1689 -0.0306  0.3292
 4294TIP3    H112888   5.921   5.848   3.931  0.2443 -0.4748  0.4183
 4294TIP3    H212889   5.878   5.870   3.787 -0.5315 -5.2259 -0.2376
 4295TIP3   OH212890   2.433   4.651   5.064 -0.0162  0.0003  0.5565
 4295TIP3    H112891   2.428   4.613   4.976  3.1212 -0.4451  0.4646
 4295TIP3    H212892   2.374   4.597   5.117 -0.7246 -0.7318 -0.9240
 4296TIP3   OH212893   2.343   2.248   5.088  0.4292  0.2980  0.7876
 4296TIP3    H112894   2.413   2.306   5.060  0.3660 -0.1723 -0.3682
 4296TIP3    H212895   2.265   2.304   5.092  0.3585  0.3054 -0.3745
 4297TIP3   OH212896   5.952   1.254   1.892  0.1734 -0.2286  0.0148
 4297TIP3    H112897   5.865   1.214   1.889 -0.5617  1.3398 -1.1606
 4297TIP3    H212898   5.954   1.301   1.975 -0.6386  0.8036 -0.5261
 4298TIP3   OH212899   5.306   4.925   1.400  0.4456 -0.1933  0.4685
 4298TIP3    H112900   5.279   4.962   1.484 -0.4876 -1.6214  0.8351
 4298TIP3    H212901   5.299   4.831   1.412  3.0222 -0.5502 -0.3488
 4299TIP3   OH212902   5.249   4.123   4.899  0.5231 -0.1290  0.3603
 4299TIP3    H112903   5.213   4.043   4.937 -0.5037  0.4724  0.7053
 4299TIP3    H212904   5.300   4.094   4.824 -0.7805 -1.0330 -0.2158
 4300TIP3   OH212905   4.158   1.318   0.982  0.4190 -0.2890  0.0542
 4300TIP3    H112906   4.230   1.257   0.994  0.0859 -0.6676  0.1497
 4300TIP3    H212907   4.189   1.400   1.021  0.7134 -0.5065  0.2827
 4301TIP3   OH212908   4.198   2.193   5.096  0.1239  0.4621  0.1484
 4301TIP3    H112909   4.279   2.162   5.137  0.9088  2.7529  0.5044
 4301TIP3    H212910   4.228   2.254   5.028 -1.2943  0.2981 -0.6608
 4302TIP3   OH212911   6.204   1.767   3.363 -0.0671  0.0345 -0.0525
 4302TIP3    H112912   6.275   1.714   3.400  1.1638  0.3300 -1.8124
 4302TIP3    H212913   6.221   1.856   3.393  0.4006  0.1201 -0.5426
 4303TIP3   OH212914   2.743   1.662   0.331 -0.1744  0.1597  0.1562
 4303TIP3    H112915   2.681   1.721   0.288 -0.1579  1.1384  1.4211
 4303TIP3    H212916   2.689   1.592   0.368 -0.6313  1.2566  1.6658
 4304TIP3   OH212917   2.830   2.602   3.783  0.1643 -0.1916  0.0859
 4304TIP3    H112918   2.771   2.632   3.852 -1.1334  0.3102 -1.1729
 4304TIP3    H212919   2.894   2.672   3.774 -0.7975  0.6507 -0.4784
 4305TIP3   OH212920   0.033   2.433   1.154  0.0530 -0.1487  0.7253
 4305TIP3    H112921   0.089   2.357   1.138  1.5695  0.8066  1.2993
 4305TIP3    H212922  -0.024   2.406   1.226 -1.2834 -1.6376 -0.8100
 4306TIP3   OH212923   2.167   2.432   3.863 -0.3747 -0.2574  0.8576
 4306TIP3    H112924   2.188   2.359   3.920 -1.4256 -0.3053  1.1921
 4306TIP3    H212925   2.151   2.392   3.777  0.7461 -0.2295  0.6172
 4307TIP3   OH212926   2.377   0.430   3.305  0.0387  0.0504 -0.4435
 4307TIP3    H112927   2.303   0.444   3.246  0.9230  2.6332 -1.0650
 4307TIP3    H212928   2.342   0.448   3.392  0.0335  1.8817 -0.7955
 4308TIP3   OH212929   3.789   3.658   4.472  0.2438 -0.8610  0.2397
 4308TIP3    H112930   3.821   3.568   4.483  0.8683 -0.7316 -0.4390
 4308TIP3    H212931   3.764   3.685   4.560  0.4230 -1.5626  0.5160
 4309TIP3   OH212932   1.482   0.199   3.017  0.2601  0.4817 -0.1609
 4309TIP3    H112933   1.512   0.145   2.943 -1.1150 -1.1537  0.4061
 4309TIP3    H212934   1.425   0.264   2.978 -1.7840 -1.3733 -0.4888
 4310TIP3   OH212935   3.578   4.977   1.546 -0.1987 -0.0542 -0.4322
 4310TIP3    H112936   3.487   4.978   1.516 -0.0414  1.2672 -0.9112
 4310TIP3    H212937   3.629   4.995   1.467  0.5066 -1.0381 -0.2144
 4311TIP3   OH212938   3.462   4.613   3.934  0.1174 -0.0968 -0.5170
 4311TIP3    H112939   3.500   4.672   3.868  0.1931 -0.2591 -0.6196
 4311TIP3    H212940   3.454   4.529   3.889  2.7005 -0.9588  0.4545
 4312TIP3   OH212941   1.197   2.689   5.005  0.4457  0.3852 -0.5508
 4312TIP3    H112942   1.134   2.751   4.968  2.6212  2.2114 -1.3955
 4312TIP3    H212943   1.222   2.728   5.088 -0.8134 -1.2689  0.6691
 4313TIP3   OH212944   0.697   0.229   2.217 -0.2852 -0.4281  0.2941
 4313TIP3    H112945   0.628   0.188   2.269 -0.8772 -1.4341 -1.2103
 4313TIP3    H212946   0.657   0.309   2.183 -1.0206 -1.3539 -1.1462
 4314TIP3   OH212947   6.157   3.171   2.274  0.2367  0.0501  0.9344
 4314TIP3    H112948   6.088   3.200   2.334  0.6527 -0.1738  1.5253
 4314TIP3    H212949   6.236   3.216   2.305  0.4020  0.1575  0.3773
 4315TIP3   OH212950   0.330   3.509   0.344 -0.0967  0.3204 -0.0249
 4315TIP3    H112951   0.335   3.481   0.253 -1.4955 -0.9205  0.2381
 4315TIP3    H212952   0.273   3.585   0.343  2.0851  2.0490 -0.4825
 4316TIP3   OH212953   0.366   1.570   1.448 -0.6142  0.2279  0.2197
 4316TIP3    H112954   0.333   1.616   1.371 -2.3337 -0.3572  0.5698
 4316TIP3    H212955   0.294   1.513   1.475 -0.1348  0.5479  2.3521
 4317TIP3   OH212956   3.202   2.649   4.421 -0.4140  0.1651 -0.2959
 4317TIP3    H112957   3.179   2.557   4.405  0.1380  0.1540 -1.1024
 4317TIP3    H212958   3.248   2.648   4.505  1.3010 -0.6197 -1.1749
 4318TIP3   OH212959   4.719   3.524   3.929 -0.1864  0.1589  0.4062
 4318TIP3    H112960   4.700   3.432   3.913 -1.6543  0.2013  1.7102
 4318TIP3    H212961   4.734   3.530   4.023 -0.5865  1.3198  0.4141
 4319TIP3   OH212962   0.153   2.721   4.329 -0.2032 -0.0718  0.1394
 4319TIP3    H112963   0.194   2.687   4.249  0.0094  0.4442  0.0251
 4319TIP3    H212964   0.226   2.731   4.390 -0.4369 -0.9435  0.5716
 4320TIP3   OH212965   5.100   0.235   3.871  0.0113 -0.2425  0.4939
 4320TIP3    H112966   5.053   0.165   3.826 -2.3365  1.5648 -0.0450
 4320TIP3    H212967   5.157   0.190   3.933 -2.7744 -2.6267  1.5054
 4321TIP3   OH212968   4.282   2.634   4.991 -0.5737 -0.0197 -0.2127
 4321TIP3    H112969   4.281   2.545   4.956 -1.8279 -0.3415  0.6005
 4321TIP3    H212970   4.334   2.684   4.928 -0.8440 -1.0705 -1.2958
 4322TIP3   OH212971   3.274   5.268   0.939  0.4152 -0.3877 -0.0696
 4322TIP3    H112972   3.317   5.340   0.893  0.5291  0.3476  1.1486
 4322TIP3    H212973   3.185   5.299   0.955  0.3020 -0.7405 -0.0092
 4323TIP3   OH212974   5.009   4.242   4.785  0.0348 -0.3826  0.3986
 4323TIP3    H112975   4.977   4.331   4.797  0.4266 -0.0567 -0.8105
 4323TIP3    H212976   5.082   4.234   4.847  0.3744  0.3356  0.0980
 4324TIP3   OH212977   6.275   2.910   2.439  0.4009  0.1408 -0.1810
 4324TIP3    H112978   6.334   2.918   2.364 -0.5567  2.5200 -0.7761
 4324TIP3    H212979   6.319   2.960   2.509 -0.0522  0.3836 -0.0678
 4325TIP3   OH212980   0.740   4.187   1.736  0.4818  0.2156 -0.6261
 4325TIP3    H112981   0.723   4.180   1.642  1.5340 -0.5437 -0.7876
 4325TIP3    H212982   0.815   4.129   1.751  1.0369  1.1675  0.4923
 4326TIP3   OH212983   5.831   2.805   1.677 -0.2659 -0.5995  0.0184
 4326TIP3    H112984   5.888   2.729   1.688 -0.0535 -0.3837  0.4305
 4326TIP3    H212985   5.874   2.857   1.609 -0.2719 -0.7191 -0.0762
 4327TIP3   OH212986   5.529   2.591   0.022 -0.2163 -0.3130 -0.4608
 4327TIP3    H112987   5.469   2.636   0.082 -0.5551 -2.3114  0.7829
 4327TIP3    H212988   5.616   2.601   0.063 -0.2313 -0.4115 -0.4032
 4328TIP3   OH212989   5.731   4.603   1.616  0.2606 -0.0449 -0.5435
 4328TIP3    H112990   5.824   4.621   1.624  0.2550  0.7636 -2.0463
 4328TIP3    H212991   5.724   4.509   1.632  1.5717 -0.4457 -2.0606
 4329TIP3   OH212992   5.939   0.326   0.361 -0.3408  0.0719 -0.0278
 4329TIP3    H112993   6.007   0.283   0.310  0.4191  0.5245  0.5676
 4329TIP3    H212994   5.976   0.331   0.449 -1.4028 -0.2154  0.4487
 4330TIP3   OH212995   2.545   3.234   0.969  0.4756  0.1494  0.1388
 4330TIP3    H112996   2.509   3.158   0.923 -1.0111 -0.8171  2.6673
 4330TIP3    H212997   2.504   3.310   0.926  0.8689 -0.5414 -1.5015
 4331TIP3   OH212998   2.605   5.198   0.532 -0.2677  0.3105 -0.4848
 4331TIP3    H112999   2.621   5.168   0.622 -0.1171  2.0157  0.0893
 4331TIP3    H213000   2.667   5.148   0.479 -0.8938 -1.2943  0.2272
 4332TIP3   OH213001   2.542   2.170   4.217  0.0903  0.8302  0.1734
 4332TIP3    H113002   2.613   2.179   4.280 -1.0667 -0.9123  1.8073
 4332TIP3    H213003   2.542   2.078   4.193 -2.1617  0.5561  0.9460
 4333TIP3   OH213004   5.666   5.853   0.381 -0.4424  0.5510  0.0184
 4333TIP3    H113005   5.721   5.806   0.444  0.3922 -1.7532 -2.2397
 4333TIP3    H213006   5.708   5.938   0.371  1.4649 -0.3467  0.0069
 4334TIP3   OH213007   1.760   4.941   1.898  0.2228 -0.1718  0.3706
 4334TIP3    H113008   1.842   4.904   1.932  1.5472  1.4489 -0.9021
 4334TIP3    H213009   1.759   5.031   1.929 -0.8726 -0.0466  0.0127
 4335TIP3   OH213010   5.373   5.303   1.662 -0.8827  0.3055  0.1737
 4335TIP3    H113011   5.295   5.345   1.626 -1.1967 -0.0925  0.3880
 4335TIP3    H213012   5.401   5.360   1.733 -1.4349  0.0421  0.6033
 4336TIP3   OH213013   4.083   2.752   1.351  0.5760  0.0395  0.4078
 4336TIP3    H113014   4.011   2.690   1.357  1.0793 -0.4711  1.3704
 4336TIP3    H213015   4.130   2.727   1.272 -1.4880  1.7144 -1.4746
 4337TIP3   OH213016   3.973   0.473   3.743 -0.4307  0.0330 -0.2876
 4337TIP3    H113017   4.047   0.469   3.804  0.4841  1.2852 -1.2531
 4337TIP3    H213018   3.896   0.467   3.798  0.3827 -0.6970  0.8122
 4338TIP3   OH213019   2.708   1.948   2.016 -0.1582 -0.9377 -0.2795
 4338TIP3    H113020   2.625   1.930   1.973 -1.2047 -3.2702  2.4273
 4338TIP3    H213021   2.770   1.888   1.974 -0.6126 -1.5234 -0.1175
 4339TIP3   OH213022   3.460   2.738   3.236  0.1488 -0.4371  0.4936
 4339TIP3    H113023   3.408   2.697   3.305 -1.0055  0.1218 -0.0163
 4339TIP3    H213024   3.411   2.817   3.213  1.4818  0.3754  0.3246
 4340TIP3   OH213025   2.932   4.769   0.167  0.2339 -0.3193 -0.2391
 4340TIP3    H113026   3.003   4.716   0.132 -0.0904 -0.0043 -1.4074
 4340TIP3    H213027   2.946   4.856   0.130 -2.2709 -0.8462 -2.8180
 4341TIP3   OH213028   0.499   1.624   3.373  0.1476 -0.2288  0.1459
 4341TIP3    H113029   0.572   1.591   3.321  1.2784 -0.6843  1.9323
 4341TIP3    H213030   0.424   1.569   3.348  1.2531 -2.1017  0.7586
 4342TIP3   OH213031   3.296   1.597   2.038 -0.3514 -0.8187  0.2370
 4342TIP3    H113032   3.225   1.658   2.058 -0.0521 -0.3934  0.0342
 4342TIP3    H213033   3.366   1.653   2.003 -0.4256 -1.3893 -0.8757
 4343TIP3   OH213034   4.011   2.898   3.654 -0.3406 -0.5307  0.1910
 4343TIP3    H113035   3.970   2.984   3.666 -0.9583 -0.8756  0.6264
 4343TIP3    H213036   3.949   2.836   3.693 -0.2402 -1.2544 -0.7469
 4344TIP3   OH213037   1.755   1.270   2.133  0.3021  0.0896 -0.5674
 4344TIP3    H113038   1.741   1.196   2.074 -0.2400 -1.1524  1.0604
 4344TIP3    H213039   1.677   1.272   2.189  1.2377  0.5836  0.7728
 4345TIP3   OH213040   2.210   5.596   0.552 -0.8695 -0.0120  0.5892
 4345TIP3    H113041   2.127   5.569   0.512 -0.7099  0.8597 -0.3754
 4345TIP3    H213042   2.243   5.664   0.494  0.1791  0.1523  1.3571
 4346TIP3   OH213043   0.702   0.020   2.510  0.0700  0.2725 -0.4435
 4346TIP3    H113044   0.741   0.058   2.589  0.1331  1.4721 -1.0244
 4346TIP3    H213045   0.626   0.076   2.491 -1.5445 -1.5694  0.2407
 4347TIP3   OH213046   3.986   4.951   2.988 -0.4350 -0.5848  0.1623
 4347TIP3    H113047   3.992   4.991   2.901 -1.2916  2.3482  1.3154
 4347TIP3    H213048   4.071   4.909   3.001 -0.5230 -1.7240 -2.3029
 4348TIP3   OH213049   1.595   5.069   2.745 -0.4667  0.1900  0.0135
 4348TIP3    H113050   1.681   5.036   2.720 -0.5110 -0.1160  0.2642
 4348TIP3    H213051   1.573   5.022   2.825  0.0235  1.7544  1.1061
 4349TIP3   OH213052   0.317   5.859   1.262 -0.3658 -0.3593 -0.5193
 4349TIP3    H113053   0.280   5.908   1.335 -0.0728 -0.9995  0.0758
 4349TIP3    H213054   0.409   5.846   1.286 -0.5499 -1.6146 -0.4156
 4350TIP3   OH213055   5.501   1.958   0.968  0.6572 -0.2756  0.2642
 4350TIP3    H113056   5.419   1.947   1.017  1.5239 -2.0137  1.3945
 4350TIP3    H213057   5.570   1.932   1.029  2.1269  1.3998 -0.5704
 4351TIP3   OH213058   2.423   1.013   2.430  0.9443  0.3894 -0.3223
 4351TIP3    H113059   2.514   0.991   2.410  1.4310  1.3060  0.8018
 4351TIP3    H213060   2.405   0.968   2.512  0.9895  1.6856  0.4207
 4352TIP3   OH213061   5.478   4.445   1.349  0.1292  0.2068  0.1808
 4352TIP3    H113062   5.468   4.352   1.371  1.6869 -0.0054  0.0816
 4352TIP3    H213063   5.470   4.448   1.253  1.1646  0.0121  0.0836
 4353TIP3   OH213064   4.492   0.441   0.943 -0.1807 -0.1255 -0.3422
 4353TIP3    H113065   4.411   0.390   0.931 -0.4031 -0.1237  1.0821
 4353TIP3    H213066   4.538   0.396   1.013  1.7359 -0.9199 -2.0047
 4354TIP3   OH213067   4.010   4.928   1.841  0.2953  0.1049 -0.3919
 4354TIP3    H113068   3.926   4.891   1.814 -0.2747  0.9119  0.2316
 4354TIP3    H213069   4.025   4.893   1.928  0.0250  0.8785 -0.0255
 4355TIP3   OH213070   2.370   3.830   4.501 -0.1443  0.4293  0.0251
 4355TIP3    H113071   2.430   3.756   4.487 -0.1947  0.5774 -1.0613
 4355TIP3    H213072   2.341   3.854   4.413  0.5635  2.3271  0.2680
 4356TIP3   OH213073   1.422   2.725   1.247  0.4083  0.1657  0.2293
 4356TIP3    H113074   1.338   2.742   1.290  0.0051  0.5912 -0.7097
 4356TIP3    H213075   1.462   2.655   1.300 -1.2025 -1.1370 -0.1875
 4357TIP3   OH213076   2.435   5.793   4.424 -0.2485  0.1031 -0.1727
 4357TIP3    H113077   2.389   5.741   4.358  0.8939 -0.7659 -0.3153
 4357TIP3    H213078   2.517   5.818   4.382  0.1366  0.2165  0.6348
 4358TIP3   OH213079   0.588   0.962   3.696  0.1480  0.0774  0.1806
 4358TIP3    H113080   0.550   1.036   3.743 -1.1450 -0.3475 -0.1525
 4358TIP3    H213081   0.618   0.903   3.764 -2.3687 -0.8716  0.5765
 4359TIP3   OH213082   3.507   2.043   2.814  0.0890 -0.5145 -0.2908
 4359TIP3    H113083   3.422   2.078   2.789  0.0094  0.4086  1.1395
 4359TIP3    H213084   3.487   1.962   2.861  0.0219 -0.4728 -0.2476
 4360TIP3   OH213085   0.144   1.028   0.515  0.7567 -0.4587  0.0936
 4360TIP3    H113086   0.050   1.038   0.502  1.0218  0.0195 -1.8130
 4360TIP3    H213087   0.181   1.112   0.486  1.7822 -0.7123  0.6330
 4361TIP3   OH213088   3.507   0.717   0.945 -0.0554  0.0181 -0.2670
 4361TIP3    H113089   3.505   0.624   0.968 -3.1542  0.2540  0.8894
 4361TIP3    H213090   3.579   0.752   0.997  1.3556 -1.7303 -0.9306
 4362TIP3   OH213091   1.047   2.901   2.387  0.0841 -0.0337 -0.5043
 4362TIP3    H113092   0.977   2.840   2.364  0.3346  0.0330 -1.5217
 4362TIP3    H213093   1.062   2.951   2.306  0.5020  0.7532  0.0468
 4363TIP3   OH213094   1.725   4.294   4.568 -0.0023  0.5724  0.1698
 4363TIP3    H113095   1.802   4.347   4.546  0.8118 -0.9778 -0.8846
 4363TIP3    H213096   1.707   4.316   4.660  2.1151  0.5019  0.6632
 4364TIP3   OH213097   6.269   4.618   2.502 -0.2708  0.5633  0.0419
 4364TIP3    H113098   6.315   4.617   2.586 -1.3303 -0.5441  0.6413
 4364TIP3    H213099   6.313   4.551   2.450 -1.4684 -0.8919  0.8094
 4365TIP3   OH213100   1.278   5.640   1.887 -0.0085  0.4974  0.2279
 4365TIP3    H113101   1.192   5.640   1.929 -1.1663  1.7734 -1.9527
 4365TIP3    H213102   1.269   5.577   1.815  0.3858  1.6211 -0.8464
 4366TIP3   OH213103   1.200   3.823   0.024  0.4761 -0.5146 -0.0286
 4366TIP3    H113104   1.203   3.892   0.091 -0.1870 -0.1906 -0.3304
 4366TIP3    H213105   1.218   3.869  -0.058  2.4442 -1.0818  0.0305
 4367TIP3   OH213106   5.677   3.194   4.735  0.2045 -0.4007 -0.0892
 4367TIP3    H113107   5.751   3.234   4.689 -0.1540  0.0140 -0.3034
 4367TIP3    H213108   5.668   3.107   4.695  1.2576 -0.8916  0.6661
 4368TIP3   OH213109   6.124   3.691   4.028 -0.0193  0.4725  0.3708
 4368TIP3    H113110   6.148   3.759   3.965 -0.5426  0.5417  0.2388
 4368TIP3    H213111   6.030   3.704   4.042  0.1181  0.5163  1.2503
 4369TIP3   OH213112   2.865   2.561   0.808  0.2099 -0.0032 -0.1810
 4369TIP3    H113113   2.928   2.520   0.749  1.0289  1.2594 -0.2087
 4369TIP3    H213114   2.902   2.547   0.895 -1.0511 -1.9600  0.1037
 4370TIP3   OH213115   4.339   4.495   3.498  0.3276  0.2560  0.2287
 4370TIP3    H113116   4.325   4.402   3.517 -2.4434  0.7968  1.2738
 4370TIP3    H213117   4.311   4.541   3.577  0.4826  2.0481 -0.6909
 4371TIP3   OH213118   2.238   4.564   1.062 -0.2613 -0.7352  0.0699
 4371TIP3    H113119   2.311   4.622   1.083  0.0405  0.1723 -2.9652
 4371TIP3    H213120   2.171   4.622   1.027  0.0506 -2.0329 -3.1125
 4372TIP3   OH213121   4.830   1.479   0.833 -0.3636 -0.2523  0.0848
 4372TIP3    H113122   4.799   1.460   0.921 -3.1221 -1.2069 -0.9637
 4372TIP3    H213123   4.838   1.392   0.792 -0.8761  0.2305 -1.0943
 4373TIP3   OH213124   0.747   0.378   0.474  0.3290 -0.0583  0.0736
 4373TIP3    H113125   0.709   0.291   0.470 -1.4707  0.6116  1.0358
 4373TIP3    H213126   0.837   0.367   0.444  0.1620 -2.2346  0.2124
 4374TIP3   OH213127   1.320   0.665   0.782  0.1159 -0.2245 -0.3623
 4374TIP3    H113128   1.233   0.627   0.767  0.4892 -1.8823  1.2827
 4374TIP3    H213129   1.305   0.759   0.789 -1.3872 -0.3873 -1.0888
 4375TIP3   OH213130   0.778   2.595   0.062  0.0567  0.3298 -0.3684
 4375TIP3    H113131   0.828   2.534   0.007 -0.0014 -1.2857  1.2815
 4375TIP3    H213132   0.727   2.538   0.120 -0.8842  1.9703  0.4666
 4376TIP3   OH213133   2.675   0.098   0.851 -0.0672 -0.1134 -0.2810
 4376TIP3    H113134   2.612   0.032   0.825 -1.1614  0.7230  0.1709
 4376TIP3    H213135   2.630   0.150   0.918  1.7219 -0.5656  1.3618
 4377TIP3   OH213136   4.828   2.671   3.096  0.5340 -0.2627 -0.1027
 4377TIP3    H113137   4.789   2.598   3.047 -0.7844 -0.5602  1.3073
 4377TIP3    H213138   4.843   2.739   3.030 -1.2508 -0.6088 -0.9217
 4378TIP3   OH213139   4.732   0.542   0.812  0.2093  0.8124  0.3605
 4378TIP3    H113140   4.782   0.554   0.893 -1.2018  0.2868  1.3514
 4378TIP3    H213141   4.648   0.505   0.841 -1.0796  2.4075 -1.1655
 4379TIP3   OH213142   2.286   3.158   1.119 -0.8298  0.1962  0.7704
 4379TIP3    H113143   2.283   3.187   1.028  1.3321  1.0186  0.8958
 4379TIP3    H213144   2.286   3.062   1.113 -1.2090  0.2344 -0.0518
 4380TIP3   OH213145   3.374   5.823   4.461 -0.1191  0.2285  0.0302
 4380TIP3    H113146   3.388   5.742   4.510  0.8285  0.7938  0.7204
 4380TIP3    H213147   3.279   5.824   4.444 -0.0230 -1.5177 -0.9021
 4381TIP3   OH213148   2.831   5.658   1.067  0.0148 -0.0651 -0.1762
 4381TIP3    H113149   2.852   5.608   1.147  0.5158 -0.3210 -0.4575
 4381TIP3    H213150   2.810   5.746   1.099  2.1496  0.4036  0.1295
 4382TIP3   OH213151   0.365   3.025   2.952 -0.0104  0.0811  0.5887
 4382TIP3    H113152   0.349   2.989   3.040  0.8519 -2.1390 -0.0784
 4382TIP3    H213153   0.287   3.001   2.903  1.9292 -4.4729 -0.8141
 4383TIP3   OH213154   5.457   4.850   0.975  0.0349  0.4654  0.3178
 4383TIP3    H113155   5.395   4.904   0.926 -1.0871  0.9552  2.1675
 4383TIP3    H213156   5.477   4.902   1.053  1.4639 -0.4324  0.5935
 4384TIP3   OH213157   1.830   0.189   3.388 -0.6188 -0.3919 -0.2533
 4384TIP3    H113158   1.781   0.219   3.311  0.2574 -2.2681 -1.6361
 4384TIP3    H213159   1.834   0.265   3.445 -2.9835  0.5222 -1.1838
 4385TIP3   OH213160   6.114   4.196   0.638  0.1332  0.0185  0.3413
 4385TIP3    H113161   6.053   4.227   0.571  0.4618  2.6412  1.1560
 4385TIP3    H213162   6.088   4.105   0.653 -1.8245  0.2471 -1.2434
 4386TIP3   OH213163   5.265   0.031   2.052 -0.0095  0.4732 -0.2572
 4386TIP3    H113164   5.230   0.062   2.136  1.9691 -0.8468  1.1705
 4386TIP3    H213165   5.202  -0.034   2.022 -0.3426  0.3599  0.6633
 4387TIP3   OH213166   1.280   5.784   0.591 -0.2470  0.4004  0.1342
 4387TIP3    H113167   1.239   5.776   0.505 -0.1326 -0.6941  0.1620
 4387TIP3    H213168   1.371   5.806   0.573  0.0606 -0.9421 -0.1024
 4388TIP3   OH213169   1.424   4.076   3.814 -0.4898 -0.8466  0.8364
 4388TIP3    H113170   1.370   4.021   3.871 -0.2718 -2.0808 -0.1207
 4388TIP3    H213171   1.456   4.145   3.872 -3.3125  0.1432  1.4001
 4389TIP3   OH213172   0.594   3.557   4.736  0.1929 -0.0172  0.0229
 4389TIP3    H113173   0.558   3.642   4.712  0.2825 -0.3538 -1.3917
 4389TIP3    H213174   0.623   3.519   4.653 -1.7135 -2.3107  0.3137
 4390TIP3   OH213175   1.422   5.688   4.502  0.2290  0.2851  0.4334
 4390TIP3    H113176   1.455   5.604   4.536 -1.4266 -0.6934 -0.2561
 4390TIP3    H213177   1.501   5.736   4.477  1.2040 -1.7153 -0.6193
 4391TIP3   OH213178   4.012   3.040   3.993  0.3689  0.3635  0.3728
 4391TIP3    H113179   3.943   3.053   3.928  1.3978 -0.3957 -0.9134
 4391TIP3    H213180   3.971   2.985   4.060 -0.8657  1.5922  0.6719
 4392TIP3   OH213181   5.556   5.268   0.864  0.3761  0.3571 -0.5694
 4392TIP3    H113182   5.629   5.239   0.920 -0.0861 -1.2702 -0.7637
 4392TIP3    H213183   5.570   5.362   0.854  0.7088  0.6529  1.9477
 4393TIP3   OH213184   5.115   4.961   3.218 -0.2097 -0.1504 -0.2044
 4393TIP3    H113185   5.201   4.952   3.177  0.0171  0.2278  0.1770
 4393TIP3    H213186   5.054   4.964   3.144 -0.0255 -1.6238 -0.4445
 4394TIP3   OH213187   0.836   1.715   2.247 -0.0078 -0.5602 -0.0176
 4394TIP3    H113188   0.905   1.656   2.216 -0.7229 -1.1459 -0.5437
 4394TIP3    H213189   0.786   1.664   2.310  1.4248  0.6232  2.2344
 4395TIP3   OH213190   6.131   1.018   2.938  0.4402  0.4683 -0.3946
 4395TIP3    H113191   6.041   1.014   2.970  0.6489 -0.6821  0.0950
 4395TIP3    H213192   6.179   1.066   3.006  0.1244  1.4683 -0.8634
 4396TIP3   OH213193   0.836   4.015   3.160  0.7342  0.3818 -0.0760
 4396TIP3    H113194   0.838   3.935   3.107  1.8882  0.0336  0.4685
 4396TIP3    H213195   0.784   4.076   3.108 -0.6187 -0.8767 -0.2673
 4397TIP3   OH213196   1.690   0.287   3.174  0.2805 -0.1161 -0.3594
 4397TIP3    H113197   1.637   0.208   3.161  2.6605 -1.9475  0.2605
 4397TIP3    H213198   1.648   0.332   3.248 -0.8884 -1.0017 -0.4507
 4398TIP3   OH213199   4.659   5.780   3.148 -0.0826 -0.0705  0.4216
 4398TIP3    H113200   4.599   5.849   3.178  0.4785  0.1764  0.9893
 4398TIP3    H213201   4.710   5.758   3.225  0.6329 -0.2057 -0.0834
 4399TIP3   OH213202   6.290   0.771   2.862 -0.0651 -0.1390 -0.2913
 4399TIP3    H113203   6.273   0.717   2.940  0.5176  1.2919  0.8776
 4399TIP3    H213204   6.220   0.836   2.861 -0.9665 -1.0727 -1.8957
 4400TIP3   OH213205   1.736   2.129   1.240  0.2812  0.7184 -0.4732
 4400TIP3    H113206   1.693   2.214   1.244  0.1717  0.6145  1.9382
 4400TIP3    H213207   1.829   2.151   1.225  0.5147  1.4164  1.6589
 4401TIP3   OH213208   5.702   0.162   4.246  0.0384 -0.1653 -0.4487
 4401TIP3    H113209   5.663   0.159   4.158 -1.4200  1.0527  0.1024
 4401TIP3    H213210   5.735   0.251   4.254 -1.6477  0.3853  0.9274
 4402TIP3   OH213211   4.585   4.312   4.341 -0.2446  0.6250 -0.1971
 4402TIP3    H113212   4.663   4.262   4.365 -0.8924  0.2575  1.2809
 4402TIP3    H213213   4.549   4.266   4.266 -0.2490 -0.5420  0.4915
 4403TIP3   OH213214   3.653   5.486   0.972 -0.4993 -0.3037  0.0108
 4403TIP3    H113215   3.642   5.415   0.909 -1.7426 -2.0104  2.0511
 4403TIP3    H213216   3.748   5.497   0.980 -0.2910 -1.6785 -0.4040
 4404TIP3   OH213217   0.086   2.833   2.058  0.0312 -0.4847 -0.7825
 4404TIP3    H113218   0.033   2.898   2.011 -0.4541 -1.1038 -1.0964
 4404TIP3    H213219   0.059   2.842   2.149  0.5017  0.2622 -0.7011
 4405TIP3   OH213220   1.217   3.186   4.739  0.6700  0.3208  0.4112
 4405TIP3    H113221   1.167   3.265   4.723 -1.6124 -1.4675 -2.2894
 4405TIP3    H213222   1.172   3.143   4.812 -1.0147 -0.5835 -1.0790
 4406TIP3   OH213223   4.872   0.692   3.451 -0.5013 -0.3927 -0.1163
 4406TIP3    H113224   4.883   0.724   3.361 -1.2236 -0.3406 -0.1963
 4406TIP3    H213225   4.886   0.770   3.505 -2.3232  0.1137 -0.3150
 4407TIP3   OH213226   0.414   5.710   3.018  0.4720  0.3975  0.3410
 4407TIP3    H113227   0.425   5.746   2.930  0.9377 -2.2481 -0.7816
 4407TIP3    H213228   0.338   5.652   3.010  0.7817 -0.2034  1.5668
 4408TIP3   OH213229   3.848   0.809   3.759 -0.1980 -0.2553  0.2908
 4408TIP3    H113230   3.797   0.772   3.687  2.2035 -0.6366 -1.2941
 4408TIP3    H213231   3.842   0.904   3.746 -1.0975 -0.2516  0.6033
 4409TIP3   OH213232   0.381   2.574   3.445  0.4651 -0.3550  0.0979
 4409TIP3    H113233   0.380   2.561   3.350 -0.1634  0.3082  0.0023
 4409TIP3    H213234   0.296   2.541   3.475  0.2627  0.3249  0.2933
 4410TIP3   OH213235   4.388   3.243   0.849  0.0597  0.1563  0.6102
 4410TIP3    H113236   4.348   3.326   0.873  0.4806  0.0998  1.5684
 4410TIP3    H213237   4.473   3.244   0.893  0.5606 -0.2846 -0.3166
 4411TIP3   OH213238   6.304   5.292   4.095 -0.6430  1.1553 -0.6911
 4411TIP3    H113239   6.292   5.379   4.134 -1.5189  1.3347 -1.2958
 4411TIP3    H213240   6.391   5.294   4.057 -1.2615  2.4074 -2.1551
 4412TIP3   OH213241   3.329   4.069   1.126  0.8487  0.5487  0.3082
 4412TIP3    H113242   3.342   3.974   1.135  0.0917  0.3644 -0.4296
 4412TIP3    H213243   3.297   4.097   1.212 -2.3644 -0.4932 -0.4012
 4413TIP3   OH213244   2.985   3.571   3.928  0.3569 -0.5215  0.2197
 4413TIP3    H113245   3.068   3.548   3.887 -0.0950 -0.6914 -0.6247
 4413TIP3    H213246   2.979   3.514   4.004  0.2992 -1.6032 -0.5755
 4414TIP3   OH213247   1.807   0.739   4.255 -0.5693  0.2453  0.1319
 4414TIP3    H113248   1.884   0.724   4.309  0.9110  1.4535 -1.5518
 4414TIP3    H213249   1.741   0.773   4.316  0.6604  0.4839  1.3627
 4415TIP3   OH213250   3.127   4.737   3.730 -0.3204  0.1581  0.2907
 4415TIP3    H113251   3.132   4.729   3.634  2.3510  0.7465  0.3043
 4415TIP3    H213252   3.179   4.814   3.751 -0.9075  0.0784  2.2506
 4416TIP3   OH213253   2.439   4.924   4.070 -0.3158  0.7832  0.3567
 4416TIP3    H113254   2.531   4.945   4.055 -0.2533  0.6065  0.4934
 4416TIP3    H213255   2.415   4.867   3.997  0.9483 -3.0353  2.6379
 4417TIP3   OH213256   4.000   1.795   3.024  0.2949  0.8594 -0.4279
 4417TIP3    H113257   4.026   1.888   3.028  0.5462  0.7488  0.9009
 4417TIP3    H213258   3.937   1.784   3.095  1.6781 -0.3883  0.6838
 4418TIP3   OH213259   4.608   1.854   5.024 -0.0246  0.1441  0.3879
 4418TIP3    H113260   4.557   1.934   5.010 -0.6203 -0.2764  0.1438
 4418TIP3    H213261   4.543   1.784   5.030  0.5539 -0.6097 -1.3135
 4419TIP3   OH213262   3.253   4.469   1.833 -0.0632 -0.1885 -0.2316
 4419TIP3    H113263   3.258   4.457   1.928  1.5698  1.8510 -0.0018
 4419TIP3    H213264   3.161   4.490   1.816  0.2156  2.7192  1.3953
 4420TIP3   OH213265   5.132   4.400   5.166 -0.5255 -0.4420  0.2313
 4420TIP3    H113266   5.191   4.452   5.112 -0.8493  0.6419  0.8948
 4420TIP3    H213267   5.060   4.459   5.187 -0.9140 -1.1684  0.9990
 4421TIP3   OH213268   6.198   5.288   0.150  0.1664 -0.3512  0.4225
 4421TIP3    H113269   6.108   5.295   0.117 -0.2725  0.1073  1.6205
 4421TIP3    H213270   6.247   5.248   0.079 -0.7796  0.2995 -0.6350
 4422TIP3   OH213271   1.318   5.489   3.956 -0.1900  0.2252 -0.1836
 4422TIP3    H113272   1.379   5.488   3.882  0.6698 -1.1562  0.5116
 4422TIP3    H213273   1.373   5.478   4.033 -1.3408 -2.2955  0.4037
 4423TIP3   OH213274   2.269   0.393   4.538 -0.0758  0.2546 -0.3507
 4423TIP3    H113275   2.309   0.326   4.483  0.3270 -1.5782  2.0120
 4423TIP3    H213276   2.183   0.407   4.499  1.2025  1.2203 -3.0840
 4424TIP3   OH213277   1.014   1.056   1.612  0.8428 -0.1611 -0.2700
 4424TIP3    H113278   1.028   1.150   1.620 -0.4420 -0.0549  1.2686
 4424TIP3    H213279   0.933   1.049   1.560  0.1469 -0.3397  0.8050
 4425TIP3   OH213280   5.555   4.831   3.284 -0.3722 -0.2512  0.3093
 4425TIP3    H113281   5.501   4.896   3.238 -1.3990 -0.4155  1.2117
 4425TIP3    H213282   5.492   4.766   3.314  0.4248 -0.7718  0.8875
 4426TIP3   OH213283   0.340   1.134   2.903 -0.0964  0.3018 -0.2807
 4426TIP3    H113284   0.256   1.176   2.919 -0.4797 -0.6182  0.1652
 4426TIP3    H213285   0.318   1.048   2.870  0.6554 -0.1573  0.3717
 4427TIP3   OH213286   0.498   2.744   2.399  0.8620 -0.5974  0.2706
 4427TIP3    H113287   0.444   2.760   2.476  2.0987  1.1449  0.8536
 4427TIP3    H213288   0.515   2.650   2.401 -1.7366 -1.1349  0.2822
 4428TIP3   OH213289   0.873   3.194   1.912  0.0025  0.1286 -0.2715
 4428TIP3    H113290   0.789   3.170   1.872 -0.4460  1.4189 -0.1609
 4428TIP3    H213291   0.937   3.137   1.870 -0.8364 -0.4019 -0.8602
 4429TIP3   OH213292   0.539   2.132   0.604 -0.0491  0.1419  0.0154
 4429TIP3    H113293   0.480   2.177   0.665 -0.9302 -1.0076  0.0461
 4429TIP3    H213294   0.596   2.079   0.660 -1.3801 -1.5380 -0.1281
 4430TIP3   OH213295   5.333   5.153   0.435 -0.1937  0.6057 -0.4353
 4430TIP3    H113296   5.424   5.175   0.454  0.0582 -0.7433 -0.0370
 4430TIP3    H213297   5.328   5.058   0.442 -1.2957  0.5095 -1.9314
 4431TIP3   OH213298   3.296   1.205   1.144  0.7461  0.4428  0.1802
 4431TIP3    H113299   3.295   1.109   1.134 -0.2880  0.2212  1.9483
 4431TIP3    H213300   3.349   1.236   1.071 -0.8450 -1.2920 -1.8312
 4432TIP3   OH213301   3.600   1.477   1.089 -0.1652  0.8400  0.4198
 4432TIP3    H113302   3.673   1.534   1.110 -0.3675  0.6770  1.6106
 4432TIP3    H213303   3.640   1.401   1.047  0.1274  1.7135 -0.9459
 4433TIP3   OH213304   4.799   2.032   1.614  0.2261 -0.3713 -0.2576
 4433TIP3    H113305   4.712   2.069   1.631  0.5505  0.2607  0.0595
 4433TIP3    H213306   4.860   2.100   1.643  0.8287 -0.2131 -1.7566
 4434TIP3   OH213307   0.781   5.925   4.801  0.0748  0.5815  0.3516
 4434TIP3    H113308   0.760   6.014   4.829 -1.2185  0.8248 -1.2007
 4434TIP3    H213309   0.695   5.884   4.787  0.6332 -0.0763 -1.3617
 4435TIP3   OH213310   3.936   3.124   2.482 -0.2052 -0.1441  0.2684
 4435TIP3    H113311   3.847   3.118   2.447 -1.4081 -1.0080  3.1667
 4435TIP3    H213312   3.969   3.034   2.478  1.3496  0.4523 -2.4918
 4436TIP3   OH213313   1.494   2.787   0.762  0.0668 -1.1489  0.2265
 4436TIP3    H113314   1.448   2.828   0.835 -0.6082 -1.4842  0.0014
 4436TIP3    H213315   1.567   2.740   0.802  0.3849 -0.3879  0.5649
 4437TIP3   OH213316   4.739   4.857   3.995 -0.1461  0.2097 -0.0956
 4437TIP3    H113317   4.810   4.792   3.994 -1.1582 -1.0239  2.0874
 4437TIP3    H213318   4.662   4.809   4.024 -1.3437  2.0526 -0.0363
 4438TIP3   OH213319   1.883   0.424   0.751 -0.6016  0.2526  0.0332
 4438TIP3    H113320   1.882   0.470   0.667 -0.8854 -0.5689 -0.4311
 4438TIP3    H213321   1.831   0.478   0.809 -0.7653  0.6136 -0.4418
 4439TIP3   OH213322   1.503   4.629   3.916 -0.4031  0.3799 -0.0127
 4439TIP3    H113323   1.493   4.709   3.864 -0.3899  0.8949  0.7738
 4439TIP3    H213324   1.440   4.639   3.987 -0.9546 -0.6662 -0.3326
 4440TIP3   OH213325   5.327   1.303   2.175  0.0656 -0.2078  0.5332
 4440TIP3    H113326   5.282   1.240   2.119 -0.0528  0.9042 -0.6631
 4440TIP3    H213327   5.394   1.251   2.219  1.2069 -0.8628 -1.8073
 4441TIP3   OH213328   1.613   3.420   2.562 -0.0095 -0.1971  0.1297
 4441TIP3    H113329   1.575   3.488   2.506 -0.7260 -1.0300 -0.4410
 4441TIP3    H213330   1.689   3.389   2.514  0.1469 -0.0070  0.2519
 4442TIP3   OH213331   0.759   0.274   4.756 -0.2496 -0.3713 -0.3268
 4442TIP3    H113332   0.780   0.353   4.805  0.0301  0.4446 -1.7076
 4442TIP3    H213333   0.818   0.207   4.791  1.3652  0.7014 -0.9131
 4443TIP3   OH213334   1.421   2.485   2.532  0.0411 -0.6496 -0.0261
 4443TIP3    H113335   1.460   2.522   2.611 -1.1111  0.8510 -0.1201
 4443TIP3    H213336   1.328   2.475   2.553 -0.2014 -0.6374 -1.0323
 4444TIP3   OH213337   2.993   4.411   4.083  0.7992 -0.2254 -0.0305
 4444TIP3    H113338   2.908   4.405   4.127  1.1295 -1.5286  0.4610
 4444TIP3    H213339   3.014   4.504   4.084 -0.8304  0.1889 -0.5697
 4445TIP3   OH213340   5.276   2.800   3.445 -0.4187  0.1148 -0.0617
 4445TIP3    H113341   5.258   2.894   3.446  1.0535  0.4346  2.0666
 4445TIP3    H213342   5.349   2.791   3.384 -0.6341  0.3085 -0.3560
 4446TIP3   OH213343   4.286   3.855   4.878  0.4882 -0.3041  0.5366
 4446TIP3    H113344   4.379   3.839   4.896  0.6182  0.9661  1.1376
 4446TIP3    H213345   4.267   3.802   4.801  2.3089  1.1371 -0.9978
 4447TIP3   OH213346   4.443   1.184   4.858 -0.8609  0.1522  0.0804
 4447TIP3    H113347   4.472   1.265   4.900  0.3146  0.4198 -1.1795
 4447TIP3    H213348   4.522   1.129   4.856 -1.3328 -0.5251 -0.2260
 4448TIP3   OH213349   1.965   4.343   4.462 -0.1018 -0.5557  0.1180
 4448TIP3    H113350   2.010   4.259   4.461  1.8299  0.4365 -0.7381
 4448TIP3    H213351   2.027   4.405   4.423 -2.0190  1.0011 -0.6449
 4449TIP3   OH213352   5.232   0.082   0.767  0.0833 -0.3937 -0.0109
 4449TIP3    H113353   5.194   0.079   0.855  0.3829 -0.9045  0.1046
 4449TIP3    H213354   5.298   0.013   0.767  0.7315  0.2092 -0.3436
 4450TIP3   OH213355   5.624   5.068   1.732 -0.1669  0.2476  0.4517
 4450TIP3    H113356   5.670   5.013   1.669 -1.0502  0.8333 -0.7602
 4450TIP3    H213357   5.532   5.045   1.722 -0.5447  1.7782  0.0432
 4451TIP3   OH213358   0.860   0.763   2.891  0.1190  0.1217 -0.1922
 4451TIP3    H113359   0.791   0.793   2.832 -0.3103 -0.2626  0.1053
 4451TIP3    H213360   0.938   0.811   2.864 -0.1278  0.1166 -0.9188
 4452TIP3   OH213361   2.937   2.973   4.587 -0.0237 -0.0900 -0.4822
 4452TIP3    H113362   2.951   2.939   4.498 -2.9030 -1.5077 -0.4955
 4452TIP3    H213363   2.874   3.044   4.576  0.8599  0.8286  0.2788
 4453TIP3   OH213364   1.403   4.048   2.296  0.2539 -0.4207 -0.1717
 4453TIP3    H113365   1.495   4.047   2.323  0.2866 -2.8375 -0.1428
 4453TIP3    H213366   1.355   4.023   2.375 -0.3355 -0.1674 -0.4434
 4454TIP3   OH213367   5.841   4.592   3.406  0.3752 -0.0697 -0.0231
 4454TIP3    H113368   5.922   4.543   3.403 -0.3157 -1.2017 -1.0766
 4454TIP3    H213369   5.778   4.538   3.359 -0.8388  1.0653  0.2237
 4455TIP3   OH213370   3.736   2.859   4.567  0.2220  0.3513  0.2810
 4455TIP3    H113371   3.652   2.853   4.612  0.5371  0.8824  0.9515
 4455TIP3    H213372   3.767   2.948   4.584  0.2597  0.6380 -1.1686
 4456TIP3   OH213373   3.905   2.404   1.018  0.2358  0.7295  0.2116
 4456TIP3    H113374   3.976   2.446   0.969 -0.1172  0.6738 -0.3567
 4456TIP3    H213375   3.826   2.451   0.992  0.0983  1.0050  1.0917
 4457TIP3   OH213376   3.697   3.744   1.014  0.5703 -0.3322 -0.7613
 4457TIP3    H113377   3.778   3.717   1.057  0.1614 -0.0269  0.2128
 4457TIP3    H213378   3.627   3.710   1.070  0.0271 -0.1366 -1.3122
 4458TIP3   OH213379   1.153   5.493   3.222  0.2085  0.3010 -0.4651
 4458TIP3    H113380   1.207   5.439   3.165 -0.8444 -1.1506 -0.1408
 4458TIP3    H213381   1.077   5.517   3.168 -1.2677 -1.8776  0.5313
 4459TIP3   OH213382   1.060   4.082   4.074 -0.3092 -0.1560 -0.0907
 4459TIP3    H113383   1.123   4.028   4.027  1.3710 -1.1510  3.0584
 4459TIP3    H213384   1.099   4.170   4.072 -0.4771 -0.0886 -0.8615
 4460TIP3   OH213385   4.417   1.653   5.063 -0.1679  0.0508  0.2038
 4460TIP3    H113386   4.367   1.640   5.144 -1.6062 -1.9435 -0.9061
 4460TIP3    H213387   4.471   1.575   5.056  0.8456  0.7763 -0.1794
 4461TIP3   OH213388   3.500   3.836   3.372  0.0295  0.2236 -0.2396
 4461TIP3    H113389   3.420   3.852   3.322 -0.9442  0.4306  1.3220
 4461TIP3    H213390   3.564   3.895   3.333 -1.2295  1.8200 -0.0197
 4462TIP3   OH213391   4.811   1.915   0.735  0.0508  0.4460 -0.0636
 4462TIP3    H113392   4.858   1.963   0.667 -1.8905  0.1418 -1.7426
 4462TIP3    H213393   4.788   1.981   0.800  1.0324  0.9540 -0.2188
 4463TIP3   OH213394   3.950   1.682   4.370  0.2504  0.1759 -0.3271
 4463TIP3    H113395   3.962   1.777   4.374  0.4834  0.2169 -1.6503
 4463TIP3    H213396   3.870   1.670   4.319  0.8998 -0.3520 -1.2431
 4464TIP3   OH213397   2.438   0.307   4.132 -0.0044 -0.1084  0.1028
 4464TIP3    H113398   2.469   0.385   4.178  1.2822  0.4686 -1.6594
 4464TIP3    H213399   2.505   0.241   4.150 -0.1451 -0.2589  0.0779
 4465TIP3   OH213400   3.507   4.618   2.504 -0.7361  0.0523 -0.3606
 4465TIP3    H113401   3.531   4.525   2.512  0.0544  0.3498  1.2772
 4465TIP3    H213402   3.585   4.660   2.469 -1.7470 -0.1370 -3.0123
 4466TIP3   OH213403   1.413   3.867   1.226 -0.2185 -0.2590 -0.8762
 4466TIP3    H113404   1.475   3.899   1.160  0.7828 -0.9654 -0.2984
 4466TIP3    H213405   1.390   3.779   1.195 -1.8577  0.4145 -1.6998
 4467TIP3   OH213406   0.076   5.233   2.150  0.2166 -0.2793 -0.6051
 4467TIP3    H113407  -0.005   5.214   2.104 -0.0248  1.9389 -1.2262
 4467TIP3    H213408   0.048   5.268   2.235  0.5304  0.1639 -0.6809
 4468TIP3   OH213409   3.451   4.015   4.324  0.0015 -0.1189  0.0870
 4468TIP3    H113410   3.534   3.970   4.338 -0.1497 -0.2851  0.4762
 4468TIP3    H213411   3.445   4.026   4.229  0.9674  0.8584  0.1284
 4469TIP3   OH213412   5.445   1.162   3.884 -0.0967  0.6296  0.1630
 4469TIP3    H113413   5.361   1.207   3.876  0.1712  1.1890  0.4235
 4469TIP3    H213414   5.495   1.217   3.945  0.9712  1.0692 -1.0801
 4470TIP3   OH213415   4.720   4.873   1.358  0.2135  0.4824  0.0349
 4470TIP3    H113416   4.793   4.935   1.360  0.4509  0.3268 -1.9281
 4470TIP3    H213417   4.749   4.804   1.298 -1.4645  0.3160 -0.6391
 4471TIP3   OH213418   5.934   5.563   3.753 -0.1354 -0.1061 -0.2271
 4471TIP3    H113419   6.029   5.573   3.761 -0.1109 -1.0602  1.0988
 4471TIP3    H213420   5.922   5.497   3.685  0.1492 -0.0718 -0.3115
 4472TIP3   OH213421   0.663   0.336   1.661  0.1365 -0.3480 -0.4965
 4472TIP3    H113422   0.593   0.298   1.713 -0.4550  0.3566 -0.7650
 4472TIP3    H213423   0.743   0.316   1.710 -0.0995 -2.2213 -0.7975
 4473TIP3   OH213424   0.134   0.367   5.006 -0.2959 -0.7110 -0.7859
 4473TIP3    H113425   0.158   0.445   4.956  1.9575  0.4649  1.8689
 4473TIP3    H213426   0.129   0.297   4.940 -0.0105  1.1980 -2.9481
 4474TIP3   OH213427   0.048   1.688   1.002 -0.3044 -0.5522 -0.1999
 4474TIP3    H113428   0.122   1.712   0.946 -0.8863  1.5176 -0.1916
 4474TIP3    H213429  -0.028   1.695   0.945 -1.1133  3.2503  1.0649
 4475TIP3   OH213430   6.313   5.193   0.578  0.4992  0.0194  0.8985
 4475TIP3    H113431   6.269   5.177   0.661 -2.8228 -0.5686 -0.8021
 4475TIP3    H213432   6.269   5.270   0.541  1.6717  0.0934 -0.4540
 4476TIP3   OH213433   1.459   5.354   1.804  0.2382 -0.1981 -0.1194
 4476TIP3    H113434   1.473   5.448   1.790 -0.9424 -0.2817 -2.2239
 4476TIP3    H213435   1.370   5.339   1.774  0.8173 -2.2037 -0.9787
 4477TIP3   OH213436   4.184   4.590   3.745 -0.7174 -0.9982  0.5286
 4477TIP3    H113437   4.095   4.567   3.771 -2.1356  1.6496 -1.4149
 4477TIP3    H213438   4.207   4.666   3.800  0.5954 -1.9545  1.3610
 4478TIP3   OH213439   2.561   3.411   1.186  0.4709  0.4428 -0.4668
 4478TIP3    H113440   2.655   3.402   1.197  0.7336  2.7020 -0.5004
 4478TIP3    H213441   2.537   3.339   1.127  2.0108 -0.6552  0.1800
 4479TIP3   OH213442   2.210   4.866   3.373  0.3696  0.3231 -0.0055
 4479TIP3    H113443   2.231   4.850   3.282  0.6776  1.2928 -0.1148
 4479TIP3    H213444   2.120   4.835   3.383  0.7564 -0.9596 -0.3048
 4480TIP3   OH213445   3.670   3.757   1.850 -0.0849 -0.0298  0.4021
 4480TIP3    H113446   3.677   3.683   1.789  2.0183  0.0208  0.5297
 4480TIP3    H213447   3.578   3.783   1.844  0.1412  0.4764 -3.3424
 4481TIP3   OH213448   0.760   3.884   2.396 -0.1168  0.4446  0.2962
 4481TIP3    H113449   0.820   3.813   2.418 -0.5356  0.1755  0.5616
 4481TIP3    H213450   0.718   3.908   2.479 -0.7068  0.3312  0.0349
 4482TIP3   OH213451   4.485   4.027   0.102  0.7826  0.1939 -0.4310
 4482TIP3    H113452   4.393   4.032   0.076  0.7675 -2.3251 -1.0617
 4482TIP3    H213453   4.534   4.056   0.024  0.5958 -3.2262 -1.9895
 4483TIP3   OH213454   3.197   3.263   1.675  0.3956  0.1648  0.2806
 4483TIP3    H113455   3.198   3.312   1.758  0.6226 -0.9926  0.9736
 4483TIP3    H213456   3.157   3.180   1.696  1.9038 -0.7824 -0.4012
 4484TIP3   OH213457   0.157   5.942   4.835  0.0278 -0.0050 -0.0867
 4484TIP3    H113458   0.082   6.001   4.850 -0.4974 -0.4309 -0.9660
 4484TIP3    H213459   0.160   5.932   4.740  0.7044 -0.6445 -0.0012
 4485TIP3   OH213460   1.494   3.618   2.423 -0.0753 -0.9427 -0.2537
 4485TIP3    H113461   1.494   3.604   2.328 -0.7269  3.5030 -1.0921
 4485TIP3    H213462   1.405   3.597   2.449 -0.9152  1.0496 -1.3250
 4486TIP3   OH213463   1.470   5.886   2.923  0.1092 -0.3616 -0.2158
 4486TIP3    H113464   1.421   5.813   2.960  0.8090 -0.5962  0.2687
 4486TIP3    H213465   1.519   5.922   2.997 -2.3694  2.4278  0.2643
 4487TIP3   OH213466   4.046   1.679   5.055  0.1340  0.1717  0.2432
 4487TIP3    H113467   4.039   1.655   4.963  1.6309 -0.6660  0.3257
 4487TIP3    H213468   4.007   1.606   5.103  3.6982 -1.8130  0.4407
 4488TIP3   OH213469   4.866   2.320   0.575 -0.3171  0.1612 -0.2506
 4488TIP3    H113470   4.892   2.367   0.496 -0.9145 -0.2497 -0.6944
 4488TIP3    H213471   4.773   2.339   0.586 -0.3831 -0.2785  0.0033
 4489TIP3   OH213472   2.351   0.649   0.263 -0.3494  0.0945 -0.2823
 4489TIP3    H113473   2.423   0.589   0.283 -0.3300  0.0403 -0.5085
 4489TIP3    H213474   2.282   0.592   0.229 -1.7998 -0.3318  3.0761
 4490TIP3   OH213475   6.080   0.918   3.470 -0.2717  0.3089  0.8796
 4490TIP3    H113476   6.041   0.986   3.415 -0.1878 -1.2132 -1.2120
 4490TIP3    H213477   6.010   0.894   3.531 -1.1015  0.6677  0.1017
 4491TIP3   OH213478   4.456   0.048   3.001 -0.2063 -0.1326  0.2479
 4491TIP3    H113479   4.374   0.056   3.050  1.2253 -1.6032  3.1060
 4491TIP3    H213480   4.436  -0.015   2.932 -1.6984  0.2639  0.2729
 4492TIP3   OH213481   2.490   0.813   3.581  0.0191  0.1313  0.0945
 4492TIP3    H113482   2.437   0.735   3.598 -0.2236  0.3289  0.2512
 4492TIP3    H213483   2.532   0.795   3.497  0.3758 -0.3888  0.3806
 4493TIP3   OH213484   1.281   4.810   0.373  0.0452  0.0782  0.4327
 4493TIP3    H113485   1.209   4.807   0.309 -0.3543  2.1244  0.7243
 4493TIP3    H213486   1.347   4.866   0.331  1.4590 -1.6372  0.2389
 4494TIP3   OH213487   3.855   4.019   5.105  0.5747  0.3428  0.1074
 4494TIP3    H113488   3.898   3.934   5.101 -0.2150 -0.0827  0.2876
 4494TIP3    H213489   3.797   4.013   5.181 -0.0700  0.7502 -0.3405
 4495TIP3   OH213490   5.379   4.136   2.366  0.2881 -0.1612 -0.0512
 4495TIP3    H113491   5.314   4.100   2.307  2.0190 -1.3051 -1.3748
 4495TIP3    H213492   5.462   4.126   2.320  1.6001 -0.0637  2.1175
 4496TIP3   OH213493   3.441   4.376   3.785  0.3021 -0.5305  0.2767
 4496TIP3    H113494   3.450   4.287   3.750  0.0858 -0.8711  1.0807
 4496TIP3    H213495   3.347   4.393   3.781  0.1780 -0.8860  1.4451
 4497TIP3   OH213496   0.354   2.207   0.187  0.2870  0.1498 -0.0797
 4497TIP3    H113497   0.369   2.114   0.174  2.5777  0.5190 -0.4133
 4497TIP3    H213498   0.413   2.231   0.258  0.7260  1.6103 -0.9007
 4498TIP3   OH213499   5.529   5.544   0.773 -0.0418 -0.0981 -0.0652
 4498TIP3    H113500   5.515   5.513   0.684  0.6386  0.2167 -0.2874
 4498TIP3    H213501   5.508   5.637   0.770 -0.0624 -0.0965  0.1090
 4499TIP3   OH213502   2.181   5.637   2.687 -0.8883  0.5401 -0.1408
 4499TIP3    H113503   2.101   5.591   2.663 -0.5464  0.2252 -0.6863
 4499TIP3    H213504   2.240   5.568   2.717 -0.9270  0.8067  0.5801
 4500TIP3   OH213505   5.875   2.707   2.214 -0.4438  0.2835  0.4570
 4500TIP3    H113506   5.834   2.787   2.246 -1.2665  0.5729 -1.1923
 4500TIP3    H213507   5.806   2.642   2.214 -0.8260  0.5885 -1.6726
 4501TIP3   OH213508   5.612   3.058   3.784 -0.9002  0.2892  0.0901
 4501TIP3    H113509   5.668   3.135   3.796 -0.0304 -0.0117 -1.7225
 4501TIP3    H213510   5.670   2.983   3.800  0.0223 -0.1083 -3.9733
 4502TIP3   OH213511   5.676   3.398   3.204  0.1690  0.3398  0.5266
 4502TIP3    H113512   5.707   3.452   3.277  0.1250  1.0485  0.0394
 4502TIP3    H213513   5.648   3.462   3.138  0.3460 -0.2877 -0.1701
 4503TIP3   OH213514   1.268   5.146   4.552  0.3624 -0.4743 -0.0845
 4503TIP3    H113515   1.251   5.079   4.485 -2.5788 -0.1792  0.2104
 4503TIP3    H213516   1.196   5.208   4.542  0.8106  0.5249  2.2181
 4504TIP3   OH213517   3.090   5.106   1.881 -0.2913  0.4893  0.8675
 4504TIP3    H113518   3.004   5.146   1.892 -0.6780 -0.3502  0.8969
 4504TIP3    H213519   3.102   5.052   1.958 -0.6774 -1.1000 -0.1394
 4505TIP3   OH213520   5.527   5.946   2.088 -0.5351 -0.2686  0.6075
 4505TIP3    H113521   5.610   5.902   2.104  0.3542  1.1385  0.0967
 4505TIP3    H213522   5.518   5.946   1.993 -0.0638  1.3759  0.5320
 4506TIP3   OH213523   3.667   1.158   2.168  0.4375  0.6923  0.7753
 4506TIP3    H113524   3.693   1.203   2.248  1.8099  1.7195 -0.1988
 4506TIP3    H213525   3.713   1.205   2.098 -0.5768 -0.2846 -0.6028
 4507TIP3   OH213526   2.625   1.883   4.382  0.3507  0.1158 -0.1032
 4507TIP3    H113527   2.651   1.804   4.428  1.0976  1.0301  1.0923
 4507TIP3    H213528   2.696   1.945   4.397 -0.6086  1.3037 -0.2780
 4508TIP3   OH213529   0.917   5.528   3.467  0.5165 -0.5910  0.0885
 4508TIP3    H113530   0.895   5.510   3.376  0.3785 -0.0719  0.0168
 4508TIP3    H213531   1.004   5.568   3.464 -0.3412  1.3682 -0.0140
 4509TIP3   OH213532   2.889   5.410   2.617  0.5323 -0.1363 -0.0220
 4509TIP3    H113533   2.956   5.424   2.550  1.5653 -3.8782 -0.0019
 4509TIP3    H213534   2.830   5.344   2.579 -1.1089  0.4779  1.3211
 4510TIP3   OH213535   1.189   3.415   2.954 -0.2601 -0.2669 -0.3048
 4510TIP3    H113536   1.260   3.453   3.007 -0.0387  0.8629 -1.3742
 4510TIP3    H213537   1.111   3.465   2.979 -0.3287 -0.3209 -0.4104
 4511TIP3   OH213538   3.015   4.457   4.491  0.0942  0.4848 -0.4484
 4511TIP3    H113539   2.923   4.454   4.467  0.2268  0.0585 -0.9433
 4511TIP3    H213540   3.017   4.437   4.584 -0.3757  1.3326 -0.2469
 4512TIP3   OH213541   4.206   2.507   4.484 -0.0399  0.4939  0.4441
 4512TIP3    H113542   4.152   2.517   4.562 -0.4933  0.9787  0.0764
 4512TIP3    H213543   4.250   2.592   4.474  0.9757  0.0347  0.8667
 4513TIP3   OH213544   2.556   4.032   5.152  0.2216  0.2366  0.5237
 4513TIP3    H113545   2.471   3.989   5.138  1.6168 -2.3850 -0.6903
 4513TIP3    H213546   2.595   3.984   5.225  1.6301 -0.3303 -0.5392
 4514TIP3   OH213547   1.702   4.889   1.634 -0.1981 -0.0125 -0.1953
 4514TIP3    H113548   1.625   4.832   1.627  0.3849 -0.7354 -0.9105
 4514TIP3    H213549   1.710   4.907   1.727 -0.5875 -0.8459  0.0061
 4515TIP3   OH213550   1.172   3.660   0.538 -0.2364  0.6979 -0.2459
 4515TIP3    H113551   1.251   3.606   0.536  0.3405  1.4622  0.7923
 4515TIP3    H213552   1.202   3.746   0.568 -1.6216  0.6593  1.4404
 4516TIP3   OH213553   5.022   2.643   3.460 -0.2306 -0.0504 -0.2964
 4516TIP3    H113554   5.040   2.567   3.515  0.5427  0.2344 -0.1518
 4516TIP3    H213555   5.102   2.695   3.464  0.0715 -0.2963 -2.1359
 4517TIP3   OH213556   4.872   4.781   0.316  0.6143 -0.4164  0.0959
 4517TIP3    H113557   4.904   4.704   0.269 -1.4250 -0.9068 -0.5717
 4517TIP3    H213558   4.816   4.827   0.253 -0.7380 -0.1147  1.4536
 4518TIP3   OH213559   2.822   5.568   1.713 -0.2905  0.7768  0.5267
 4518TIP3    H113560   2.822   5.490   1.658 -1.2735  1.1404 -0.0146
 4518TIP3    H213561   2.743   5.560   1.767  0.0354  1.0008  1.0474
 4519TIP3   OH213562   0.168   3.478   2.250 -0.3288  0.0478  0.2602
 4519TIP3    H113563   0.148   3.459   2.159 -0.8887  1.2770  0.1102
 4519TIP3    H213564   0.254   3.521   2.247 -0.5280  0.4503  0.2657
 4520TIP3   OH213565   5.362   2.375   3.728  0.0082  0.3750  0.1715
 4520TIP3    H113566   5.340   2.401   3.639 -0.7684  1.0355  0.5427
 4520TIP3    H213567   5.287   2.402   3.781  0.8020  0.7450  1.1608
 4521TIP3   OH213568   1.404   3.693   4.022  0.4818 -0.2598  0.2913
 4521TIP3    H113569   1.408   3.712   4.116 -2.1911  0.4277  0.3590
 4521TIP3    H213570   1.333   3.631   4.013  1.2166 -0.9270 -1.2354
 4522TIP3   OH213571   5.602   5.086   2.247  0.5410 -0.0425 -0.0004
 4522TIP3    H113572   5.589   4.992   2.259 -0.7845  0.3061  1.8230
 4522TIP3    H213573   5.517   5.118   2.215  0.4715  0.7205  0.9002
 4523TIP3   OH213574   1.708   1.768   4.197 -0.3827 -0.1467  0.9914
 4523TIP3    H113575   1.704   1.715   4.277  0.4844 -1.3863  0.2617
 4523TIP3    H213576   1.716   1.858   4.227 -2.3811 -0.3394  2.2898
 4524TIP3   OH213577   3.092   5.422   1.795 -0.3062  0.2696 -0.1249
 4524TIP3    H113578   3.035   5.378   1.731 -0.6166 -2.1048  1.6687
 4524TIP3    H213579   3.156   5.356   1.820  3.1129  2.6863 -1.6457
 4525TIP3   OH213580   4.658   5.922   4.184  0.2460 -0.1195  0.1713
 4525TIP3    H113581   4.627   5.865   4.255 -0.3899  0.3017  0.2402
 4525TIP3    H213582   4.582   5.975   4.161  1.3930  2.4452  1.7995
 4526TIP3   OH213583   4.555   3.919   2.653 -0.5232 -0.4499 -0.3451
 4526TIP3    H113584   4.495   3.887   2.585 -1.2402 -0.8265  0.4531
 4526TIP3    H213585   4.599   3.840   2.685  1.0077 -0.0892 -1.4719
 4527TIP3   OH213586   0.847   5.283   4.273 -0.7989 -0.2170  0.0473
 4527TIP3    H113587   0.894   5.286   4.189 -0.4257 -2.3190  0.1380
 4527TIP3    H213588   0.805   5.369   4.279  2.2912  1.4955 -0.4425
 4528TIP3   OH213589   5.135   3.853   3.479 -0.0834  0.3147 -0.1401
 4528TIP3    H113590   5.181   3.909   3.416  0.6970 -1.2360 -1.0103
 4528TIP3    H213591   5.198   3.783   3.498 -0.4558  0.5293  2.0776
 4529TIP3   OH213592   4.822   4.615   4.203 -0.1217 -0.1684 -0.1532
 4529TIP3    H113593   4.849   4.551   4.269 -1.1470 -0.4729 -0.0174
 4529TIP3    H213594   4.775   4.565   4.138  1.8038 -0.0495 -1.7355
 4530TIP3   OH213595   1.874   3.051   4.339 -0.5164 -0.6825 -0.1301
 4530TIP3    H113596   1.949   3.046   4.279  0.3422 -0.5774  0.9037
 4530TIP3    H213597   1.802   3.084   4.285  0.9551  2.2666 -0.5165
 4531TIP3   OH213598   2.284   2.082   3.337  0.5008  0.3229 -0.0008
 4531TIP3    H113599   2.209   2.087   3.278  1.6718  1.0228 -1.5137
 4531TIP3    H213600   2.288   1.991   3.364 -0.1496  0.0099 -0.9185
 4532TIP3   OH213601   0.936   1.556   1.808  0.3007  0.5009  0.0811
 4532TIP3    H113602   0.850   1.579   1.842 -0.5872 -0.8942 -1.0886
 4532TIP3    H213603   0.978   1.507   1.878 -0.1532  0.5586  0.3953
 4533TIP3   OH213604   5.703   0.875   2.828 -0.4093 -0.3164 -0.0715
 4533TIP3    H113605   5.689   0.896   2.736  1.2207 -1.1479 -0.5311
 4533TIP3    H213606   5.696   0.780   2.833  0.9527 -0.4161  0.3643
 4534TIP3   OH213607   2.140   5.330   4.390 -0.1487 -0.5555 -0.4775
 4534TIP3    H113608   2.172   5.243   4.410 -0.4305 -0.4018  0.7357
 4534TIP3    H213609   2.088   5.319   4.310  0.7609 -1.2699 -0.9835
 4535TIP3   OH213610   3.678   0.131   3.745 -0.3336  0.4122 -0.1318
 4535TIP3    H113611   3.584   0.112   3.740 -0.3744 -0.0610  1.7361
 4535TIP3    H213612   3.683   0.221   3.774 -0.2510 -0.0908  1.4816
 4536TIP3   OH213613   0.800   1.367   1.582 -0.2018 -0.0042  0.2099
 4536TIP3    H113614   0.790   1.416   1.663  0.7803  1.1018 -0.3085
 4536TIP3    H213615   0.745   1.412   1.518 -0.3258 -0.3799  0.0435
 4537TIP3   OH213616   5.497   3.813   0.232  0.0552 -0.1255  0.1920
 4537TIP3    H113617   5.479   3.778   0.145 -0.3901 -1.3968  0.7658
 4537TIP3    H213618   5.411   3.822   0.273  0.2790  0.1413  0.6214
 4538TIP3   OH213619   3.669   0.346   1.787  0.3349  0.0238  0.1479
 4538TIP3    H113620   3.628   0.276   1.837  2.5956 -3.1397 -1.9993
 4538TIP3    H213621   3.599   0.409   1.772 -1.4852 -1.0161  3.3910
 4539TIP3   OH213622   3.797   3.113   0.199 -0.2479  0.1005  0.0383
 4539TIP3    H113623   3.860   3.186   0.197 -0.7684  0.5398 -1.1302
 4539TIP3    H213624   3.807   3.069   0.115  0.5613 -1.6556  1.0083
 4540TIP3   OH213625   3.108   0.985   1.712 -0.5512 -0.8500 -0.1437
 4540TIP3    H113626   3.196   0.949   1.697  0.2372  0.9074  0.0495
 4540TIP3    H213627   3.099   0.989   1.807 -0.4572 -0.1430 -0.1626
 4541TIP3   OH213628   2.815   5.139   4.373  0.4389 -0.5979 -0.2429
 4541TIP3    H113629   2.907   5.157   4.356  0.2500 -0.7896 -1.5448
 4541TIP3    H213630   2.799   5.053   4.334 -1.1500  0.9691 -3.4332
 4542TIP3   OH213631   6.025   1.549   3.849  0.1670  0.1984  0.2561
 4542TIP3    H113632   6.001   1.563   3.940 -0.6806  0.7841 -0.0535
 4542TIP3    H213633   6.050   1.456   3.845  1.1916  0.4168  1.2855
 4543TIP3   OH213634   0.291   3.301   3.905  0.1552 -0.0711  0.0168
 4543TIP3    H113635   0.233   3.348   3.965  0.6836 -0.5529  0.9233
 4543TIP3    H213636   0.336   3.370   3.855 -1.6814  0.3139 -1.2126
 4544TIP3   OH213637   2.846   0.365   4.353 -0.1203  0.3255  0.4710
 4544TIP3    H113638   2.827   0.442   4.299  0.5147  1.4053  1.7352
 4544TIP3    H213639   2.936   0.341   4.330 -0.4923 -0.3979 -0.3053
 4545TIP3   OH213640   1.670   3.438   0.299 -0.1256 -0.0631 -0.5219
 4545TIP3    H113641   1.589   3.475   0.264 -0.4235  0.7107  0.9053
 4545TIP3    H213642   1.739   3.486   0.254 -0.4633 -0.3012 -1.3064
 4546TIP3   OH213643   4.197   0.479   2.303 -0.5527 -0.4877 -0.1282
 4546TIP3    H113644   4.250   0.456   2.378 -0.8498  1.1870  0.6466
 4546TIP3    H213645   4.117   0.428   2.313 -0.2344 -0.9138  0.2295
 4547TIP3   OH213646   5.229   5.577   2.365  0.5019 -0.2498 -0.3074
 4547TIP3    H113647   5.273   5.544   2.287  0.2802  0.2076 -0.6319
 4547TIP3    H213648   5.241   5.672   2.362  2.7394 -0.3904  1.5976
 4548TIP3   OH213649   2.455   3.315   3.437  0.1842 -0.1032 -0.1412
 4548TIP3    H113650   2.468   3.228   3.474 -0.1878  0.0627  0.3993
 4548TIP3    H213651   2.376   3.347   3.481  1.5942  1.4341  1.3896
 4549TIP3   OH213652   4.323   2.738   2.605 -0.2310  0.7958  0.3672
 4549TIP3    H113653   4.410   2.707   2.626 -0.0209  1.4386  0.4829
 4549TIP3    H213654   4.304   2.702   2.518  0.0173  0.3994  0.4772
 4550TIP3   OH213655   0.102   5.965   3.926 -0.3676 -0.2407 -0.3726
 4550TIP3    H113656   0.072   5.997   3.840  0.0926 -1.4750 -1.0178
 4550TIP3    H213657   0.184   5.919   3.907 -0.7409 -1.3461  0.5938
 4551TIP3   OH213658   5.075   0.609   2.612  0.7818 -0.2195  0.0019
 4551TIP3    H113659   5.018   0.557   2.669 -1.1241  0.1795 -1.4066
 4551TIP3    H213660   5.099   0.549   2.541  0.0460  0.2561 -0.6839
 4552TIP3   OH213661   1.560   3.937   5.140 -0.4833  0.7058 -0.4105
 4552TIP3    H113662   1.540   3.959   5.048 -0.4837  1.3000 -0.2736
 4552TIP3    H213663   1.541   4.018   5.188  0.5138  0.7168 -0.0232
 4553TIP3   OH213664   1.556   1.568   4.949 -0.5164 -0.3504  0.0603
 4553TIP3    H113665   1.602   1.641   4.906 -1.2925  0.5872  0.7824
 4553TIP3    H213666   1.589   1.490   4.904  0.1513  0.4539 -0.9084
 4554TIP3   OH213667   4.411   4.174   1.788  0.0235 -0.1885 -0.0952
 4554TIP3    H113668   4.490   4.168   1.734  0.2721 -0.8543  0.3330
 4554TIP3    H213669   4.405   4.267   1.811  1.2229 -0.2804  0.6627
 4555TIP3   OH213670   5.863   1.046   1.072 -0.0418  0.2542 -0.3188
 4555TIP3    H113671   5.879   1.138   1.090  2.7247 -0.6133  2.6345
 4555TIP3    H213672   5.860   1.005   1.159 -1.0273 -2.4444 -1.5360
 4556TIP3   OH213673   6.100   4.167   1.762  0.1859 -0.5696  0.5973
 4556TIP3    H113674   6.061   4.211   1.838  1.1927  1.5822 -0.0315
 4556TIP3    H213675   6.111   4.076   1.790 -0.2406 -0.0289  2.7335
 4557TIP3   OH213676   4.830   1.272   3.568  0.2791  0.2551  0.0935
 4557TIP3    H113677   4.880   1.232   3.497 -1.6272 -0.9053 -0.6604
 4557TIP3    H213678   4.849   1.366   3.561  0.0777  0.1809 -2.0294
 4558TIP3   OH213679   5.707   5.515   4.199 -0.1173  0.1654 -0.0232
 4558TIP3    H113680   5.768   5.489   4.130  0.6014  1.5235  0.0737
 4558TIP3    H213681   5.622   5.518   4.155  0.2747  0.6827 -0.7726
 4559TIP3   OH213682   4.291   1.502   4.846 -0.0172  0.3907  0.0282
 4559TIP3    H113683   4.353   1.563   4.887  2.2852 -3.2982  2.6607
 4559TIP3    H213684   4.322   1.494   4.756  2.6752 -0.3866  0.9367
 4560TIP3   OH213685   2.690   0.580   1.943  0.4088  0.3648  0.0956
 4560TIP3    H113686   2.703   0.506   1.884  2.0475  0.3628  0.4066
 4560TIP3    H213687   2.722   0.656   1.894  2.2631  0.2904  1.1174
 4561TIP3   OH213688   3.697   4.569   4.961 -0.5038 -0.3511  0.1824
 4561TIP3    H113689   3.688   4.489   5.012  1.1158 -0.1603  0.8226
 4561TIP3    H213690   3.762   4.549   4.894  0.3317  0.5604  0.6891
 4562TIP3   OH213691   4.931   5.802   4.246 -0.1920 -0.9271 -0.1522
 4562TIP3    H113692   4.883   5.862   4.304 -0.3194 -0.5705 -0.6182
 4562TIP3    H213693   4.882   5.720   4.251 -0.7148 -0.6371 -0.4332
 4563TIP3   OH213694   2.127   2.839   2.380  0.0859 -0.3028  0.2394
 4563TIP3    H113695   2.122   2.878   2.293  0.6782 -1.5509 -0.3820
 4563TIP3    H213696   2.128   2.744   2.364  1.5950 -0.5394  1.5068
 4564TIP3   OH213697   4.910   0.871   3.144 -0.3158 -0.3152 -0.5241
 4564TIP3    H113698   4.973   0.861   3.216  1.0787 -1.0112 -1.7739
 4564TIP3    H213699   4.924   0.960   3.112  1.3721 -0.9882 -1.8923
 4565TIP3   OH213700   3.079   2.468   0.643 -0.4867  0.0457  0.1684
 4565TIP3    H113701   3.104   2.462   0.551 -2.6612 -2.3576 -0.3922
 4565TIP3    H213702   3.158   2.443   0.691 -0.1139 -1.7351 -1.2362
 4566TIP3   OH213703   1.980   1.845   3.029  1.0173  0.8058  0.6402
 4566TIP3    H113704   1.892   1.848   3.067  0.2906  0.0241 -0.8878
 4566TIP3    H213705   2.039   1.864   3.103 -0.4316  1.8072  1.6014
 4567TIP3   OH213706   5.483   3.825   4.181  0.5932 -0.5442 -0.1523
 4567TIP3    H113707   5.489   3.748   4.124 -0.0266  0.3935 -1.5441
 4567TIP3    H213708   5.389   3.841   4.189  0.4687 -2.0979  3.2518
 4568TIP3   OH213709   0.976   0.138   4.442  0.1450 -0.3347  0.2122
 4568TIP3    H113710   0.919   0.065   4.466 -0.5347 -0.1315 -0.7284
 4568TIP3    H213711   0.921   0.216   4.453  0.2423 -0.1353 -0.6773
 4569TIP3   OH213712   4.373   5.089   1.712  0.4514  0.5401  0.9964
 4569TIP3    H113713   4.352   5.001   1.741  1.3682  0.4734  1.4884
 4569TIP3    H213714   4.361   5.087   1.617 -0.9218  0.2950  1.1691
 4570TIP3   OH213715   0.782   2.657   2.961  0.2596 -0.5301 -0.1252
 4570TIP3    H113716   0.786   2.747   2.994  2.1337 -1.2938  2.0179
 4570TIP3    H213717   0.755   2.605   3.037  3.3931 -2.2353 -0.0178
 4571TIP3   OH213718   1.624   1.024   3.093 -0.6262  0.3963  0.2424
 4571TIP3    H113719   1.644   0.958   3.159 -0.8024 -2.4675 -2.3721
 4571TIP3    H213720   1.528   1.025   3.088 -0.6041 -0.5719 -0.9559
 4572TIP3   OH213721   3.588   2.864   0.562  0.1857 -0.0917  0.5437
 4572TIP3    H113722   3.510   2.810   0.571 -0.0260  0.2836  1.0267
 4572TIP3    H213723   3.593   2.884   0.468 -0.9967  0.8799  0.6627
 4573TIP3   OH213724   4.999   2.637   4.320  0.0007  0.3966  0.7177
 4573TIP3    H113725   5.033   2.655   4.408 -1.8167 -0.2223  1.5895
 4573TIP3    H213726   4.984   2.542   4.319  0.5186  0.3027 -0.4853
 4574TIP3   OH213727   5.672   1.998   0.478 -0.4489 -0.2971  0.1731
 4574TIP3    H113728   5.749   1.942   0.477 -0.7230 -0.7232  1.3837
 4574TIP3    H213729   5.606   1.948   0.525 -1.6217 -0.1115 -1.2053
 4575TIP3   OH213730   5.601   1.218   0.400 -0.1024 -0.0523  0.5915
 4575TIP3    H113731   5.556   1.258   0.326  1.1692 -0.9109 -0.7173
 4575TIP3    H213732   5.687   1.259   0.400 -0.6025  1.0803  2.6229
 4576TIP3   OH213733   2.005   4.731   1.008  0.3938  1.3099 -0.1320
 4576TIP3    H113734   2.014   4.823   1.033 -2.4491  1.7651 -0.3945
 4576TIP3    H213735   1.929   4.700   1.058 -0.4113 -0.0753 -2.0750
 4577TIP3   OH213736   5.157   0.606   2.967  0.1045 -0.0855  0.0270
 4577TIP3    H113737   5.251   0.590   2.967  0.2068  0.4559 -0.5667
 4577TIP3    H213738   5.149   0.701   2.975 -0.4230 -0.2258  1.2912
 4578TIP3   OH213739   4.954   2.125   0.315  0.3150 -0.2513  0.1385
 4578TIP3    H113740   4.922   2.135   0.226 -1.3644 -1.2682  0.5876
 4578TIP3    H213741   4.963   2.215   0.347  0.0584  0.0989 -0.7499
 4579TIP3   OH213742   3.876   5.252   1.245 -0.2733 -0.2672  0.4046
 4579TIP3    H113743   3.795   5.240   1.196  0.8246  1.7926 -2.1256
 4579TIP3    H213744   3.851   5.303   1.322 -1.7280 -1.9728  1.1505
 4580TIP3   OH213745   2.701   4.679   1.992 -0.6674  0.4236  0.7551
 4580TIP3    H113746   2.623   4.685   2.048 -1.2912  2.1300 -0.2316
 4580TIP3    H213747   2.768   4.641   2.049 -2.1543 -0.9425  1.6798
 4581TIP3   OH213748   5.677   5.250   3.991 -0.2851  0.3631 -0.7228
 4581TIP3    H113749   5.705   5.339   3.967 -0.5300  0.9091  0.8397
 4581TIP3    H213750   5.717   5.193   3.926  3.6874  1.1832  0.7549
 4582TIP3   OH213751   0.125   1.844   1.688 -0.2992 -0.3483 -0.2656
 4582TIP3    H113752   0.090   1.776   1.630 -1.3616 -0.6624  0.7253
 4582TIP3    H213753   0.080   1.832   1.771  1.2396  0.0622  0.6771
 4583TIP3   OH213754   5.052   0.585   3.737 -0.2732  0.0307 -0.0041
 4583TIP3    H113755   4.992   0.531   3.684 -0.4415  0.1375  0.0764
 4583TIP3    H213756   5.122   0.608   3.677 -0.7873  0.6859 -0.3672
 4584TIP3   OH213757   3.048   1.652   4.262 -0.0673  0.5024  0.1512
 4584TIP3    H113758   2.992   1.728   4.249 -0.6370  0.2034  0.8116
 4584TIP3    H213759   3.106   1.652   4.185 -1.5083  0.3570 -0.9922
 4585TIP3   OH213760   5.790   3.518   2.940 -0.8052  0.2180  0.2913
 4585TIP3    H113761   5.855   3.577   2.977 -1.3948  2.0357 -1.4075
 4585TIP3    H213762   5.706   3.555   2.966 -1.1988 -0.6559  0.3156
 4586TIP3   OH213763   5.464   5.174   2.554 -0.2976  0.4266  0.1516
 4586TIP3    H113764   5.553   5.174   2.591 -0.5739  0.9810  0.8297
 4586TIP3    H213765   5.442   5.081   2.545  0.6636  0.2713 -0.8184
 4587TIP3   OH213766   5.453   0.900   0.114  0.0398 -0.4632  0.1972
 4587TIP3    H113767   5.364   0.871   0.131  0.3884 -1.4732  0.4132
 4587TIP3    H213768   5.507   0.823   0.134  1.0847  0.5431  1.3906
 4588TIP3   OH213769   0.266   1.745   3.477  0.2560  0.1841 -0.0501
 4588TIP3    H113770   0.360   1.751   3.459  0.5482 -0.6963  1.0551
 4588TIP3    H213771   0.226   1.807   3.416  1.3998 -0.5689 -1.6384
 4589TIP3   OH213772   1.461   4.769   1.187  0.4008 -0.0609 -0.3144
 4589TIP3    H113773   1.452   4.696   1.249 -0.6490 -0.4704 -0.9208
 4589TIP3    H213774   1.486   4.843   1.242 -2.2943  0.0376  0.9260
 4590TIP3   OH213775   2.977   3.031  -0.028  0.0260  0.1635 -0.1739
 4590TIP3    H113776   2.977   2.983   0.055 -0.3667 -1.9353 -1.3115
 4590TIP3    H213777   2.894   3.079  -0.027 -1.1861 -1.8339 -0.3854
 4591TIP3   OH213778   5.839   3.909   3.872  0.0372  0.2560 -0.4758
 4591TIP3    H113779   5.867   3.874   3.787 -2.4200 -1.7951 -0.5514
 4591TIP3    H213780   5.764   3.966   3.851  0.5510  1.2099  0.1940
 4592TIP3   OH213781   4.831   0.312   4.706  0.5914 -0.1108  0.0142
 4592TIP3    H113782   4.828   0.224   4.667 -0.4612 -0.9349  1.8181
 4592TIP3    H213783   4.760   0.359   4.663  0.2283 -0.6168  0.0458
 4593TIP3   OH213784   1.204   5.887   5.093  0.0725 -0.2931  0.5673
 4593TIP3    H113785   1.183   5.892   5.186 -0.7596 -2.0459  0.5291
 4593TIP3    H213786   1.199   5.793   5.073 -1.7537  0.1883 -1.6517
 4594TIP3   OH213787   3.627   2.494   2.452 -0.0145 -0.3201  0.3900
 4594TIP3    H113788   3.602   2.411   2.411  1.5300 -0.3652 -0.5282
 4594TIP3    H213789   3.716   2.479   2.483  0.8721  1.4413 -1.1531
 4595TIP3   OH213790   6.273   3.635   0.402  0.4443 -0.2492 -0.2204
 4595TIP3    H113791   6.220   3.672   0.472  1.1953  0.9111 -0.2469
 4595TIP3    H213792   6.222   3.649   0.323 -0.3302 -1.4141  0.0371
 4596TIP3   OH213793   2.035   4.668   0.728  0.1808 -0.2261 -0.3724
 4596TIP3    H113794   1.965   4.731   0.711 -0.1209 -0.0149  1.3997
 4596TIP3    H213795   2.033   4.656   0.823  1.0446 -1.9785 -0.5351
 4597TIP3   OH213796   4.350   0.629   3.415  0.4432 -0.1453 -0.1421
 4597TIP3    H113797   4.405   0.550   3.417  0.6459 -0.0079 -0.3190
 4597TIP3    H213798   4.408   0.697   3.382  0.0868 -0.0591 -0.5871
 4598TIP3   OH213799   1.831   3.673   3.829  0.5469 -0.2301  0.5100
 4598TIP3    H113800   1.858   3.616   3.757 -0.2868  1.2982 -1.0742
 4598TIP3    H213801   1.751   3.633   3.863  1.4893 -1.5201  1.3317
 4599TIP3   OH213802   4.195   4.771   2.691  0.0407 -0.7341 -0.2647
 4599TIP3    H113803   4.286   4.800   2.681  0.1510 -0.3502  1.5247
 4599TIP3    H213804   4.189   4.692   2.636  2.1305 -2.1307  1.3366
 4600TIP3   OH213805   2.796   3.933   0.128 -0.5161  0.2053  0.3800
 4600TIP3    H113806   2.740   3.861   0.156 -0.6528  0.7646  1.5944
 4600TIP3    H213807   2.881   3.893   0.113 -0.6930 -0.2731  0.6342
 4601TIP3   OH213808   0.991   3.083   1.175 -0.1101  0.1032  0.7069
 4601TIP3    H113809   0.971   2.989   1.173  0.9798 -0.1404 -0.3266
 4601TIP3    H213810   1.026   3.098   1.262  1.3193 -0.8601  0.3594
 4602TIP3   OH213811   6.144   3.037   0.085  0.0637 -0.4435 -0.3827
 4602TIP3    H113812   6.058   3.077   0.093  0.0194 -0.6712  0.3953
 4602TIP3    H213813   6.128   2.944   0.102  0.4128 -0.5398 -0.5736
 4603TIP3   OH213814   3.360   0.173   3.143  0.2642 -0.2409  0.2975
 4603TIP3    H113815   3.305   0.252   3.145 -0.5195 -0.7658  0.0239
 4603TIP3    H213816   3.394   0.170   3.053  1.8320  0.7907  0.8116
 4604TIP3   OH213817   6.220   0.606   5.013 -0.2372  0.2563  0.2318
 4604TIP3    H113818   6.137   0.559   5.013 -0.0921 -0.0241  1.1346
 4604TIP3    H213819   6.224   0.649   5.099  0.9548 -0.5133  0.5987
 4605TIP3   OH213820   1.119   4.143   3.718 -0.1872  0.5608 -0.6010
 4605TIP3    H113821   1.105   4.052   3.746 -0.7129  0.7478 -0.2544
 4605TIP3    H213822   1.199   4.139   3.664  0.3721  0.0620  0.2379
 4606TIP3   OH213823   6.218   4.725   1.697  0.7057  0.1491  0.5382
 4606TIP3    H113824   6.161   4.649   1.712  1.7034 -0.7200  0.0896
 4606TIP3    H213825   6.201   4.783   1.770 -2.0484  0.7578 -0.4680
 4607TIP3   OH213826   3.952   2.966   1.736  0.5238 -0.0944  0.2611
 4607TIP3    H113827   3.902   3.041   1.767  0.2596 -0.5545  0.9750
 4607TIP3    H213828   4.007   2.941   1.810  1.3072 -0.0225 -0.2877
 4608TIP3   OH213829   2.755   1.319   1.572  0.2337  0.0025  0.5443
 4608TIP3    H113830   2.738   1.319   1.478 -0.6881  3.4579  0.5849
 4608TIP3    H213831   2.849   1.306   1.579  0.3669  0.0332 -0.8743
 4609TIP3   OH213832   3.864   3.315   4.955  0.4398 -0.3358 -0.0478
 4609TIP3    H113833   3.826   3.252   4.893 -0.1359  0.4543 -0.5099
 4609TIP3    H213834   3.803   3.315   5.029  0.4225 -0.3120 -0.0616
 4610TIP3   OH213835   2.311   4.277   0.374 -0.6888 -0.1398  0.3626
 4610TIP3    H113836   2.391   4.304   0.418  0.1184 -0.3066 -0.9573
 4610TIP3    H213837   2.327   4.294   0.281 -2.4524  0.5085  0.1320
 4611TIP3   OH213838   2.294   5.179   4.073  0.2659 -0.5857 -0.2625
 4611TIP3    H113839   2.338   5.095   4.083  1.0093 -0.0930  0.7670
 4611TIP3    H213840   2.348   5.241   4.123  0.3113  0.7191 -1.8457
 4612TIP3   OH213841   0.465   0.831   1.415  0.1064  0.1206 -0.0055
 4612TIP3    H113842   0.431   0.917   1.439 -0.8193 -0.2618  0.0871
 4612TIP3    H213843   0.508   0.846   1.330  0.8282  0.8662  0.4782
 4613TIP3   OH213844   2.180   5.957   0.647 -0.0461  0.1467 -0.2795
 4613TIP3    H113845   2.173   5.878   0.594  0.5558 -1.2059  1.5337
 4613TIP3    H213846   2.257   5.942   0.702  0.1838  2.0907  0.0079
 4614TIP3   OH213847   5.451   2.084   3.590  0.3225 -0.4573 -0.0686
 4614TIP3    H113848   5.380   2.022   3.609 -1.6944  0.9679 -2.3054
 4614TIP3    H213849   5.407   2.168   3.576  2.7250  1.0210  0.5901
 4615TIP3   OH213850   1.118   4.468   3.823 -0.1057 -0.0364  0.3035
 4615TIP3    H113851   1.185   4.441   3.761  1.9764  2.4074  1.3115
 4615TIP3    H213852   1.043   4.412   3.804  2.0670 -2.6853 -1.1287
 4616TIP3   OH213853   3.699   5.388   0.559 -0.4720  0.8234 -0.3763
 4616TIP3    H113854   3.772   5.338   0.596  0.9336  0.6153 -3.1590
 4616TIP3    H213855   3.728   5.479   0.563 -1.4462  1.1169  1.2631
 4617TIP3   OH213856   4.598   0.284   0.443 -0.3095  0.1544 -0.5219
 4617TIP3    H113857   4.644   0.226   0.503  0.4444  1.5158  0.2554
 4617TIP3    H213858   4.543   0.226   0.391 -2.7417 -0.9674  2.9309
 4618TIP3   OH213859   2.161   2.365   3.358 -0.3269  0.1680 -0.3264
 4618TIP3    H113860   2.256   2.371   3.347 -0.0532  0.4990  1.7752
 4618TIP3    H213861   2.127   2.354   3.269  1.4847  2.4813 -1.4098
 4619TIP3   OH213862   3.376   1.748   0.044 -0.1920  0.1643 -0.1540
 4619TIP3    H113863   3.406   1.821   0.098  0.1793  0.0950 -0.2649
 4619TIP3    H213864   3.411   1.670   0.086  1.4177  0.1997 -1.3245
 4620TIP3   OH213865   0.653   5.269   0.392  0.5598 -0.7317  0.0523
 4620TIP3    H113866   0.596   5.246   0.465 -1.0973  1.0607 -0.5833
 4620TIP3    H213867   0.717   5.328   0.429 -0.1831  0.0500  0.1202
 4621TIP3   OH213868   3.371   4.487   2.721 -0.1311  0.1179 -0.5131
 4621TIP3    H113869   3.419   4.567   2.698  0.4874  0.1057  0.6578
 4621TIP3    H213870   3.392   4.472   2.813  0.3641 -1.8252 -0.9046
 4622TIP3   OH213871   0.180   2.375   4.511  0.0364 -0.1385 -0.0803
 4622TIP3    H113872   0.273   2.369   4.535 -0.2948 -1.6589  0.9902
 4622TIP3    H213873   0.148   2.453   4.556  0.8154  0.4926 -0.5953
 4623TIP3   OH213874   4.816   0.322   2.503 -0.2200 -0.0191 -0.1693
 4623TIP3    H113875   4.732   0.334   2.459  0.0173  1.5734 -0.2434
 4623TIP3    H213876   4.798   0.341   2.595 -0.1525 -0.7338 -0.0004
 4624TIP3   OH213877   1.191   1.273   1.966  0.3179 -0.2341 -0.0330
 4624TIP3    H113878   1.129   1.345   1.967 -0.0125 -0.5146 -0.0636
 4624TIP3    H213879   1.230   1.275   1.879 -1.7236 -1.7956 -1.0738
 4625TIP3   OH213880   4.566   3.895   0.441 -0.2587 -0.1162  0.3882
 4625TIP3    H113881   4.520   3.979   0.433 -0.8629 -0.4434  0.3694
 4625TIP3    H213882   4.590   3.890   0.534 -0.6458 -0.1371  0.4891
 4626TIP3   OH213883   5.596   2.450   3.145  0.2834 -0.3165  0.0103
 4626TIP3    H113884   5.520   2.452   3.204  0.3466 -1.6874  0.1826
 4626TIP3    H213885   5.666   2.493   3.195  0.2604 -1.2197  0.8518
 4627TIP3   OH213886   3.053   1.378   0.698 -0.1249  0.1940 -0.5321
 4627TIP3    H113887   3.078   1.286   0.697  0.9607  0.3465  2.5343
 4627TIP3    H213888   3.136   1.426   0.702 -0.6771  1.3713 -2.0076
 4628TIP3   OH213889   3.242   3.846   4.448  0.2216 -0.1667  0.0884
 4628TIP3    H113890   3.279   3.924   4.409  1.5960 -1.3576 -1.1163
 4628TIP3    H213891   3.187   3.878   4.519 -1.2112  2.0143 -1.8745
 4629TIP3   OH213892   0.091   2.611   0.617 -0.1025 -0.0943 -0.0131
 4629TIP3    H113893   0.072   2.655   0.535  0.6315  2.6556  1.1875
 4629TIP3    H213894   0.186   2.614   0.625 -0.0799 -1.3445  0.4400
 4630TIP3   OH213895   0.086   2.979   4.251  0.0599  0.4641  0.6928
 4630TIP3    H113896   0.085   2.890   4.288 -0.7644  0.8639  1.6725
 4630TIP3    H213897   0.176   2.990   4.219 -0.5174 -1.8280 -2.2812
 4631TIP3   OH213898   0.661   3.771   1.598 -0.4886 -0.1941 -0.7760
 4631TIP3    H113899   0.743   3.725   1.612 -0.5902  0.1243  1.2321
 4631TIP3    H213900   0.593   3.708   1.624 -0.9446 -0.5470 -2.6494
 4632TIP3   OH213901   1.001   4.476   1.022  0.5367 -0.0390 -0.5942
 4632TIP3    H113902   0.929   4.433   0.975 -0.1266 -1.5464  1.6408
 4632TIP3    H213903   1.080   4.446   0.976 -0.1607  1.3789 -2.8801
 4633TIP3   OH213904   3.925   4.205   1.806 -0.1732  0.2040 -0.1895
 4633TIP3    H113905   3.916   4.261   1.730 -2.2216  0.3862  0.1248
 4633TIP3    H213906   3.838   4.166   1.818  0.6288 -1.3842  0.8587
 4634TIP3   OH213907   3.926   1.414   0.248  0.6829 -0.2221 -0.3995
 4634TIP3    H113908   3.864   1.356   0.203 -2.0937  2.7469 -0.7593
 4634TIP3    H213909   3.892   1.421   0.337  0.7228  1.1042 -0.4693
 4635TIP3   OH213910   2.798   5.713   4.792  0.0320  0.0837  0.1412
 4635TIP3    H113911   2.820   5.804   4.808  0.1479  0.2234 -0.7785
 4635TIP3    H213912   2.716   5.716   4.743  1.1466 -0.2110 -1.8215
 4636TIP3   OH213913   6.150   0.236   0.191 -0.2569  0.3213 -0.4065
 4636TIP3    H113914   6.190   0.277   0.114  0.9533 -1.1265 -0.5783
 4636TIP3    H213915   6.224   0.215   0.248 -1.0785  0.6908  0.8286
 4637TIP3   OH213916   4.764   5.240   3.508  0.0442 -0.0311  0.2991
 4637TIP3    H113917   4.706   5.198   3.572  0.5856 -1.0563  0.1423
 4637TIP3    H213918   4.781   5.326   3.544 -0.5678 -0.1785  0.9733
 4638TIP3   OH213919   1.958   2.697   5.058 -0.7962  0.0332  0.1192
 4638TIP3    H113920   1.898   2.753   5.008 -0.5139  0.4572  0.2467
 4638TIP3    H213921   2.013   2.655   4.993  0.7873  1.9684  0.1211
 4639TIP3   OH213922   5.780   3.221   3.980  0.3066  0.0389 -0.9027
 4639TIP3    H113923   5.789   3.261   4.067 -1.0888 -0.0478 -0.6905
 4639TIP3    H213924   5.854   3.161   3.973  0.0224 -0.5120  0.5335
 4640TIP3   OH213925   2.514   1.564   4.786  0.3158  0.1949  0.1737
 4640TIP3    H113926   2.471   1.582   4.869 -0.5665 -1.5191  0.1267
 4640TIP3    H213927   2.578   1.496   4.806  1.5479  1.1951 -0.1921
 4641TIP3   OH213928   4.097   1.445   2.377 -0.4390 -0.2703 -0.5332
 4641TIP3    H113929   4.080   1.470   2.468  0.4282 -0.4781 -0.3082
 4641TIP3    H213930   4.187   1.473   2.361 -0.9808  0.8393 -1.7114
 4642TIP3   OH213931   3.961   5.034   0.780 -0.0508 -0.0948  0.1442
 4642TIP3    H113932   3.983   4.974   0.708  1.1149 -1.9879  1.9547
 4642TIP3    H213933   3.900   4.984   0.835 -0.7679  1.2332  0.5839
 4643TIP3   OH213934   2.279   2.725   2.576 -0.2244  0.0879 -0.0243
 4643TIP3    H113935   2.226   2.780   2.518 -0.8626 -0.7936 -0.3124
 4643TIP3    H213936   2.214   2.680   2.631  0.3827  1.2505  1.7214
 4644TIP3   OH213937   5.796   5.481   5.020 -0.1231 -0.3542  0.6565
 4644TIP3    H113938   5.815   5.389   5.034  0.6599  0.0687  2.7484
 4644TIP3    H213939   5.704   5.492   5.044 -0.6622 -0.8093 -1.0371
 4645TIP3   OH213940   1.218   0.027   3.584  0.3675  0.5434 -0.5599
 4645TIP3    H113941   1.152   0.035   3.515 -0.0941  3.6631  0.1101
 4645TIP3    H213942   1.170  -0.003   3.661  0.7360 -2.1204 -1.2734
 4646TIP3   OH213943   0.813   2.208   4.937 -0.2857 -0.2556  0.3950
 4646TIP3    H113944   0.868   2.130   4.940  0.4660  0.2785  0.7990
 4646TIP3    H213945   0.755   2.199   5.013 -0.2647 -0.4668  0.3865
 4647TIP3   OH213946   1.096   3.112   0.565  0.4614 -0.2197 -0.1973
 4647TIP3    H113947   1.072   3.036   0.512 -1.2528 -0.6684  1.1479
 4647TIP3    H213948   1.015   3.162   0.574  1.2693  1.0925  0.0387
 4648TIP3   OH213949   1.417   1.922   3.885 -0.3588 -0.3999 -0.1605
 4648TIP3    H113950   1.477   1.847   3.886 -0.1427 -0.2518  2.0526
 4648TIP3    H213951   1.473   1.998   3.905 -0.9507  0.0308 -0.1241
 4649TIP3   OH213952   4.347   5.927   4.659 -0.5907 -0.0054 -0.3218
 4649TIP3    H113953   4.335   5.993   4.727  0.3394 -1.1846  1.0539
 4649TIP3    H213954   4.442   5.923   4.647 -0.7422  0.1866 -1.7224
 4650TIP3   OH213955   1.957   1.230   2.656 -0.0990  0.2511 -0.1646
 4650TIP3    H113956   1.944   1.324   2.640 -1.2679  0.2310  0.5882
 4650TIP3    H213957   1.909   1.187   2.585  0.4404  0.2133 -0.5120
 4651TIP3   OH213958   3.992   3.441   3.019 -0.2389 -0.3516 -0.0502
 4651TIP3    H113959   3.939   3.374   2.976 -2.4658  0.0374  1.8683
 4651TIP3    H213960   4.012   3.405   3.105  0.4767  0.5697  0.1955
 4652TIP3   OH213961   5.638   4.619   2.046 -0.0223  0.5977  0.4140
 4652TIP3    H113962   5.595   4.679   1.985 -0.9583  0.8165  1.2769
 4652TIP3    H213963   5.654   4.671   2.124  1.4953  0.4125  0.2603
 4653TIP3   OH213964   3.771   1.247   3.997 -0.1172 -0.5532 -0.4586
 4653TIP3    H113965   3.793   1.248   3.904  0.4581 -2.0789 -0.3741
 4653TIP3    H213966   3.845   1.291   4.040 -0.5387  0.4437 -0.7353
 4654TIP3   OH213967   5.830   1.875   1.776  0.2681  0.0052 -0.3544
 4654TIP3    H113968   5.806   1.799   1.723  1.5302 -1.5152  1.1365
 4654TIP3    H213969   5.920   1.895   1.751  0.4745  0.0079  0.3529
 4655TIP3   OH213970   4.737   5.540   3.930 -0.2090 -0.6624 -0.5774
 4655TIP3    H113971   4.661   5.595   3.911 -0.4593 -1.4120 -1.8649
 4655TIP3    H213972   4.772   5.517   3.844  3.0029  1.6577 -0.0774
 4656TIP3   OH213973   0.562   3.888   3.694  0.4535 -0.3112  0.0694
 4656TIP3    H113974   0.583   3.947   3.621 -0.4576 -1.0616 -0.8248
 4656TIP3    H213975   0.603   3.805   3.671 -0.4673 -0.7712  0.0331
 4657TIP3   OH213976   4.133   2.490   0.848  0.3713  0.2827 -0.0617
 4657TIP3    H113977   4.107   2.434   0.776  0.2363  0.5558 -0.2272
 4657TIP3    H213978   4.181   2.562   0.806  3.7789 -1.4840  0.3696
 4658TIP3   OH213979   1.530   0.109   4.238 -0.0662  0.2237 -0.0358
 4658TIP3    H113980   1.571   0.110   4.152  0.8696 -0.2136  0.3867
 4658TIP3    H213981   1.448   0.060   4.225 -0.2932  0.7977 -0.8192
 4659TIP3   OH213982   5.603   0.726   4.963 -0.1472  0.2057  0.3140
 4659TIP3    H113983   5.631   0.814   4.985  0.7964 -0.2722  1.0867
 4659TIP3    H213984   5.511   0.736   4.938 -0.8551  1.0569  2.9285
 4660TIP3   OH213985   4.181   0.590   1.864  0.1836  0.4206  0.2489
 4660TIP3    H113986   4.092   0.558   1.847 -0.2544  1.4714  0.5149
 4660TIP3    H213987   4.213   0.534   1.934 -0.7418  0.8370  1.0259
 4661TIP3   OH213988   3.162   4.627   4.330 -0.3265 -0.2945 -0.3869
 4661TIP3    H113989   3.110   4.565   4.380  1.5206 -0.0390  2.0165
 4661TIP3    H213990   3.251   4.593   4.334  0.3311  1.2246 -1.1122
 4662TIP3   OH213991   1.648   0.972   4.622  0.1297 -0.2715 -0.1926
 4662TIP3    H113992   1.557   0.999   4.621 -0.7470 -2.7019  2.1357
 4662TIP3    H213993   1.650   0.890   4.571  1.1497  0.0507 -0.7105
 4663TIP3   OH213994   1.565   1.475   3.137  0.0919  0.2273 -0.2049
 4663TIP3    H113995   1.616   1.532   3.081 -0.7352  1.0638 -0.1293
 4663TIP3    H213996   1.524   1.412   3.077 -1.0556  1.3206 -0.6141
 4664TIP3   OH213997   2.999   4.298   1.513  0.7971 -0.0430  0.1683
 4664TIP3    H113998   3.073   4.238   1.503 -0.5498 -1.4278 -3.0027
 4664TIP3    H213999   2.943   4.255   1.578  1.2987 -0.6395  0.2169
 4665TIP3   OH214000   3.462   4.686   1.489 -0.4926  0.2125  0.6794
 4665TIP3    H114001   3.548   4.728   1.485 -1.1933  1.6006 -1.0323
 4665TIP3    H214002   3.403   4.757   1.514 -1.4937 -0.0731 -0.7614
 4666TIP3   OH214003   0.754   3.136   1.418 -0.0553 -0.1880 -0.4303
 4666TIP3    H114004   0.718   3.152   1.331 -0.9313 -0.4506 -0.1239
 4666TIP3    H214005   0.717   3.205   1.473 -0.3274 -0.6372 -0.0451
 4667TIP3   OH214006   3.764   4.986   1.344 -0.2728  0.4502 -0.2785
 4667TIP3    H114007   3.809   5.050   1.399 -0.1776  0.5040 -0.4186
 4667TIP3    H214008   3.819   4.979   1.266  0.5600 -0.9918  0.4054
 4668TIP3   OH214009   2.765   3.511   2.183  0.0224  1.0423 -0.5089
 4668TIP3    H114010   2.801   3.591   2.146 -0.1014  0.3012 -2.3723
 4668TIP3    H214011   2.677   3.504   2.145  0.2003 -0.1722 -0.7502
 4669TIP3   OH214012   2.960   4.075   1.269  0.3077  0.0224  0.5610
 4669TIP3    H114013   2.873   4.049   1.299 -0.2258  0.6156 -0.3876
 4669TIP3    H214014   3.009   4.094   1.349  0.1275 -1.9503  1.2024
 4670TIP3   OH214015   6.187   3.682   0.138 -0.1024  0.2053  0.1277
 4670TIP3    H114016   6.120   3.750   0.147 -0.7957 -0.3904 -0.4418
 4670TIP3    H214017   6.208   3.682   0.045  1.3477  0.9879  0.4265
 4671TIP3   OH214018   2.184   0.870   3.822  0.1369  0.0515  0.3345
 4671TIP3    H114019   2.118   0.835   3.882  0.7579  1.2583  1.7872
 4671TIP3    H214020   2.173   0.819   3.742  0.2397 -2.6907  1.9265
 4672TIP3   OH214021   1.011   3.642   4.180  0.0961 -0.0855  0.2974
 4672TIP3    H114022   0.952   3.643   4.104 -0.0781  1.1318  0.4275
 4672TIP3    H214023   1.094   3.608   4.146  0.5038  1.8757 -0.8455
 4673TIP3   OH214024   1.266   3.680   1.009  0.1599  0.6673  0.1792
 4673TIP3    H114025   1.259   3.633   0.926 -1.0007 -0.3530  0.8357
 4673TIP3    H214026   1.244   3.771   0.986 -1.4753  0.1613 -0.4154
 4674TIP3   OH214027   0.570   4.825   1.743 -0.1527  0.5012  0.2586
 4674TIP3    H114028   0.659   4.791   1.730 -0.1288  0.8565 -0.5920
 4674TIP3    H214029   0.561   4.892   1.676 -0.3422  1.9228  1.6649
 4675TIP3   OH214030   2.340   4.760   3.857  0.1887 -0.2608  0.0131
 4675TIP3    H114031   2.333   4.844   3.812  0.7010  0.2090  0.7979
 4675TIP3    H214032   2.337   4.695   3.786 -1.6635  0.3284 -0.4882
 4676TIP3   OH214033   3.861   5.354   2.044  0.0995 -0.1988  0.2231
 4676TIP3    H114034   3.811   5.415   2.098 -0.2744 -0.0245 -0.3137
 4676TIP3    H214035   3.878   5.279   2.102  0.5485  0.3925  0.8838
 4677TIP3   OH214036   4.451   4.735   3.911  0.3708  0.3201 -0.1864
 4677TIP3    H114037   4.362   4.769   3.902  0.6168  0.9150 -0.3783
 4677TIP3    H214038   4.457   4.666   3.844 -0.1791 -0.2233  0.3126
 4678TIP3   OH214039   0.843   4.711   1.740  0.2582  0.6060 -0.4888
 4678TIP3    H114040   0.898   4.774   1.693  0.9729 -0.2874 -0.8815
 4678TIP3    H214041   0.898   4.679   1.811  0.1714 -0.1359 -0.7476
 4679TIP3   OH214042   2.351   0.291   0.645 -0.1844 -0.5222 -0.0997
 4679TIP3    H114043   2.295   0.358   0.686  1.6629 -0.1455  1.9638
 4679TIP3    H214044   2.309   0.208   0.669 -2.1236 -0.2336 -2.1231
 4680TIP3   OH214045   4.775   1.453   2.501 -0.0429  0.2732 -0.2213
 4680TIP3    H114046   4.735   1.475   2.585  3.5705  1.3923  1.4413
 4680TIP3    H214047   4.799   1.361   2.508  1.2271  0.6288  0.5321
 4681TIP3   OH214048   5.450   0.495   4.531  0.3936  0.1201 -0.0101
 4681TIP3    H114049   5.393   0.522   4.460  1.1377 -0.2661 -0.7850
 4681TIP3    H214050   5.513   0.436   4.489 -0.4863 -1.9192  1.3677
 4682TIP3   OH214051   4.748   1.790   1.669 -0.0213 -0.0229  0.2523
 4682TIP3    H114052   4.763   1.880   1.640 -1.4024  0.2715  0.3993
 4682TIP3    H214053   4.653   1.781   1.672  0.0879 -1.7989 -0.6736
 4683TIP3   OH214054   2.529   2.829   1.075  0.1735 -0.2952  0.1431
 4683TIP3    H114055   2.468   2.760   1.101 -2.8077  2.1626  0.2570
 4683TIP3    H214056   2.546   2.877   1.156  1.7024 -0.4850 -0.0461
 4684TIP3   OH214057   3.841   2.876   4.176  0.1162 -0.0260 -0.6584
 4684TIP3    H114058   3.748   2.856   4.186  0.4279 -1.1370  0.1667
 4684TIP3    H214059   3.884   2.791   4.173  1.0558  0.4630 -1.7485
 4685TIP3   OH214060   3.140   0.876   3.380  0.0066 -0.0955  0.3263
 4685TIP3    H114061   3.187   0.869   3.463  0.8230  0.5620 -0.0629
 4685TIP3    H214062   3.209   0.886   3.314 -0.6631  0.8235 -0.2687
 4686TIP3   OH214063   3.667   4.205   0.690 -1.8080 -0.2619 -0.2062
 4686TIP3    H114064   3.581   4.196   0.648 -1.1257  0.6416 -1.8819
 4686TIP3    H214065   3.705   4.117   0.686 -1.8876 -0.2591 -1.2304
 4687TIP3   OH214066   1.151   1.454   0.178 -0.0834 -0.4410 -0.4703
 4687TIP3    H114067   1.192   1.434   0.094 -0.4585 -2.1202 -0.2848
 4687TIP3    H214068   1.109   1.539   0.165 -0.3139 -0.7784 -2.0499
 4688TIP3   OH214069   2.868   2.554   3.011  0.1510 -0.1967  0.2888
 4688TIP3    H114070   2.838   2.480   3.064 -1.3718 -0.3482 -0.7124
 4688TIP3    H214071   2.959   2.535   2.992  0.3132 -0.8584  1.6170
 4689TIP3   OH214072   2.114   2.904   1.277 -0.3488  0.0237  0.1572
 4689TIP3    H114073   2.135   2.839   1.343 -2.1037 -0.4317  0.3105
 4689TIP3    H214074   2.181   2.892   1.209 -0.2687 -1.5301  0.4703
 4690TIP3   OH214075   5.507   3.375   3.594 -1.0832 -0.0662  0.7901
 4690TIP3    H114076   5.525   3.318   3.518  0.4893  0.9608  0.3474
 4690TIP3    H214077   5.477   3.457   3.555  1.5560  1.1420  1.1033
 4691TIP3   OH214078   1.940   0.585   1.871  0.6426 -0.4288  0.0672
 4691TIP3    H114079   1.980   0.527   1.806 -0.8506 -2.2998  0.7242
 4691TIP3    H214080   1.847   0.562   1.869  0.1661  1.2128  1.1525
 4692TIP3   OH214081   2.189   1.008   4.962  0.5564  0.0940 -0.0278
 4692TIP3    H114082   2.166   1.004   4.870  0.1599  0.1892  0.0682
 4692TIP3    H214083   2.180   0.918   4.993 -0.5047  0.2756  0.2081
 4693TIP3   OH214084   5.840   3.953   4.564 -0.3707 -0.0073  0.1640
 4693TIP3    H114085   5.781   3.887   4.601 -1.0912 -0.1456 -1.1518
 4693TIP3    H214086   5.852   3.925   4.473  2.3243 -0.3899  0.5336
 4694TIP3   OH214087   2.518   0.435   2.849 -0.6988  0.5086  0.0386
 4694TIP3    H114088   2.439   0.381   2.854  0.3333 -1.0299  0.4741
 4694TIP3    H214089   2.563   0.419   2.932  1.8798 -1.6432 -1.6273
 4695TIP3   OH214090   2.444   5.611   0.764 -0.3511 -0.2647  0.1531
 4695TIP3    H114091   2.370   5.552   0.749  0.0013 -0.6130 -0.2791
 4695TIP3    H214092   2.504   5.560   0.818 -0.2394 -0.1434  0.1431
 4696TIP3   OH214093   5.592   5.773   3.110 -0.8770  0.3323 -0.2125
 4696TIP3    H114094   5.624   5.861   3.092 -0.8930  0.0906 -1.5288
 4696TIP3    H214095   5.662   5.714   3.082 -1.3167 -0.1075 -0.4195
 4697TIP3   OH214096   5.992   5.522   2.056 -0.4653 -0.5885  0.0988
 4697TIP3    H114097   6.036   5.598   2.015  1.2606 -1.1913  0.7467
 4697TIP3    H214098   5.945   5.481   1.984 -0.5745  0.4983 -0.4816
 4698TIP3   OH214099   5.741   0.939   3.869  0.2181  0.0768  0.1153
 4698TIP3    H114100   5.668   0.938   3.931 -0.5130 -0.0026 -0.7253
 4698TIP3    H214101   5.777   0.850   3.873  0.6202  0.2638  0.9165
 4699TIP3   OH214102   4.082   0.490   4.168 -0.2121  0.4717  0.1150
 4699TIP3    H114103   4.064   0.503   4.262 -0.3980  2.5140 -0.1607
 4699TIP3    H214104   3.995   0.488   4.128 -0.0855  1.1454 -0.1915
 4700TIP3   OH214105   5.157   5.566   4.329 -0.7556 -0.6559  1.0893
 4700TIP3    H114106   5.238   5.526   4.297 -0.3101  0.9684  0.0556
 4700TIP3    H214107   5.088   5.519   4.283 -0.3020 -0.8814  0.6190
 4701TIP3   OH214108   5.008   2.449   2.106 -0.0547  0.1540 -0.6729
 4701TIP3    H114109   4.940   2.485   2.049  0.2973 -1.6601 -2.3416
 4701TIP3    H214110   4.984   2.357   2.116  0.1789  0.2879  1.7810
 4702TIP3   OH214111   2.240   1.486   3.395  0.2504  0.2048  0.4804
 4702TIP3    H114112   2.233   1.527   3.309 -0.6017 -0.5245  0.1903
 4702TIP3    H214113   2.160   1.434   3.404  0.7641 -0.4684  1.3226
 4703TIP3   OH214114   2.743   4.310   1.333  0.1209  0.3094  0.3607
 4703TIP3    H114115   2.833   4.308   1.367 -0.3811 -0.4306  1.7248
 4703TIP3    H214116   2.690   4.275   1.405 -1.4180  1.9450  0.0835
 4704TIP3   OH214117   1.551   5.706   3.689  0.2358  0.0554 -1.0390
 4704TIP3    H114118   1.460   5.736   3.695  0.8096  1.6195  1.9634
 4704TIP3    H214119   1.597   5.777   3.645  0.3787  0.4084 -0.3419
 4705TIP3   OH214120   1.047   3.912   4.774  0.5946  0.1433 -0.5216
 4705TIP3    H114121   1.126   3.859   4.775 -0.5910 -1.7484  0.7574
 4705TIP3    H214122   1.043   3.951   4.862  0.1224  0.2322 -0.5795
 4706TIP3   OH214123   4.244   5.462   1.534 -0.4568  0.6580  0.0324
 4706TIP3    H114124   4.171   5.479   1.474 -1.6031 -0.4909  1.0517
 4706TIP3    H214125   4.216   5.388   1.587  1.4549  0.2028  0.4963
 4707TIP3   OH214126   3.879   2.523   1.778 -0.1236 -0.5712  0.3614
 4707TIP3    H114127   3.970   2.550   1.789 -0.4007  0.2313  0.7887
 4707TIP3    H214128   3.876   2.482   1.692 -0.0272  2.4853 -1.2379
 4708TIP3   OH214129   5.719   3.075   0.455 -0.2221  0.5150  0.7729
 4708TIP3    H114130   5.731   3.114   0.542 -2.0318  2.7860  0.1035
 4708TIP3    H214131   5.626   3.054   0.450 -0.3572  1.3227 -0.9022
 4709TIP3   OH214132   2.617   4.311   2.464 -0.2912  0.3513  0.4569
 4709TIP3    H114133   2.640   4.218   2.468 -2.2552 -0.3342 -1.9909
 4709TIP3    H214134   2.623   4.341   2.555 -0.2533 -2.3174  1.4114
 4710TIP3   OH214135   5.716   5.467   1.917 -0.1495 -0.3625  0.0930
 4710TIP3    H114136   5.685   5.389   1.962 -2.0020  0.0108 -0.4623
 4710TIP3    H214137   5.735   5.437   1.828  1.0038 -0.5497  0.3797
 4711TIP3   OH214138   4.621   3.524   3.092 -0.4180 -0.1970  0.2343
 4711TIP3    H114139   4.561   3.475   3.036 -1.0429 -1.3154  1.8092
 4711TIP3    H214140   4.569   3.548   3.169  0.7039  0.2534  0.8934
 4712TIP3   OH214141   1.632   2.212   0.696  0.1769  0.0696 -0.4013
 4712TIP3    H114142   1.610   2.243   0.608 -1.6984  2.6720  0.8420
 4712TIP3    H214143   1.722   2.240   0.709  1.3704 -2.4820 -2.2496
 4713TIP3   OH214144   0.469   2.039   2.052 -0.6066  0.2357 -0.0286
 4713TIP3    H114145   0.430   2.016   2.136 -2.6121  1.4301 -0.5530
 4713TIP3    H214146   0.560   2.014   2.059 -0.4747  1.2272  2.8807
 4714TIP3   OH214147   1.923   4.199   3.232 -0.9255  0.1862  0.1122
 4714TIP3    H114148   1.843   4.175   3.280 -0.4162 -0.8397  0.4905
 4714TIP3    H214149   1.918   4.294   3.222 -3.5159 -0.0426 -2.2139
 4715TIP3   OH214150   1.306   5.761   4.224 -0.3626 -1.3905 -0.0331
 4715TIP3    H114151   1.357   5.755   4.305  0.5118  1.9671 -0.1900
 4715TIP3    H214152   1.363   5.724   4.157  0.7657 -0.2014  0.2390
 4716TIP3   OH214153   3.510   4.583   3.613  0.3211 -0.6156  0.2973
 4716TIP3    H114154   3.509   4.523   3.688 -0.4697  0.4406  1.1617
 4716TIP3    H214155   3.558   4.536   3.545  1.3855 -1.4683  1.5864
 4717TIP3   OH214156   2.387   4.145   4.082 -0.1496 -0.1445 -0.6999
 4717TIP3    H114157   2.403   4.055   4.054  0.6115 -0.2216 -0.0440
 4717TIP3    H214158   2.472   4.177   4.110 -0.3080  0.9629 -1.4180
 4718TIP3   OH214159   0.953   3.097   2.197  0.3825  0.3809 -0.4021
 4718TIP3    H114160   0.979   3.086   2.106 -0.4397 -0.6031 -0.5403
 4718TIP3    H214161   0.865   3.136   2.192  1.1901  2.3726  0.0258
 4719TIP3   OH214162   4.569   3.134   4.213  0.4702 -0.6848 -0.4048
 4719TIP3    H114163   4.622   3.147   4.292  2.6814  0.5331 -2.0190
 4719TIP3    H214164   4.496   3.196   4.223  0.0597 -1.3542  1.1649
 4720TIP3   OH214165   1.689   5.345   3.693 -0.1992  0.1328 -0.6088
 4720TIP3    H114166   1.627   5.287   3.736 -0.9465  0.6379 -0.9722
 4720TIP3    H214167   1.634   5.412   3.652  0.4931 -0.1759 -2.1080
 4721TIP3   OH214168   1.614   2.011   1.000 -0.5794  0.1614 -0.6581
 4721TIP3    H114169   1.522   2.035   1.008 -0.7270 -0.7452  0.7737
 4721TIP3    H214170   1.652   2.034   1.085  0.3493 -0.1258 -0.9903
 4722TIP3   OH214171   5.428   0.708   0.391  0.1053  0.7953 -0.0138
 4722TIP3    H114172   5.447   0.657   0.312  0.3151 -0.8590  1.0497
 4722TIP3    H214173   5.484   0.669   0.458 -1.3186  1.0093  1.3553
 4723TIP3   OH214174   3.595   1.339   0.709  0.3222  0.5858 -0.7719
 4723TIP3    H114175   3.671   1.390   0.738 -0.1635  0.5120  0.7286
 4723TIP3    H214176   3.535   1.340   0.784  0.0347 -1.6848 -0.8873
 4724TIP3   OH214177   4.697   1.787   4.612  0.3696  0.4565  0.0493
 4724TIP3    H114178   4.791   1.774   4.619  0.1626 -2.4843 -1.1493
 4724TIP3    H214179   4.687   1.843   4.535  1.1386 -2.2032 -2.1465
 4725TIP3   OH214180   4.123   5.941   4.470  0.6791  0.2153 -0.3678
 4725TIP3    H114181   4.040   5.939   4.517  0.5506 -1.0285 -0.6049
 4725TIP3    H214182   4.190   5.943   4.538  0.4806  2.4616 -0.1682
 4726TIP3   OH214183   1.207   0.480   2.201 -0.0429 -0.0435 -0.2548
 4726TIP3    H114184   1.114   0.494   2.218 -0.5341 -1.3554 -1.6486
 4726TIP3    H214185   1.209   0.432   2.118  1.8741 -0.1433 -0.1818
 4727TIP3   OH214186   4.536   1.211   0.304  0.0941  0.1021 -0.4685
 4727TIP3    H114187   4.574   1.124   0.295  0.7262  0.4356 -1.1247
 4727TIP3    H214188   4.566   1.242   0.389 -0.1173 -0.3073 -0.2396
 4728TIP3   OH214189   4.513   2.736   1.930 -0.3914 -0.0847 -0.3375
 4728TIP3    H114190   4.470   2.764   1.849  1.2152  0.0310 -1.1954
 4728TIP3    H214191   4.584   2.799   1.942 -0.7407  0.0320  1.3104
 4729TIP3   OH214192   0.494   3.492   2.547 -0.2804  0.1999  0.0622
 4729TIP3    H114193   0.568   3.523   2.600  0.3040 -2.5796  1.0421
 4729TIP3    H214194   0.519   3.404   2.520 -3.1425 -0.7886  0.2536
 4730TIP3   OH214195   6.235   2.067   3.387 -0.5373  0.5615  0.4920
 4730TIP3    H114196   6.189   2.106   3.313 -3.0608 -0.4006  1.4748
 4730TIP3    H214197   6.273   2.142   3.433 -1.9058  1.4919  0.1444
 4731TIP3   OH214198   4.255   4.939   1.463 -0.2267 -0.0379 -0.2306
 4731TIP3    H114199   4.189   4.870   1.454  0.1306 -0.1270 -3.0043
 4731TIP3    H214200   4.218   5.014   1.418  0.3226  0.9216  0.8580
 4732TIP3   OH214201   5.941   0.069   2.967  0.1251 -0.2636  0.4764
 4732TIP3    H114202   6.009   0.059   3.035  0.4627 -0.8411  0.0630
 4732TIP3    H214203   5.961   0.000   2.904  1.5591  1.9768 -1.6929
 4733TIP3   OH214204   2.844   0.861   3.521 -0.1419  0.7439 -0.6162
 4733TIP3    H114205   2.925   0.812   3.535 -0.3810  0.6050  0.3830
 4733TIP3    H214206   2.822   0.845   3.430 -0.0325 -0.7558 -0.4069
 4734TIP3   OH214207   1.361   4.045   4.554 -0.1155  0.0606  0.2792
 4734TIP3    H114208   1.295   4.037   4.485  1.0773  0.5642 -0.9673
 4734TIP3    H214209   1.383   3.955   4.576  0.2181 -0.1206 -0.7320
 4735TIP3   OH214210   3.177   0.999   4.360 -0.2027 -0.0282  0.0059
 4735TIP3    H114211   3.270   1.001   4.335 -0.4576  0.7648 -0.9459
 4735TIP3    H214212   3.143   0.919   4.322  0.3471 -0.9901  1.4274
 4736TIP3   OH214213   6.224   2.665   4.337  0.0213  0.4656  0.0394
 4736TIP3    H114214   6.319   2.673   4.344 -0.0994  0.8070  1.6100
 4736TIP3    H214215   6.204   2.580   4.377 -0.3105  0.1889 -0.6875
 4737TIP3   OH214216   5.662   2.993   0.181  0.2314  0.3038  0.4407
 4737TIP3    H114217   5.679   2.992   0.276 -0.1997  0.0462  0.5167
 4737TIP3    H214218   5.587   3.051   0.171  0.6520  0.8157  0.1880
 4738TIP3   OH214219   1.615   2.927   3.837 -0.4390 -0.0003 -0.1558
 4738TIP3    H114220   1.628   3.002   3.778  1.4612  0.3813  0.6633
 4738TIP3    H214221   1.537   2.883   3.803 -0.5839  1.3497 -1.7157
 4739TIP3   OH214222   5.286   0.677   2.355  0.6035 -0.4655  0.3975
 4739TIP3    H114223   5.251   0.756   2.397  0.8255 -0.3014  0.2786
 4739TIP3    H214224   5.212   0.640   2.307  0.5992 -0.1050  0.1242
 4740TIP3   OH214225   2.944   0.385   2.815 -0.7942  0.2441 -0.4253
 4740TIP3    H114226   2.939   0.294   2.785  2.3564  0.1096 -0.9342
 4740TIP3    H214227   2.962   0.435   2.736  2.4177  0.5733  0.3843
 4741TIP3   OH214228   5.003   0.617   4.448 -0.4253  0.4176 -0.5502
 4741TIP3    H114229   5.023   0.561   4.373  0.6262  0.3310 -0.2223
 4741TIP3    H214230   5.038   0.570   4.524 -2.9955 -0.3433  0.2841
 4742TIP3   OH214231   5.315   4.988   0.765 -1.0837  0.3474 -0.2371
 4742TIP3    H114232   5.396   5.013   0.720 -1.2858 -0.3271 -1.0062
 4742TIP3    H214233   5.263   5.068   0.765 -0.2586  0.9053  0.6523
 4743TIP3   OH214234   5.521   0.013   3.100 -0.4242  0.5344  0.3073
 4743TIP3    H114235   5.453   0.078   3.082  1.2784  2.4774  0.4985
 4743TIP3    H214236   5.537  -0.029   3.015 -1.3676  0.5142  0.1280
 4744TIP3   OH214237   5.911   3.556   3.332  0.4776  0.3516  0.7151
 4744TIP3    H114238   5.845   3.587   3.394  1.9732  1.5294  1.8155
 4744TIP3    H214239   5.982   3.522   3.388  2.1900  2.1062 -0.2705
 4745TIP3   OH214240   3.640   5.049   4.271  0.3419  0.0114  0.0074
 4745TIP3    H114241   3.673   5.116   4.211  1.6241 -0.0894  0.5522
 4745TIP3    H214242   3.652   4.967   4.223 -2.7284  0.2217 -1.3100
 4746TIP3   OH214243   0.035   0.801   1.310 -0.1640 -0.5102 -0.4931
 4746TIP3    H114244   0.096   0.865   1.272  0.1700 -0.3013  0.3678
 4746TIP3    H214245  -0.050   0.822   1.271 -0.6016  2.0689  1.5523
 4747TIP3   OH214246   1.307   0.388   0.537  0.1041 -0.2951 -0.2427
 4747TIP3    H114247   1.355   0.376   0.618 -0.1831  0.1909 -0.0006
 4747TIP3    H214248   1.359   0.449   0.486 -0.4954  0.6286  0.2279
 4748TIP3   OH214249   3.183   3.573   0.816  0.1565  0.3629 -0.4503
 4748TIP3    H114250   3.142   3.491   0.843 -2.7168  1.4847 -1.0437
 4748TIP3    H214251   3.239   3.597   0.890  0.3469 -1.6252  0.1184
 4749TIP3   OH214252   4.090   0.767  -0.013  0.0402 -0.2897 -0.0237
 4749TIP3    H114253   4.110   0.797   0.075  0.3954 -0.3574 -0.0833
 4749TIP3    H214254   4.063   0.847  -0.059  1.5033  0.0424 -0.3294
 4750TIP3   OH214255   3.350   5.321   3.780 -0.0804 -0.6295  0.0080
 4750TIP3    H114256   3.299   5.290   3.705  0.9180  0.0277 -0.9850
 4750TIP3    H214257   3.374   5.241   3.827  0.2809 -1.1723 -1.0601
 4751TIP3   OH214258   6.072   5.558   1.486 -0.7229 -0.0768 -0.0132
 4751TIP3    H114259   6.045   5.597   1.403  0.0328  0.3220 -0.0782
 4751TIP3    H214260   6.006   5.491   1.504 -1.9438  1.0935  0.0140
 4752TIP3   OH214261   2.512   4.494   3.601 -0.0676  0.4825 -0.5134
 4752TIP3    H114262   2.463   4.575   3.614  0.0358  0.4483  0.1336
 4752TIP3    H214263   2.601   4.514   3.631 -0.2906 -0.1527  0.6146
 4753TIP3   OH214264   1.230   3.104   3.906  0.1382  0.1721 -0.2529
 4753TIP3    H114265   1.281   3.137   3.980  3.6314 -1.8344 -1.5378
 4753TIP3    H214266   1.154   3.062   3.946  1.3923  0.0097  2.1160
 4754TIP3   OH214267   5.027   3.816   2.292 -0.5412 -0.0841  0.0141
 4754TIP3    H114268   4.998   3.874   2.363  0.0087  0.4096 -0.1510
 4754TIP3    H214269   5.064   3.740   2.337  0.0204  0.3318  0.2667
 4755TIP3   OH214270   0.985   3.408   0.918 -0.0313 -0.1199  0.3571
 4755TIP3    H114271   0.907   3.363   0.884  0.0076 -0.5777  0.8595
 4755TIP3    H214272   0.956   3.447   1.000  0.0361  0.4657  0.1055
 4756TIP3   OH214273   5.212   1.311   3.181 -0.4961 -0.2348  0.5101
 4756TIP3    H114274   5.118   1.307   3.198 -0.4619 -0.3515  0.6732
 4756TIP3    H214275   5.220   1.369   3.105 -0.4696  2.2245  2.2893
 4757TIP3   OH214276   1.664   3.477   1.790 -0.4167 -0.1441  0.3096
 4757TIP3    H114277   1.724   3.508   1.858  0.1095  0.2863 -0.3354
 4757TIP3    H214278   1.599   3.547   1.781 -0.3914 -0.1274  0.2556
 4758TIP3   OH214279   1.530   0.554   3.171 -0.3579 -0.1460 -0.0439
 4758TIP3    H114280   1.572   0.491   3.229 -0.3873  0.2067  0.3719
 4758TIP3    H214281   1.594   0.570   3.102  1.0941  1.8980  1.6278
 4759TIP3   OH214282   2.428   2.763   0.727 -0.3673  0.7810 -0.7312
 4759TIP3    H114283   2.485   2.693   0.760  0.5984  1.9530  0.1370
 4759TIP3    H214284   2.359   2.716   0.679  0.2572 -0.7652 -0.1863
 4760TIP3   OH214285   1.227   5.180   2.064 -0.0834 -0.0645  0.2583
 4760TIP3    H114286   1.320   5.184   2.045 -0.1886  1.9732 -0.0243
 4760TIP3    H214287   1.222   5.167   2.159  0.4808  0.0679  0.3060
 4761TIP3   OH214288   4.174   1.558   4.272  0.6204  0.6216  0.0313
 4761TIP3    H114289   4.137   1.514   4.196  1.0734  0.5106 -0.1270
 4761TIP3    H214290   4.098   1.589   4.321  0.2653 -0.6632  0.3401
 4762TIP3   OH214291   6.097   5.028   0.044 -0.3903  0.0255  0.0851
 4762TIP3    H114292   6.158   5.018   0.117  0.2216 -1.2733 -0.5764
 4762TIP3    H214293   6.147   5.073  -0.024 -0.0870 -1.1252 -0.4939
 4763TIP3   OH214294   4.635   5.392   1.686 -0.3308  0.2476  0.8451
 4763TIP3    H114295   4.591   5.345   1.757  2.1163 -1.5302  1.3095
 4763TIP3    H214296   4.672   5.470   1.728 -0.8814  0.4434  0.9775
 4764TIP3   OH214297   2.772   2.817   1.876 -0.5673 -0.0964  0.3426
 4764TIP3    H114298   2.844   2.802   1.816  0.9732 -0.0268  2.0746
 4764TIP3    H214299   2.693   2.794   1.826  0.6923 -0.9138 -1.3598
 4765TIP3   OH214300   1.411   5.641   4.945  0.0698 -0.3447 -0.2105
 4765TIP3    H114301   1.389   5.669   5.034 -2.0925 -1.6497 -0.2834
 4765TIP3    H214302   1.483   5.579   4.956  1.1085  0.9348  0.4227
 4766TIP3   OH214303   1.675   3.705   0.603 -0.4661 -0.3607  0.7151
 4766TIP3    H114304   1.661   3.706   0.698  1.4033 -0.1761  1.0130
 4766TIP3    H214305   1.716   3.620   0.586 -0.8644 -0.4268  0.0439
 4767TIP3   OH214306   1.177   2.102   4.441 -0.1341 -0.1033  0.2439
 4767TIP3    H114307   1.163   2.187   4.485 -2.5781 -1.6115  2.7593
 4767TIP3    H214308   1.271   2.088   4.444  0.2644  2.1859  0.3630
 4768TIP3   OH214309   4.213   3.468   0.856  0.7301  0.1849  0.0979
 4768TIP3    H114310   4.234   3.557   0.886 -0.5221  0.6457 -0.3159
 4768TIP3    H214311   4.177   3.425   0.934  0.0803  0.4874 -0.0256
 4769TIP3   OH214312   3.649   4.292   3.417 -0.3390 -0.7542 -0.1844
 4769TIP3    H114313   3.699   4.358   3.369 -1.1134 -2.0994 -3.1388
 4769TIP3    H214314   3.715   4.241   3.464  0.4004  1.0954  0.8546
 4770TIP3   OH214315   3.040   5.163   2.640  0.0420 -0.6285 -0.0556
 4770TIP3    H114316   3.059   5.132   2.729 -0.8307 -0.1679  0.3050
 4770TIP3    H214317   3.010   5.253   2.652  0.0218 -0.5239 -0.8385
 4771TIP3   OH214318   0.403   0.602   3.971 -0.4047  0.0598  0.5053
 4771TIP3    H114319   0.477   0.590   4.030  0.0188 -0.0586 -0.0443
 4771TIP3    H214320   0.363   0.684   3.999 -0.2289 -0.0140  0.9762
 4772TIP3   OH214321   4.844   4.214   4.364 -0.4558 -0.4519 -0.1548
 4772TIP3    H114322   4.823   4.293   4.415 -1.1545  0.1205 -1.2847
 4772TIP3    H214323   4.909   4.244   4.300  0.8854 -1.3068  0.7747
 4773TIP3   OH214324   5.139   2.572   4.578 -0.2037  0.2448  0.5738
 4773TIP3    H114325   5.141   2.660   4.617 -1.5108  0.7996 -0.5530
 4773TIP3    H214326   5.157   2.513   4.651 -1.9543  1.2872  1.9114
 4774TIP3   OH214327   5.596   0.606   1.805 -0.1416 -0.1181  0.3528
 4774TIP3    H114328   5.688   0.585   1.793  0.1431  0.9248  0.6262
 4774TIP3    H214329   5.562   0.537   1.863  0.1943 -1.1024 -0.5828
 4775TIP3   OH214330   4.039   2.969   5.071  0.1850  0.1330  0.0889
 4775TIP3    H114331   4.057   3.004   4.984 -0.3234  1.4624  0.4891
 4775TIP3    H214332   4.005   2.881   5.055  0.1618  0.3296 -1.0464
 4776TIP3   OH214333   6.210   4.765   2.747  0.1920 -0.5880  0.1052
 4776TIP3    H114334   6.265   4.806   2.681  0.9506 -0.3060  0.8990
 4776TIP3    H214335   6.188   4.836   2.808 -0.8285 -0.7545 -0.0520
 4777TIP3   OH214336   4.694   5.618   2.277 -0.2365 -0.5543 -0.4142
 4777TIP3    H114337   4.623   5.641   2.217  0.1673 -0.2339 -0.7717
 4777TIP3    H214338   4.767   5.596   2.221  0.0569 -0.5424 -0.0430
 4778TIP3   OH214339   3.825   5.281   5.134 -0.2983  0.4467  0.0373
 4778TIP3    H114340   3.807   5.193   5.101 -0.4292 -0.1647  1.6589
 4778TIP3    H214341   3.739   5.318   5.154 -0.1610  0.3933  0.7283
 4779TIP3   OH214342   1.816   0.735   2.532  0.3301  0.3209 -0.2457
 4779TIP3    H114343   1.798   0.671   2.601 -1.8026  0.6277 -0.4514
 4779TIP3    H214344   1.847   0.682   2.458 -1.6898 -0.5477 -0.5119
 4780TIP3   OH214345   1.560   5.716   1.464  0.2394  0.4450 -0.1669
 4780TIP3    H114346   1.485   5.751   1.512  0.1521 -2.5559  2.2426
 4780TIP3    H214347   1.625   5.786   1.466 -1.2202  1.8496  0.8362
 4781TIP3   OH214348   5.665   0.887   3.126  0.5059 -0.8125  0.1548
 4781TIP3    H114349   5.663   0.797   3.092 -1.9260 -0.2992 -1.3753
 4781TIP3    H214350   5.715   0.936   3.061  0.7750 -0.8357  0.3433
 4782TIP3   OH214351   6.039   0.576   4.208 -0.3629 -0.2974  0.2344
 4782TIP3    H114352   6.091   0.639   4.158  1.0503 -1.5152  0.1122
 4782TIP3    H214353   6.066   0.590   4.299  0.6130 -1.3191  0.1071
 4783TIP3   OH214354   2.049   1.360   0.931 -0.2977 -0.0869 -0.1592
 4783TIP3    H114355   2.118   1.425   0.941 -1.3769  0.9042  1.3741
 4783TIP3    H214356   2.087   1.278   0.963  0.1753  0.4393  0.6427
 4784TIP3   OH214357   4.440   0.897   4.504  0.5983  0.1474  0.0970
 4784TIP3    H114358   4.405   0.981   4.534 -0.0554 -0.2373  0.4539
 4784TIP3    H214359   4.404   0.886   4.416  0.0314 -0.1182  0.3564
 4785TIP3   OH214360   5.742   4.810   0.836  0.1601  0.1784  0.0842
 4785TIP3    H114361   5.797   4.742   0.875  0.6523  0.5048 -0.0294
 4785TIP3    H214362   5.682   4.835   0.907  2.6801  2.5646  1.5660
 4786TIP3   OH214363   0.656   1.129   4.602  0.1872 -0.1043 -0.7516
 4786TIP3    H114364   0.658   1.133   4.507  0.8917 -1.7012 -0.8397
 4786TIP3    H214365   0.722   1.193   4.630 -0.6976  1.0705 -1.2722
 4787TIP3   OH214366   2.499   2.336   4.856 -0.4348  0.3005  0.3046
 4787TIP3    H114367   2.568   2.274   4.832  0.7176  1.3554  0.7859
 4787TIP3    H214368   2.544   2.401   4.911 -2.2419 -0.1346  2.4145
 4788TIP3   OH214369   1.598   3.658   4.390 -0.2194 -0.3702 -0.3001
 4788TIP3    H114370   1.682   3.643   4.346 -0.4544  0.1132 -0.9270
 4788TIP3    H214371   1.586   3.580   4.445  0.5560 -0.5196 -0.3285
 4789TIP3   OH214372   5.061   0.953   3.964 -0.0252 -0.2242 -0.2553
 4789TIP3    H114373   5.099   1.032   4.003 -2.0268  1.0792 -0.7954
 4789TIP3    H214374   5.073   0.885   4.031 -0.3895  1.1482  1.2684
 4790TIP3   OH214375   4.154   2.676   3.241  0.1815  0.1189 -0.4972
 4790TIP3    H114376   4.088   2.640   3.300  0.2632 -0.1272 -0.5559
 4790TIP3    H214377   4.228   2.616   3.248  0.2940  0.2418 -0.6399
 4791TIP3   OH214378   2.703   1.043   2.377 -0.0602  0.4294 -0.0987
 4791TIP3    H114379   2.789   1.077   2.351  1.1120 -1.5845  0.8472
 4791TIP3    H214380   2.719   1.003   2.463 -2.0449  0.3437  0.2618
 4792TIP3   OH214381   2.975   3.290   4.879  0.1087  0.2694 -0.0335
 4792TIP3    H114382   2.941   3.292   4.790 -0.8831 -1.1197  0.2771
 4792TIP3    H214383   3.035   3.364   4.884  1.4359 -0.5852 -2.3259
 4793TIP3   OH214384   4.540   5.987   2.570 -0.3330 -0.7049 -0.1373
 4793TIP3    H114385   4.551   5.958   2.479  0.7303 -1.1291  0.1063
 4793TIP3    H214386   4.567   5.911   2.622 -0.1630 -0.1932  0.5248
 4794TIP3   OH214387   5.153   2.302   4.184 -0.4342  0.0727  0.0257
 4794TIP3    H114388   5.159   2.206   4.186  1.6109  0.0606 -2.0868
 4794TIP3    H214389   5.216   2.331   4.251  2.7005 -0.1804 -2.5572
 4795TIP3   OH214390   4.825   0.596   2.904  0.2520  0.0803 -0.9361
 4795TIP3    H114391   4.866   0.677   2.935  1.5317 -0.2395 -1.7180
 4795TIP3    H214392   4.839   0.534   2.975  0.1805  0.2586 -0.7635
 4796TIP3   OH214393   0.568   3.208   3.649  0.5340 -0.8249  0.1245
 4796TIP3    H114394   0.474   3.190   3.637  0.5943 -0.2546 -1.4321
 4796TIP3    H214395   0.571   3.300   3.676  0.4810 -1.7717  3.8517
 4797TIP3   OH214396   4.542   2.417   4.852  0.1553  0.2139  1.1453
 4797TIP3    H114397   4.618   2.422   4.910  1.7436 -0.6845 -0.7789
 4797TIP3    H214398   4.570   2.458   4.771 -1.7281  0.6301  0.6504
 4798TIP3   OH214399   3.827   5.827   0.388  0.0339  0.4048 -0.1107
 4798TIP3    H114400   3.746   5.877   0.395 -0.6280 -0.6637  0.0450
 4798TIP3    H214401   3.837   5.811   0.294 -2.8768 -4.0000  0.0281
 4799TIP3   OH214402   4.311   1.121   4.097  0.1437 -0.7394  0.4806
 4799TIP3    H114403   4.254   1.139   4.022  1.5720  0.4347 -0.3813
 4799TIP3    H214404   4.262   1.155   4.172  1.3124  4.3652 -0.6818
 4800TIP3   OH214405   3.476   0.936   2.506 -0.1655  0.0131  0.4570
 4800TIP3    H114406   3.563   0.976   2.506  0.2754 -0.8434 -1.3196
 4800TIP3    H214407   3.492   0.843   2.489 -1.4279 -0.2062  0.3620
 4801TIP3   OH214408   0.350   2.300   0.754  0.1426 -0.0784 -0.0725
 4801TIP3    H114409   0.258   2.276   0.747 -0.9304  3.5561 -0.2109
 4801TIP3    H214410   0.357   2.344   0.839  1.3895  1.0037 -0.6982
 4802TIP3   OH214411   4.524   0.763   2.187  0.1610  0.0967 -0.4489
 4802TIP3    H114412   4.565   0.845   2.215 -0.3638  0.3499 -0.4122
 4802TIP3    H214413   4.519   0.770   2.092 -1.0191  0.6643 -0.3643
 4803TIP3   OH214414   2.698   3.136   4.771  0.0059  0.0582  0.2748
 4803TIP3    H114415   2.656   3.217   4.797  0.7148 -0.1507  2.1717
 4803TIP3    H214416   2.722   3.150   4.679 -1.1834  1.4190  0.1433
 4804TIP3   OH214417   3.810   3.147   1.055  0.5551  0.4280 -0.0669
 4804TIP3    H114418   3.732   3.135   1.001 -1.6681  0.0271  2.9690
 4804TIP3    H214419   3.834   3.239   1.041 -0.2653  0.4876 -1.2959
 4805TIP3   OH214420   6.085   1.423   4.924  0.0421  0.7450  0.3825
 4805TIP3    H114421   6.132   1.369   4.860  0.4407  0.7372  0.6829
 4805TIP3    H214422   6.083   1.510   4.885 -0.2181  0.6158  0.0985
 4806TIP3   OH214423   4.575   1.876   3.745  0.0653  0.0726  0.3835
 4806TIP3    H114424   4.497   1.930   3.758  0.1458  0.7537 -1.6349
 4806TIP3    H214425   4.545   1.787   3.764 -0.3052  0.6235  2.8388
 4807TIP3   OH214426   2.668   1.347   4.749  0.5045 -0.0913 -0.6719
 4807TIP3    H114427   2.749   1.325   4.703  1.8354 -0.2255  1.5806
 4807TIP3    H214428   2.602   1.291   4.710  1.6853 -0.6369 -1.9561
 4808TIP3   OH214429   4.626   1.981   2.476  0.6294 -0.0115 -0.3118
 4808TIP3    H114430   4.636   2.070   2.510 -0.8089  0.0205  0.0883
 4808TIP3    H214431   4.646   1.925   2.551 -1.3614  0.0459  0.3273
 4809TIP3   OH214432   3.102   4.458   0.394 -0.1764  0.4270  0.3813
 4809TIP3    H114433   3.140   4.441   0.480 -0.2127  1.3967  0.6031
 4809TIP3    H214434   3.176   4.449   0.333 -0.1093 -0.0637  0.5336
 4810TIP3   OH214435   0.320   2.846   4.537  0.0078 -0.4691  0.4032
 4810TIP3    H114436   0.327   2.942   4.536 -0.8966 -0.3743  1.3466
 4810TIP3    H214437   0.270   2.827   4.617  2.1478 -1.8538  1.5190
 4811TIP3   OH214438   5.599   1.815   2.333 -0.2686  0.1447  0.4590
 4811TIP3    H114439   5.651   1.853   2.262 -0.0023 -0.1925  0.4745
 4811TIP3    H214440   5.654   1.824   2.410  0.2249 -1.2051  0.2792
 4812TIP3   OH214441   4.073   1.455   4.038 -0.2767 -0.0498  0.2195
 4812TIP3    H114442   3.984   1.472   4.005 -0.0254  1.5371  0.2559
 4812TIP3    H214443   4.128   1.455   3.959 -0.0191  1.2897  0.3655
 4813TIP3   OH214444   4.070   2.155   2.723  0.0670 -0.2804  0.6179
 4813TIP3    H114445   3.982   2.126   2.748 -0.0228  0.8179  1.7010
 4813TIP3    H214446   4.094   2.218   2.791  0.9821  0.7696 -0.6359
 4814TIP3   OH214447   5.129   2.606   0.325  0.1172  0.1607  0.3768
 4814TIP3    H114448   5.217   2.592   0.359  0.8000  1.4499 -0.7606
 4814TIP3    H214449   5.094   2.679   0.377 -0.0448  0.0435  0.4328
 4815TIP3   OH214450   3.838   0.640   0.740 -0.3341 -0.2468  0.2458
 4815TIP3    H114451   3.920   0.599   0.713 -1.0926 -0.4070 -2.0567
 4815TIP3    H214452   3.770   0.586   0.700 -1.4465  1.8484 -0.8658
 4816TIP3   OH214453   3.334   5.376   2.565 -0.0137 -0.7198 -0.4865
 4816TIP3    H114454   3.376   5.424   2.637 -0.0674  0.6976 -1.3732
 4816TIP3    H214455   3.304   5.295   2.605  3.7781 -2.0032  0.2134
 4817TIP3   OH214456   3.254   2.617   3.375 -0.0906  0.0209 -0.1562
 4817TIP3    H114457   3.191   2.690   3.370 -0.3205 -0.2504 -2.0250
 4817TIP3    H214458   3.200   2.540   3.389 -0.2282 -0.2089 -1.7354
 4818TIP3   OH214459   2.543   4.136   2.178 -0.4272  0.0391 -0.0060
 4818TIP3    H114460   2.455   4.103   2.165  0.2186 -1.4758 -0.6928
 4818TIP3    H214461   2.537   4.190   2.257 -2.3587  1.5621 -1.1072
 4819TIP3   OH214462   5.163   1.524   1.073 -0.0497  0.1323 -0.3185
 4819TIP3    H114463   5.167   1.573   1.155 -3.3702 -1.2363  0.8527
 4819TIP3    H214464   5.127   1.586   1.009 -2.0814 -0.0495  0.5767
 4820TIP3   OH214465   2.782   3.446   0.042 -0.1355 -0.7259 -0.3161
 4820TIP3    H114466   2.802   3.455  -0.051 -2.2230  0.6626 -0.6756
 4820TIP3    H214467   2.692   3.475   0.051  0.6847  1.3966  2.4920
 4821TIP3   OH214468   2.105   3.283   4.222  0.2715  0.4618  0.6488
 4821TIP3    H114469   2.077   3.230   4.297  0.4415 -0.7521 -0.1182
 4821TIP3    H214470   2.068   3.238   4.146  0.2375  1.5800 -0.0175
 4822TIP3   OH214471   4.325   4.095   4.678  0.5590  0.3482 -0.4370
 4822TIP3    H114472   4.370   4.068   4.758 -1.3895 -0.6497  0.4000
 4822TIP3    H214473   4.253   4.150   4.709 -1.3416 -1.5414 -1.2841
 4823TIP3   OH214474   5.878   4.815   4.457 -0.2905  0.3094  0.0147
 4823TIP3    H114475   5.845   4.857   4.536  0.2743  0.1326  0.3529
 4823TIP3    H214476   5.973   4.812   4.470 -0.3855 -2.3607  0.6477
 4824TIP3   OH214477   3.922   1.571   2.191 -0.0252  0.0105 -0.4517
 4824TIP3    H114478   3.842   1.519   2.197  1.4781 -2.3379  1.5073
 4824TIP3    H214479   3.970   1.550   2.271  3.0589  0.4568 -2.0254
 4825TIP3   OH214480   0.383   1.221   0.369  0.1714  0.1148 -0.0147
 4825TIP3    H114481   0.358   1.312   0.384  1.6210  0.7585 -1.2382
 4825TIP3    H214482   0.452   1.204   0.432 -1.0521 -0.6388  1.1842
 4826TIP3   OH214483   3.250   3.454   3.846 -0.6540 -0.1255 -0.4805
 4826TIP3    H114484   3.293   3.502   3.775 -0.4528 -0.3746 -0.5264
 4826TIP3    H214485   3.297   3.481   3.925 -1.3381  0.7075 -0.3403
 4827TIP3   OH214486   5.235   0.740   1.426 -0.0914  0.8006 -0.0689
 4827TIP3    H114487   5.319   0.716   1.465 -0.8829 -0.8595  0.6961
 4827TIP3    H214488   5.198   0.805   1.485 -0.3359 -0.1330  0.8186
 4828TIP3   OH214489   3.781   4.360   0.501  0.1452 -0.3303 -1.0200
 4828TIP3    H114490   3.812   4.444   0.534 -0.9838 -0.2352 -0.1354
 4828TIP3    H214491   3.742   4.317   0.578 -1.7062 -0.5139 -1.9965
 4829TIP3   OH214492   4.870   2.816   1.314  0.3710  0.1505  0.1235
 4829TIP3    H114493   4.807   2.883   1.339 -0.7656 -0.8319 -0.0359
 4829TIP3    H214494   4.898   2.778   1.398  0.0323 -0.0477  0.1487
 4830TIP3   OH214495   3.388   4.779   0.812  0.5149 -0.1221 -0.0753
 4830TIP3    H114496   3.470   4.827   0.814  0.3092  0.2958 -1.1730
 4830TIP3    H214497   3.321   4.845   0.829  0.2717 -0.1085 -1.0582
 4831TIP3   OH214498   3.714   2.776   2.960  0.3586 -0.1952  0.3203
 4831TIP3    H114499   3.744   2.865   2.943  0.1293 -0.1143  0.3319
 4831TIP3    H214500   3.628   2.787   3.001  0.0902 -0.4274 -0.1586
 4832TIP3   OH214501   5.415   3.382   1.291  0.4473  0.1311  0.3028
 4832TIP3    H114502   5.356   3.328   1.343 -0.7330  1.3918  0.3317
 4832TIP3    H214503   5.474   3.320   1.249 -2.0172 -1.3715 -1.1605
 4833TIP3   OH214504   6.223   2.604   2.075  0.0314 -0.6636  0.0357
 4833TIP3    H114505   6.243   2.697   2.086  2.3834 -0.9937 -0.8687
 4833TIP3    H214506   6.211   2.593   1.980  0.5006 -1.4036  0.0570
 4834TIP3   OH214507   4.689   0.980   3.437  0.0945 -0.3013  0.5183
 4834TIP3    H114508   4.738   0.954   3.515  1.5482  0.2177 -0.1902
 4834TIP3    H214509   4.623   1.042   3.469  1.8730  1.3651  1.1218
 4835TIP3   OH214510   6.183   0.731   4.060 -0.2216  0.3489 -0.2063
 4835TIP3    H114511   6.182   0.821   4.028  0.8461  1.1157  1.7818
 4835TIP3    H214512   6.208   0.679   3.983 -2.8950  1.4325 -1.9445
 4836TIP3   OH214513   5.169   4.055   4.278 -0.2499 -0.2377  0.0290
 4836TIP3    H114514   5.087   4.011   4.260 -0.6422  0.6818 -0.5193
 4836TIP3    H214515   5.170   4.067   4.373 -0.5200 -0.6911  0.0890
 4837TIP3   OH214516   5.398   2.325   2.116 -0.0538 -0.0168  0.4894
 4837TIP3    H114517   5.348   2.244   2.103  0.2889 -0.2756  0.7704
 4837TIP3    H214518   5.471   2.299   2.172  0.2888  0.4032  0.2399
 4838TIP3   OH214519   5.223   0.231   1.861  0.0444 -0.2372 -0.3203
 4838TIP3    H114520   5.227   0.161   1.926  5.0025  2.3440  2.8116
 4838TIP3    H214521   5.179   0.303   1.907 -0.0991  0.3984 -1.4270
 4839TIP3   OH214522   0.974   3.107   4.559 -0.0230 -0.0757 -0.3272
 4839TIP3    H114523   1.022   3.045   4.614 -0.5931  0.0023  0.2733
 4839TIP3    H214524   0.960   3.183   4.616 -1.0369 -0.1834 -0.4103
 4840TIP3   OH214525   2.888   5.689   2.742 -0.3764  0.1684 -0.1644
 4840TIP3    H114526   2.976   5.707   2.775 -0.2298  2.8702 -1.7108
 4840TIP3    H214527   2.889   5.596   2.720  2.0900  0.1091 -0.0847
 4841TIP3   OH214528   4.291   4.452   4.156 -0.3154  0.6607 -0.1676
 4841TIP3    H114529   4.315   4.473   4.066  1.6573  2.2085  0.6443
 4841TIP3    H214530   4.354   4.384   4.183 -0.3198  0.8397  0.3110
 4842TIP3   OH214531   5.291   2.662   1.137  0.4740  0.6153 -0.0323
 4842TIP3    H114532   5.274   2.751   1.106  0.1061  0.2112 -1.0255
 4842TIP3    H214533   5.333   2.674   1.222  0.0990  1.7310  0.0119
 4843TIP3   OH214534   0.123   5.042   3.472 -0.4629  0.0698 -0.0733
 4843TIP3    H114535   0.091   5.081   3.391 -0.9820 -1.9291 -0.8981
 4843TIP3    H214536   0.206   5.002   3.449 -0.1265  0.3183  0.6522
 4844TIP3   OH214537   6.265   2.422   2.412  0.1214 -0.1022  0.1300
 4844TIP3    H114538   6.205   2.497   2.405  0.2780  0.0076 -0.0541
 4844TIP3    H214539   6.208   2.348   2.432 -0.4388 -0.5294 -2.5744
 4845TIP3   OH214540   1.915   1.223   1.709 -0.1872  0.4317  0.5101
 4845TIP3    H114541   1.861   1.179   1.644 -0.4200  0.0343  0.9681
 4845TIP3    H214542   2.005   1.197   1.687 -0.0587  1.9335 -0.8968
 4846TIP3   OH214543   3.436   0.469   1.083  0.4934 -0.2224 -0.6653
 4846TIP3    H114544   3.343   0.484   1.065  0.5082  0.2495 -0.3700
 4846TIP3    H214545   3.465   0.410   1.014  0.1628  0.2541 -1.2174
 4847TIP3   OH214546   1.478   0.620   0.555  0.0539  0.4794 -0.1084
 4847TIP3    H114547   1.403   0.670   0.521  1.4578  2.9422  0.2110
 4847TIP3    H214548   1.465   0.619   0.650 -0.3456 -0.4691 -0.1595
 4848TIP3   OH214549   3.807   4.701   3.093 -0.3567  0.2179  0.2131
 4848TIP3    H114550   3.773   4.677   3.006  0.3913 -0.0650 -0.0071
 4848TIP3    H214551   3.847   4.786   3.080  0.0961  0.0045  0.1870
 4849TIP3   OH214552   4.181   5.444   2.017  0.9509  0.0928  0.0250
 4849TIP3    H114553   4.175   5.519   1.957 -0.1833 -2.3472 -3.2531
 4849TIP3    H214554   4.092   5.409   2.020  1.1253 -0.3169  2.7154
 4850TIP3   OH214555   3.204   5.095   4.484  0.3525  0.9423 -0.2602
 4850TIP3    H114556   3.268   5.097   4.556 -0.2343  1.0606  0.2631
 4850TIP3    H214557   3.121   5.074   4.526 -0.2407  2.2996 -0.7081
 4851TIP3   OH214558   3.872   0.635   1.563  0.0551  0.0147  0.1690
 4851TIP3    H114559   3.884   0.716   1.513 -0.8983 -0.2953 -0.6238
 4851TIP3    H214560   3.872   0.566   1.496  4.1650 -1.0982  1.0692
 4852TIP3   OH214561   1.121   5.864   3.099  0.2546  0.4809  0.1917
 4852TIP3    H114562   1.031   5.834   3.086  0.1528  0.5980  0.6275
 4852TIP3    H214563   1.121   5.954   3.066  1.0203 -0.5345 -2.9471
 4853TIP3   OH214564   5.287   2.108   4.976  0.6115 -0.2449 -0.2683
 4853TIP3    H114565   5.196   2.134   4.992  0.5667 -0.3735 -0.3184
 4853TIP3    H214566   5.281   2.020   4.939  0.7930 -0.5177  0.3420
 4854TIP3   OH214567   4.483   2.334   0.354 -0.1809  0.1773  0.3877
 4854TIP3    H114568   4.435   2.418   0.357 -0.0718  0.3694 -1.6844
 4854TIP3    H214569   4.568   2.354   0.392 -0.3708  0.8758  0.4666
 4855TIP3   OH214570   4.660   0.613   3.614  0.6766  0.3767 -0.1270
 4855TIP3    H114571   4.730   0.628   3.551 -0.1451  0.3561 -1.0570
 4855TIP3    H214572   4.678   0.525   3.650  1.7878  0.8525  0.5339
 4856TIP3   OH214573   5.856   2.298   0.327  0.0484  0.1060  0.3583
 4856TIP3    H114574   5.824   2.299   0.236  0.1741  0.3251  0.3158
 4856TIP3    H214575   5.878   2.390   0.345  0.7903 -0.0650  0.3394
 4857TIP3   OH214576   2.327   2.884   1.888  0.2123  0.7179  0.2662
 4857TIP3    H114577   2.297   2.954   1.830  1.1509  0.7379 -0.2037
 4857TIP3    H214578   2.418   2.868   1.863  0.2288 -0.1914  0.8369
 4858TIP3   OH214579   2.742   5.422   0.636  0.2556 -0.3369  0.3470
 4858TIP3    H114580   2.701   5.445   0.719 -2.4060 -0.0293 -0.9545
 4858TIP3    H214581   2.682   5.359   0.596  1.6346 -0.7206 -1.2240
 4859TIP3   OH214582   2.858   3.047   5.006 -0.2912 -0.0121 -0.1070
 4859TIP3    H114583   2.811   2.998   4.939 -2.2334  1.3746  0.1222
 4859TIP3    H214584   2.880   3.131   4.964  0.7320 -0.0915  0.2412
 4860TIP3   OH214585   0.510   1.287   4.149  0.1698 -0.0852  0.1107
 4860TIP3    H114586   0.570   1.346   4.103  0.3578 -0.7004 -0.4415
 4860TIP3    H214587   0.486   1.335   4.228 -2.0338  2.0520 -1.6907
 4861TIP3   OH214588   4.693   0.235   5.202  0.3378 -0.1593  0.4515
 4861TIP3    H114589   4.642   0.155   5.193  0.1907  0.0444 -0.8028
 4861TIP3    H214590   4.743   0.240   5.120  2.4863 -0.4144  1.6556
 4862TIP3   OH214591   1.248   3.512   4.129 -0.0642  0.1854  0.2367
 4862TIP3    H114592   1.249   3.483   4.038  0.2899  0.5843  0.1111
 4862TIP3    H214593   1.281   3.437   4.178  0.0036  0.0669  0.0097
 4863TIP3   OH214594   3.071   3.237   0.430  0.1844  0.3634  0.0589
 4863TIP3    H114595   3.006   3.263   0.365 -1.8699 -0.4487  1.6694
 4863TIP3    H214596   3.068   3.306   0.497 -1.8486 -1.4120  1.9790
 4864TIP3   OH214597   5.295   3.280   5.204 -0.3424  0.1580  0.1605
 4864TIP3    H114598   5.296   3.364   5.159  1.0885 -0.7302 -1.5982
 4864TIP3    H214599   5.271   3.217   5.137 -1.6699 -0.8581  1.5071
 4865TIP3   OH214600   1.873   5.533   2.321 -0.4886 -0.4454 -0.0098
 4865TIP3    H114601   1.909   5.511   2.407 -0.6060  0.3084  0.2346
 4865TIP3    H214602   1.936   5.496   2.259 -0.0590 -0.4181  0.4036
 4866TIP3   OH214603   3.900   4.667   3.447  0.5290  0.1127 -0.0446
 4866TIP3    H114604   3.866   4.756   3.443 -0.1115 -0.1279 -0.1364
 4866TIP3    H214605   3.843   4.617   3.389 -0.6586 -0.8189  1.8155
 4867TIP3   OH214606   1.530   2.534   2.982 -0.1138  0.0318 -0.2077
 4867TIP3    H114607   1.577   2.517   3.063 -2.6097  1.8373  1.8105
 4867TIP3    H214608   1.525   2.449   2.938  1.2455 -1.0234  1.5380
 4868TIP3   OH214609   2.466   3.158   3.669 -0.3434  0.0477  0.1924
 4868TIP3    H114610   2.443   3.111   3.749  1.1605  2.4570  2.2130
 4868TIP3    H214611   2.550   3.121   3.642 -0.4427 -0.2001  0.2230
 4869TIP3   OH214612   3.219   5.619   4.316  0.5122 -0.7098 -0.7803
 4869TIP3    H114613   3.200   5.571   4.397 -1.2639  1.6740  0.3319
 4869TIP3    H214614   3.169   5.573   4.248 -2.8005  0.5140  0.6107
 4870TIP3   OH214615   4.704   4.740   3.039  0.2256 -0.2792  0.4203
 4870TIP3    H114616   4.639   4.721   3.106  0.7362  0.0394  1.0171
 4870TIP3    H214617   4.673   4.694   2.961 -2.0163  1.8077 -0.0293
 4871TIP3   OH214618   1.083   0.209   5.140  0.9580 -0.1533 -0.0639
 4871TIP3    H114619   1.051   0.297   5.122  0.0282 -0.3162  0.6891
 4871TIP3    H214620   1.004   0.158   5.158  1.5019 -1.0783 -0.2002
 4872TIP3   OH214621   3.803   1.488   0.798 -0.2523 -1.2314  0.2053
 4872TIP3    H114622   3.888   1.477   0.755 -0.1297 -2.4406  0.6932
 4872TIP3    H214623   3.814   1.563   0.856 -0.5346  0.6635 -2.0847
 4873TIP3   OH214624   0.848   1.653   0.785  0.8246 -0.4497  0.0276
 4873TIP3    H114625   0.896   1.733   0.763  2.6783 -1.8471 -1.3630
 4873TIP3    H214626   0.916   1.585   0.789 -1.0189 -2.5886 -2.1863
 4874TIP3   OH214627   0.339   2.654   0.048 -0.3187 -0.1837 -0.1800
 4874TIP3    H114628   0.251   2.633   0.080  0.3754 -1.0174  1.2896
 4874TIP3    H214629   0.376   2.570   0.020  0.1521  0.0929 -0.4103
 4875TIP3   OH214630   1.626   4.728   0.408  0.0463  0.6253 -0.0322
 4875TIP3    H114631   1.583   4.669   0.346 -1.0152 -0.4405  1.6249
 4875TIP3    H214632   1.620   4.815   0.367  0.4656 -0.1866 -1.9264
 4876TIP3   OH214633   1.704   3.005   2.812 -0.3571 -0.1806  0.1281
 4876TIP3    H114634   1.731   2.913   2.807 -2.0969 -0.8715  1.8589
 4876TIP3    H214635   1.756   3.041   2.884 -0.0059  0.0573 -0.2457
 4877TIP3   OH214636   3.168   2.404   4.082 -0.2317 -0.4726 -0.2191
 4877TIP3    H114637   3.172   2.338   4.013 -1.5355 -0.3262 -0.4529
 4877TIP3    H214638   3.158   2.487   4.035 -1.7510 -0.4253  0.1217
 4878TIP3   OH214639   1.797   4.148   4.863 -0.1706 -0.5883  0.1017
 4878TIP3    H114640   1.745   4.068   4.863 -0.6077 -0.3107  0.7189
 4878TIP3    H214641   1.874   4.127   4.809 -0.6913 -1.1491 -0.4366
 4879TIP3   OH214642   5.599   2.022   1.881  0.4722  0.0869  0.1646
 4879TIP3    H114643   5.679   2.065   1.850  0.8187 -0.6035  0.0703
 4879TIP3    H214644   5.620   1.929   1.878  0.0924 -0.0514  1.3299
 4880TIP3   OH214645   2.097   4.393   3.088 -0.7154  0.7817  0.6087
 4880TIP3    H114646   2.119   4.456   3.019  0.9500  0.0422  0.4266
 4880TIP3    H214647   2.064   4.316   3.041 -0.5160  0.6413  0.7001
 4881TIP3   OH214648   2.168   0.556   2.793 -0.8123  0.1501 -0.3265
 4881TIP3    H114649   2.174   0.486   2.858 -3.0394  0.7470  0.6296
 4881TIP3    H214650   2.163   0.510   2.709  0.6164 -0.6885  0.0095
 4882TIP3   OH214651   1.560   1.388   2.503  0.2172  0.1119 -0.5306
 4882TIP3    H114652   1.613   1.443   2.445 -1.5247  0.9159 -1.4431
 4882TIP3    H214653   1.523   1.321   2.446 -0.4581  0.1060 -0.0932
 4883TIP3   OH214654   2.243   5.274   1.220 -0.1442 -0.1151  0.5494
 4883TIP3    H114655   2.308   5.333   1.182 -1.5402  1.1743  0.0417
 4883TIP3    H214656   2.184   5.254   1.147  0.0335 -1.8121  0.8314
 4884TIP3   OH214657   4.295   0.969   0.076 -0.2530  0.0386  0.4055
 4884TIP3    H114658   4.243   1.022   0.137  0.5804  0.0568  1.1188
 4884TIP3    H214659   4.315   1.029   0.004 -1.1447  0.0521  0.1505
 4885TIP3   OH214660   4.309   3.322   1.369  0.2515 -0.0606  0.6497
 4885TIP3    H114661   4.327   3.375   1.447  0.2536 -0.0443  0.6380
 4885TIP3    H214662   4.287   3.386   1.301 -0.2963 -0.1044  0.7817
 4886TIP3   OH214663   5.362   5.897   0.028  0.1355 -0.5053  0.3055
 4886TIP3    H114664   5.436   5.877   0.085 -0.0766  1.7013  1.4554
 4886TIP3    H214665   5.375   5.842  -0.049  0.9095 -2.9673  2.0602
 4887TIP3   OH214666   5.612   3.323   4.287 -0.3598 -0.3663  0.0699
 4887TIP3    H114667   5.553   3.266   4.238 -1.6488 -1.5151  2.7458
 4887TIP3    H214668   5.554   3.384   4.333  0.7322  0.3579  0.5428
 4888TIP3   OH214669   1.996   4.120   3.673 -0.2275  0.3837  0.2404
 4888TIP3    H114670   2.089   4.126   3.695  0.0882 -1.2613 -0.4702
 4888TIP3    H214671   1.957   4.199   3.710  1.7137  1.9387 -0.8230
 4889TIP3   OH214672   5.533   5.734   0.173 -0.0001 -0.5610 -0.7885
 4889TIP3    H114673   5.583   5.741   0.254  0.6902 -1.0984 -1.1543
 4889TIP3    H214674   5.598   5.710   0.107 -0.7450 -1.3000 -1.2716
 4890TIP3   OH214675   6.081   5.044   0.818  0.0030  0.3702  0.1989
 4890TIP3    H114676   6.048   5.071   0.732  3.2976  0.3248 -1.2171
 4890TIP3    H214677   6.129   5.121   0.850  1.4563 -0.6240  0.5008
 4891TIP3   OH214678   5.409   4.085   1.604  0.1277  0.0045  0.0084
 4891TIP3    H114679   5.428   4.149   1.673  1.7033  0.9187 -1.1945
 4891TIP3    H214680   5.314   4.078   1.603 -0.0064  1.1833  1.1995
 4892TIP3   OH214681   5.352   4.748   0.627  0.1650  0.2899  0.2517
 4892TIP3    H114682   5.275   4.728   0.574  1.7867  0.6661 -2.4247
 4892TIP3    H214683   5.317   4.795   0.703 -2.3120 -0.5560 -0.2693
 4893TIP3   OH214684   6.129   1.254   0.527  0.4862  0.2335  0.2715
 4893TIP3    H114685   6.048   1.206   0.507  0.8931  0.0954 -1.1137
 4893TIP3    H214686   6.162   1.212   0.606  0.7024 -1.6446 -0.7557
 4894TIP3   OH214687   4.241   2.544   4.078  0.0837  0.4574 -0.1714
 4894TIP3    H114688   4.294   2.470   4.047  0.3230  0.2132  0.7851
 4894TIP3    H214689   4.163   2.542   4.023 -0.1068 -0.7718  0.1064
 4895TIP3   OH214690   1.931   3.302   2.096  0.0681 -0.3502  0.2595
 4895TIP3    H114691   1.881   3.250   2.034  0.9710 -0.5026 -0.3713
 4895TIP3    H214692   1.988   3.239   2.140  1.2039  0.0847 -0.5411
 4896TIP3   OH214693   3.863   1.854   4.144  0.3308  0.9277 -0.1571
 4896TIP3    H114694   3.838   1.868   4.053  0.1781  0.5220 -0.1787
 4896TIP3    H214695   3.790   1.890   4.195 -1.0348 -1.5049 -0.2297
 4897TIP3   OH214696   5.041   0.394   4.281 -0.3869 -0.2161  0.4796
 4897TIP3    H114697   4.946   0.380   4.275 -0.5492 -0.0562  2.1448
 4897TIP3    H214698   5.074   0.373   4.193 -1.8896 -0.7816  0.0122
 4898TIP3   OH214699   1.561   2.038   1.684  0.0782 -0.4213  0.0767
 4898TIP3    H114700   1.474   2.034   1.724  1.1472 -3.0670  2.5747
 4898TIP3    H214701   1.549   1.999   1.597 -1.5356  1.2039 -0.4892
 4899TIP3   OH214702   4.928   3.268   3.682  0.1432  0.2051  0.6161
 4899TIP3    H114703   4.868   3.219   3.738 -0.7491 -0.8477 -1.1700
 4899TIP3    H214704   4.919   3.228   3.595  3.5690 -0.1301  0.2523
 4900TIP3   OH214705   5.998   5.965   1.635 -0.1746  0.1588  0.3204
 4900TIP3    H114706   6.066   5.897   1.631 -1.0340 -0.7224  0.2090
 4900TIP3    H214707   5.937   5.941   1.565 -0.8211  0.6899  0.6965
 4901TIP3   OH214708   5.636   2.926   2.661  0.0333 -0.1319 -0.3536
 4901TIP3    H114709   5.694   2.952   2.733  0.0762 -0.5383 -0.2380
 4901TIP3    H214710   5.582   2.856   2.698 -0.4270  0.1417 -0.5094
 4902TIP3   OH214711   3.735   0.536   2.701  0.0306  0.4141  0.1372
 4902TIP3    H114712   3.653   0.567   2.741 -0.3359 -0.3389 -0.0078
 4902TIP3    H214713   3.780   0.616   2.676 -0.0381  0.8911  1.4277
 4903TIP3   OH214714   0.489   0.870   4.789  0.4682 -0.1605  0.0408
 4903TIP3    H114715   0.566   0.912   4.829  0.8885  0.1241 -1.0457
 4903TIP3    H214716   0.522   0.787   4.756 -0.4285 -1.5708  2.4690
 4904TIP3   OH214717   1.277   3.209   4.171 -0.5171  0.1547 -0.5111
 4904TIP3    H114718   1.234   3.184   4.253 -0.0795  1.5431  0.1695
 4904TIP3    H214719   1.359   3.160   4.172 -0.6842 -0.1277 -0.3072
 4905TIP3   OH214720   4.165   0.639   4.793  0.2993 -0.0334 -0.0933
 4905TIP3    H114721   4.175   0.606   4.883 -0.3807 -0.4688 -0.1728
 4905TIP3    H214722   4.112   0.573   4.749 -0.8503  1.0246 -0.3388
 4906TIP3   OH214723   5.992   0.562   3.018  0.5809 -0.1268 -0.7403
 4906TIP3    H114724   6.087   0.574   3.015  0.5955  0.0780  0.1181
 4906TIP3    H214725   5.979   0.477   3.060  0.3881 -0.0714 -0.6835
 4907TIP3   OH214726   2.849   3.554   0.859  0.5207 -0.4893 -0.4556
 4907TIP3    H114727   2.873   3.528   0.948 -0.6005 -1.9941 -0.5626
 4907TIP3    H214728   2.832   3.472   0.813  1.5623  0.2350 -2.2367
 4908TIP3   OH214729   0.026   4.215   1.509 -0.1532  0.3384  0.1452
 4908TIP3    H114730   0.091   4.145   1.517  0.9398  1.3176  0.2576
 4908TIP3    H214731   0.016   4.228   1.415  0.1398  0.4692  0.1313
 4909TIP3   OH214732   4.731   4.820   0.940 -0.3681  0.7992 -0.6893
 4909TIP3    H114733   4.672   4.865   0.999 -0.0034  1.0882 -0.5401
 4909TIP3    H214734   4.680   4.746   0.906  0.5291 -1.6927  2.8365
 4910TIP3   OH214735   5.064   2.321   3.081  0.5682 -0.2264  0.1399
 4910TIP3    H114736   5.010   2.330   3.160  0.3588 -2.0736  0.2373
 4910TIP3    H214737   5.088   2.411   3.059 -1.2482  0.5313  1.0046
 4911TIP3   OH214738   1.981   5.048   0.612  0.5544  0.1221  0.2490
 4911TIP3    H114739   1.892   5.074   0.589  0.6305 -1.7332 -2.6438
 4911TIP3    H214740   1.975   4.955   0.632  1.4039  0.6361  3.2766
 4912TIP3   OH214741   4.826   2.189   1.887 -0.1094 -0.1265  0.3114
 4912TIP3    H114742   4.890   2.215   1.820 -0.2295  0.5519  0.4514
 4912TIP3    H214743   4.878   2.175   1.966 -0.2453  1.6725  0.7662
 4913TIP3   OH214744   2.926   2.349   3.724 -0.1941  0.5074 -0.2013
 4913TIP3    H114745   2.912   2.444   3.725  0.5105  0.6393 -1.2716
 4913TIP3    H214746   2.893   2.319   3.809 -1.0581  1.6106 -0.1217
 4914TIP3   OH214747   5.093   2.816   0.493  0.1652 -0.7499  0.3026
 4914TIP3    H114748   5.115   2.903   0.461 -1.2897 -0.3606  0.3129
 4914TIP3    H214749   5.134   2.812   0.580 -0.6178  0.3345  0.7489
 4915TIP3   OH214750   4.358   4.495   4.699  0.3954 -0.2468 -0.3581
 4915TIP3    H114751   4.402   4.409   4.705  1.4465  0.1442 -1.8831
 4915TIP3    H214752   4.396   4.536   4.621 -1.7493  0.6914 -0.9785
 4916TIP3   OH214753   5.345   2.475   4.977  0.0180  0.4179  0.5163
 4916TIP3    H114754   5.341   2.571   4.980  0.1021  0.4046  1.1511
 4916TIP3    H214755   5.317   2.447   5.064  0.3552 -0.1260  0.4530
 4917TIP3   OH214756   2.755   3.127   2.883  0.2779 -0.3594 -0.0874
 4917TIP3    H114757   2.708   3.128   2.799  3.2353  1.2408 -1.8773
 4917TIP3    H214758   2.762   3.034   2.905  0.1979 -0.8955 -2.1191
 4918TIP3   OH214759   1.626   3.433   3.133  0.5572 -0.4092  0.1116
 4918TIP3    H114760   1.654   3.349   3.169  1.3908  0.1246  0.7448
 4918TIP3    H214761   1.690   3.496   3.165  0.2545  0.3947 -0.7995
 4919TIP3   OH214762   2.456   0.814   4.445 -0.3444 -0.4055  0.5139
 4919TIP3    H114763   2.484   0.867   4.370  1.2301  0.7105  1.8049
 4919TIP3    H214764   2.387   0.758   4.411  2.4330 -2.2910 -2.6426
 4920TIP3   OH214765   1.429   5.185   0.307 -0.2077 -0.3765  0.3666
 4920TIP3    H114766   1.334   5.178   0.306 -0.2186 -0.5588 -2.0553
 4920TIP3    H214767   1.448   5.267   0.263  0.7772 -1.1042 -0.6309
 4921TIP3   OH214768   3.968   1.153   0.613 -0.1607 -0.1658  0.6481
 4921TIP3    H114769   4.043   1.212   0.614  0.6098 -1.0698 -0.5859
 4921TIP3    H214770   3.905   1.195   0.554  0.2346 -0.3856  0.0608
 4922TIP3   OH214771   1.807   5.755   2.828  0.0743 -0.5455 -0.4130
 4922TIP3    H114772   1.831   5.813   2.901  0.7385 -1.4475  0.1063
 4922TIP3    H214773   1.771   5.814   2.761 -0.0304  0.3629  0.4184
 4923TIP3   OH214774   2.402   1.438   1.284 -0.1278 -0.4186  0.4403
 4923TIP3    H114775   2.460   1.371   1.246 -1.1157 -0.0337 -1.9365
 4923TIP3    H214776   2.445   1.464   1.365  1.0350 -2.8773  0.7079
 4924TIP3   OH214777   2.726   2.175   1.693 -0.1748 -0.6356  0.2148
 4924TIP3    H114778   2.720   2.150   1.786  1.3490 -0.0007  0.5222
 4924TIP3    H214779   2.638   2.204   1.670 -0.0917  1.4240  2.1336
 4925TIP3   OH214780   4.620   3.583   0.645 -0.2548 -0.2277 -0.1429
 4925TIP3    H114781   4.570   3.611   0.721  1.5020  0.7515  0.7295
 4925TIP3    H214782   4.651   3.495   0.667 -0.4497 -0.2787 -0.0766
 4926TIP3   OH214783   4.249   1.188   0.272 -0.3818  0.3341 -0.3615
 4926TIP3    H114784   4.341   1.178   0.294 -0.8382 -1.4889  0.9863
 4926TIP3    H214785   4.217   1.254   0.333 -0.2018  0.1597 -0.0779
 4927TIP3   OH214786   4.301   0.824   4.265 -0.1252 -0.0910 -0.0120
 4927TIP3    H114787   4.215   0.866   4.267  0.4363  1.1019 -0.0491
 4927TIP3    H214788   4.282   0.730   4.261 -1.4258  0.1734 -0.6596
 4928TIP3   OH214789   4.031   2.281   3.256 -0.5052 -0.4018 -0.9576
 4928TIP3    H114790   3.953   2.302   3.204 -2.6041 -1.9697  1.3640
 4928TIP3    H214791   4.047   2.359   3.308 -0.8170 -0.2336 -1.1115
 4929TIP3   OH214792   0.909   5.385   0.542 -0.6435 -0.7788  0.2317
 4929TIP3    H114793   0.847   5.342   0.600 -0.3626 -0.0740  1.0599
 4929TIP3    H214794   0.981   5.413   0.599 -0.9020  0.9554 -0.2436
 4930TIP3   OH214795   4.817   2.914   3.499  0.2317 -0.0383  0.0547
 4930TIP3    H114796   4.891   2.930   3.557 -1.0878  2.3835  1.2035
 4930TIP3    H214797   4.784   3.001   3.477 -1.3629 -1.0004 -1.6494
 4931TIP3   OH214798   2.686   0.647   3.021  0.1833  0.2048  0.0744
 4931TIP3    H114799   2.629   0.578   3.052  0.1380  1.3089  2.7394
 4931TIP3    H214800   2.772   0.626   3.058  0.7088  0.4302 -0.9580
 4932TIP3   OH214801   2.323   2.920   0.505 -0.1918  0.3230 -0.0677
 4932TIP3    H114802   2.275   2.991   0.547 -1.6441 -0.3150 -0.5796
 4932TIP3    H214803   2.359   2.869   0.577  1.0050  1.6281  0.3106
 4933TIP3   OH214804   3.932   2.091   0.661 -0.3107  0.1212  0.7398
 4933TIP3    H114805   3.997   2.021   0.667  1.3639  1.5703  0.5547
 4933TIP3    H214806   3.889   2.091   0.747 -1.6452 -2.2563  0.1398
 4934TIP3   OH214807   4.596   0.061   1.500  0.1448 -0.3805  0.1702
 4934TIP3    H114808   4.586  -0.020   1.449 -0.8531 -0.3211  0.2686
 4934TIP3    H214809   4.508   0.082   1.530  0.4845  0.4532  0.6050
 4935TIP3   OH214810   3.761   0.052   3.342  0.2612  0.1238 -0.0141
 4935TIP3    H114811   3.702   0.122   3.369 -1.3881 -0.3200 -2.1572
 4935TIP3    H214812   3.767   0.062   3.247  3.1660 -0.2803  0.0651
 4936TIP3   OH214813   1.475   2.061   3.272  0.1850 -0.3509  0.1726
 4936TIP3    H114814   1.432   1.976   3.263  3.2880 -2.1061  0.4245
 4936TIP3    H214815   1.463   2.084   3.364  1.6897 -2.0261  0.8515
 4937TIP3   OH214816   3.035   3.590   2.702 -0.4758  0.6901  0.4383
 4937TIP3    H114817   3.027   3.639   2.620 -2.7406  0.3082  0.3752
 4937TIP3    H214818   3.073   3.653   2.763 -0.6240  1.6243 -0.3957
 4938TIP3   OH214819   5.876   2.598   0.904 -0.2456 -0.7429 -0.3829
 4938TIP3    H114820   5.963   2.572   0.873 -0.3176 -1.0240 -0.3451
 4938TIP3    H214821   5.869   2.559   0.991  0.9584  2.0543  1.0951
 4939TIP3   OH214822   1.062   4.719   3.937  0.6916 -0.1869  0.3106
 4939TIP3    H114823   1.146   4.742   3.977  0.4491  0.6249  0.3839
 4939TIP3    H214824   1.083   4.650   3.874  1.2636 -0.6436  0.9834
 4940TIP3   OH214825   1.890   5.241   4.482 -0.5081 -0.7385  0.1870
 4940TIP3    H114826   1.982   5.268   4.489 -0.4333 -1.3698  3.8208
 4940TIP3    H214827   1.840   5.318   4.508 -0.7992 -1.2417  1.1725
 4941TIP3   OH214828   5.547   2.513   4.701 -0.1402  0.2644 -0.3761
 4941TIP3    H114829   5.475   2.486   4.759  0.3983  0.7596  0.5369
 4941TIP3    H214830   5.538   2.456   4.625 -3.0839  1.9688 -1.5055
 4942TIP3   OH214831   2.136   5.560   0.123  0.3787 -0.1888  0.7921
 4942TIP3    H114832   2.042   5.547   0.110  0.6868 -0.8386 -1.0698
 4942TIP3    H214833   2.174   5.473   0.106  1.4249  0.3560  0.2842
 4943TIP3   OH214834   5.820   2.490   2.833  0.0917 -0.0525  0.7748
 4943TIP3    H114835   5.845   2.550   2.902  0.8904  0.9841 -0.3671
 4943TIP3    H214836   5.784   2.546   2.764 -1.1233 -1.0937  0.5197
 4944TIP3   OH214837   5.610   3.644   3.957  0.2176  0.0820  0.2882
 4944TIP3    H114838   5.628   3.568   3.903 -1.3345 -0.5917  0.6828
 4944TIP3    H214839   5.546   3.695   3.908  0.5589  0.6761  0.4409
 4945TIP3   OH214840   1.980   0.414   0.140 -0.4565 -0.3247 -0.2063
 4945TIP3    H114841   1.990   0.320   0.160 -1.9667 -0.4756 -0.0620
 4945TIP3    H214842   2.059   0.436   0.091  0.6607 -1.3027  1.0582
 4946TIP3   OH214843   4.289   2.768   4.527 -0.1053  0.2242  0.0949
 4946TIP3    H114844   4.211   2.810   4.562 -0.3488 -0.3503  0.2555
 4946TIP3    H214845   4.341   2.840   4.491 -0.1887  0.7316  0.9705
 4947TIP3   OH214846   3.222   4.498   1.048  0.0722  0.4421 -0.5030
 4947TIP3    H114847   3.293   4.466   1.102  0.1707  0.6388 -0.5143
 4947TIP3    H214848   3.156   4.428   1.050  0.2448  0.2816 -0.4560
 4948TIP3   OH214849   3.247   2.055   4.717  0.2487 -0.1782 -0.3566
 4948TIP3    H114850   3.250   1.977   4.663  0.3388  0.5849 -1.4917
 4948TIP3    H214851   3.335   2.060   4.756 -0.5592 -2.1072  1.9600
 4949TIP3   OH214852   1.175   5.656   3.425 -0.6170 -0.3559 -0.2255
 4949TIP3    H114853   1.240   5.718   3.393 -1.0610 -0.4318 -1.2858
 4949TIP3    H214854   1.164   5.593   3.354 -1.4324 -0.6768  0.1700
 4950TIP3   OH214855   3.254   2.355   2.237  0.1146 -0.2725 -0.0699
 4950TIP3    H114856   3.349   2.355   2.249 -0.0197 -0.9809  1.2717
 4950TIP3    H214857   3.231   2.447   2.224  0.9787 -0.0962 -0.3856
 4951TIP3   OH214858   1.807   4.331   2.435 -0.0809 -0.4860  0.0735
 4951TIP3    H114859   1.901   4.346   2.450  0.1042 -1.6186  0.0918
 4951TIP3    H214860   1.791   4.365   2.347 -0.2354  2.1236  1.0122
 4952TIP3   OH214861   6.136   3.308   4.790  0.6444  0.3979 -0.3812
 4952TIP3    H114862   6.136   3.302   4.885 -0.7782  0.7681 -0.3422
 4952TIP3    H214863   6.160   3.399   4.772 -0.0662  0.5974 -0.3404
 4953TIP3   OH214864   4.238   5.113   2.480 -0.6860 -0.0576  0.0083
 4953TIP3    H114865   4.262   5.181   2.417  0.1885  0.1522  0.5349
 4953TIP3    H214866   4.322   5.084   2.516 -1.2136  1.2441  2.5291
 4954TIP3   OH214867   1.196   0.532   4.312  0.5711  0.2438 -0.2603
 4954TIP3    H114868   1.197   0.443   4.277  1.1589 -0.3897  1.2453
 4954TIP3    H214869   1.105   0.546   4.339  0.3863  0.2604 -0.8948
 4955TIP3   OH214870   3.133   3.518   4.830 -0.4184 -0.1575  0.3155
 4955TIP3    H114871   3.216   3.566   4.830 -0.6542  0.2528  0.7553
 4955TIP3    H214872   3.067   3.584   4.814 -0.6655 -0.4882 -0.0496
 4956TIP3   OH214873   4.307   0.088   4.965 -0.0739 -0.3343 -0.2795
 4956TIP3    H114874   4.348   0.119   4.884 -0.5248 -0.2233 -0.4672
 4956TIP3    H214875   4.333  -0.003   4.972 -1.0415 -0.6947 -1.2029
 4957TIP3   OH214876   0.784   3.484   1.338  0.3319 -0.0400 -0.0715
 4957TIP3    H114877   0.769   3.578   1.329 -2.4766 -0.5233 -1.8047
 4957TIP3    H214878   0.768   3.449   1.250 -0.2155 -2.2800  0.8575
 4958TIP3   OH214879   2.972   5.012   3.742  0.1072  0.3292  0.3522
 4958TIP3    H114880   3.065   5.035   3.747 -0.1690  1.5510  0.2523
 4958TIP3    H214881   2.959   4.951   3.815  0.9082  0.4103  0.5816
 4959TIP3   OH214882   2.060   4.291   0.947  0.5035 -0.4426  0.1576
 4959TIP3    H114883   2.028   4.243   1.023  0.1970 -0.1010  0.2446
 4959TIP3    H214884   2.134   4.342   0.981  0.3553 -0.2759  0.2305
 4960TIP3   OH214885   4.009   1.093   0.894  0.5027  0.2285 -0.2941
 4960TIP3    H114886   4.039   1.183   0.910 -0.7064  1.0241 -2.2099
 4960TIP3    H214887   4.064   1.062   0.823 -0.7883  0.4338 -1.4234
 4961TIP3   OH214888   5.617   4.796   3.974 -0.8166 -0.5462  0.2481
 4961TIP3    H114889   5.659   4.845   3.903  0.4430 -1.3883  0.3855
 4961TIP3    H214890   5.526   4.788   3.946 -0.1453 -1.7182 -1.7822
 4962TIP3   OH214891   5.272   2.958   4.776 -0.3789 -0.7928  0.2836
 4962TIP3    H114892   5.318   2.944   4.858  0.1979 -1.8763 -0.1983
 4962TIP3    H214893   5.298   3.046   4.748 -0.2201 -0.5974  1.0209
 4963TIP3   OH214894   0.465   0.229   2.400 -0.1627 -0.2244 -0.5794
 4963TIP3    H114895   0.460   0.233   2.495 -1.0055 -0.0163 -0.6241
 4963TIP3    H214896   0.380   0.194   2.373 -0.3916  0.8653 -1.3162
 4964TIP3   OH214897   0.052   4.300   4.296 -0.2534  0.2500  0.1703
 4964TIP3    H114898   0.076   4.281   4.387  0.8876  1.5167  0.1705
 4964TIP3    H214899  -0.008   4.230   4.272 -0.5408 -0.1375  1.8836
 4965TIP3   OH214900   3.236   3.559   2.970 -0.0396  0.0241  0.3768
 4965TIP3    H114901   3.186   3.635   3.000  0.6136  0.7390 -0.3136
 4965TIP3    H214902   3.309   3.596   2.920 -1.1342 -1.1007 -2.2312
 4966TIP3   OH214903   2.498   4.516   1.676 -0.1467  0.0581  0.5712
 4966TIP3    H114904   2.452   4.467   1.608 -2.2841  1.2355  1.0733
 4966TIP3    H214905   2.477   4.470   1.758 -0.2620  0.4761  0.7819
 4967TIP3   OH214906   1.787   4.616   2.945  0.1927  0.0226 -0.4722
 4967TIP3    H114907   1.699   4.635   2.913  0.0592 -0.1530 -0.2153
 4967TIP3    H214908   1.817   4.543   2.891 -1.5008 -2.8801  2.1977
 4968TIP3   OH214909   1.052   1.492   0.731  0.1427 -0.2911  0.9328
 4968TIP3    H114910   1.102   1.488   0.813  1.7739 -0.5415 -0.0161
 4968TIP3    H214911   1.114   1.527   0.667 -0.7558 -1.0767 -0.4256
 4969TIP3   OH214912   4.573   3.504   1.134 -0.3263  0.0198 -0.0499
 4969TIP3    H114913   4.614   3.421   1.113  0.1956  0.6199 -1.5733
 4969TIP3    H214914   4.626   3.540   1.205 -0.4268 -0.8324  0.4689
 4970TIP3   OH214915   4.012   5.890   5.111  0.4555 -0.6576  0.7070
 4970TIP3    H114916   4.071   5.962   5.133  1.6260 -1.4173  0.1271
 4970TIP3    H214917   4.016   5.832   5.187  0.1261 -0.5072  0.8409
 4971TIP3   OH214918   3.562   4.528   1.716  0.5637 -0.3452 -0.4399
 4971TIP3    H114919   3.514   4.445   1.708 -0.0517 -0.0752  0.4039
 4971TIP3    H214920   3.540   4.576   1.636 -2.5143  0.7604  0.9306
 4972TIP3   OH214921   0.974   1.992   4.962 -0.2946 -0.5936 -0.0944
 4972TIP3    H114922   1.043   2.002   5.028 -1.6823  1.5358  1.1459
 4972TIP3    H214923   0.908   1.937   5.005 -1.0665  0.5536  0.2446
 4973TIP3   OH214924   2.159   2.517   0.299 -0.0914 -0.0813 -0.4159
 4973TIP3    H114925   2.094   2.580   0.328 -0.4901 -0.0384 -1.3626
 4973TIP3    H214926   2.238   2.538   0.348 -0.5691  0.3725  0.1580
 4974TIP3   OH214927   2.979   5.079   4.649 -0.5922  0.1591 -0.6247
 4974TIP3    H114928   3.031   5.046   4.722  0.4021  0.9081 -0.9618
 4974TIP3    H214929   2.919   5.008   4.628 -0.5058 -0.2807  0.5413
 4975TIP3   OH214930   3.020   5.283   3.135  0.3464 -0.6059  0.3220
 4975TIP3    H114931   2.939   5.308   3.180  0.8139  1.7233  0.0059
 4975TIP3    H214932   3.077   5.252   3.205  0.3631  1.0975  1.1270
 4976TIP3   OH214933   5.214   1.448   2.934 -0.4763 -0.0675  0.0174
 4976TIP3    H114934   5.286   1.402   2.891 -0.1205 -0.3685  0.9084
 4976TIP3    H214935   5.163   1.485   2.862 -2.3025 -4.0121 -0.9582
 4977TIP3   OH214936   2.059   0.469   4.092 -0.3046  0.0450  0.5544
 4977TIP3    H114937   2.075   0.377   4.071 -0.3261 -0.2078  1.6017
 4977TIP3    H214938   2.141   0.513   4.069  0.5428 -0.6126  2.1532
 4978TIP3   OH214939   6.039   2.397   2.139 -0.3895 -0.1461  0.0072
 4978TIP3    H114940   6.077   2.484   2.151 -1.5015  0.7316 -2.2198
 4978TIP3    H214941   5.955   2.400   2.185 -0.5388  0.0561 -0.2771
 4979TIP3   OH214942   3.101   5.938   1.035 -0.2932 -0.5788  0.0051
 4979TIP3    H114943   3.068   6.006   1.094 -0.2982 -1.0841  0.5801
 4979TIP3    H214944   3.195   5.933   1.054 -0.4880 -1.5219  0.7657
 4980TIP3   OH214945   5.880   3.572   4.302  0.0152 -0.2511  0.0937
 4980TIP3    H114946   5.843   3.590   4.216 -0.3240 -0.6706  0.1509
 4980TIP3    H214947   5.873   3.477   4.312 -0.4180 -0.1493  0.8004
 4981TIP3   OH214948   5.635   3.032   0.969  0.4407 -0.0069  0.0291
 4981TIP3    H114949   5.633   2.937   0.977  1.1672 -0.1290 -1.0279
 4981TIP3    H214950   5.728   3.054   0.960  0.2234  0.7171 -0.5922
 4982TIP3   OH214951   5.521   0.951   4.055 -0.1290 -0.0788  0.4305
 4982TIP3    H114952   5.504   1.002   3.976  2.1280  0.0477 -0.0581
 4982TIP3    H214953   5.435   0.929   4.090 -1.1770  0.2223 -1.8306
 4983TIP3   OH214954   2.162   0.576   2.114 -0.1617 -0.2497 -0.5881
 4983TIP3    H114955   2.239   0.532   2.077  0.3806  1.2008 -1.2484
 4983TIP3    H214956   2.096   0.570   2.045  0.0162  0.2413 -0.8024
 4984TIP3   OH214957   3.355   2.593   2.604 -0.3180 -0.1838  0.1606
 4984TIP3    H114958   3.381   2.666   2.661 -1.8299 -0.3260  1.0787
 4984TIP3    H214959   3.437   2.555   2.574  0.5300 -0.0801  2.2327
 4985TIP3   OH214960   0.982   4.601   1.962  0.1722  0.0600  0.4239
 4985TIP3    H114961   1.077   4.590   1.960  0.0608 -1.0407  0.8095
 4985TIP3    H214962   0.946   4.515   1.941 -0.7426  0.4520  0.3074
 4986TIP3   OH214963   2.946   3.376   4.619 -0.6219 -0.5125  0.1689
 4986TIP3    H114964   2.873   3.330   4.576 -1.4318  0.2112  0.7296
 4986TIP3    H214965   3.023   3.352   4.567 -1.3600 -0.7346 -0.8704
 4987TIP3   OH214966   5.328   2.757   2.305  0.0814  0.2115  0.1153
 4987TIP3    H114967   5.308   2.837   2.257 -1.0781  1.0756  1.9012
 4987TIP3    H214968   5.301   2.686   2.247  0.4246  1.1248 -1.1991
 4988TIP3   OH214969   5.154   2.048   3.072 -0.2317 -0.3444  0.7566
 4988TIP3    H114970   5.100   2.025   2.996 -2.1821 -0.5200  2.1115
 4988TIP3    H214971   5.135   2.140   3.088  3.5179  1.0527 -1.4583
 4989TIP3   OH214972   3.389   4.494   4.271 -0.6268  0.1644  0.0146
 4989TIP3    H114973   3.439   4.530   4.198 -0.4902 -0.9122 -0.4334
 4989TIP3    H214974   3.414   4.402   4.275 -1.5416 -0.0759  0.6616
 4990TIP3   OH214975   0.523   0.198   4.111  0.4609  0.1508 -0.3555
 4990TIP3    H114976   0.475   0.252   4.174  2.2164  0.1587  1.0722
 4990TIP3    H214977   0.598   0.252   4.086  1.9583 -1.3326  0.6862
 4991TIP3   OH214978   5.808   5.073   0.682  0.4661  0.5573 -0.1662
 4991TIP3    H114979   5.815   5.007   0.751  1.4803  1.7090  0.8851
 4991TIP3    H214980   5.897   5.080   0.646  0.3096  1.1276 -0.4648
 4992TIP3   OH214981   4.004   4.389   3.987  0.1108  0.4975 -0.3699
 4992TIP3    H114982   4.067   4.403   4.059  0.7346 -1.5436 -0.4607
 4992TIP3    H214983   3.965   4.475   3.973  0.7736  1.1925  1.6728
 4993TIP3   OH214984   0.307   2.521   1.542  0.1327 -0.0866 -0.6991
 4993TIP3    H114985   0.361   2.597   1.520 -0.5532  0.4626 -0.5368
 4993TIP3    H214986   0.365   2.464   1.592  0.6285  0.3807 -0.7296
 4994TIP3   OH214987   2.512   4.251   3.709  0.1851 -0.1305  0.5039
 4994TIP3    H114988   2.512   4.345   3.689 -2.0957 -0.3022 -0.6184
 4994TIP3    H214989   2.576   4.215   3.647 -0.4932  0.4382 -0.5667
 4995TIP3   OH214990   3.065   5.196   4.285 -0.7645  0.2258  0.5982
 4995TIP3    H114991   3.132   5.159   4.343 -2.0445  0.6819  2.4681
 4995TIP3    H214992   3.102   5.279   4.256  0.8885 -1.0465 -1.2659
 4996TIP3   OH214993   5.696   0.390   1.059 -0.1189 -0.2548 -0.2882
 4996TIP3    H114994   5.744   0.307   1.063 -0.4179 -0.3590  1.9974
 4996TIP3    H214995   5.729   0.441   1.133 -1.5501  0.7852 -0.3309
 4997TIP3   OH214996   2.194   1.941   2.478 -0.1792  0.0837  0.3043
 4997TIP3    H114997   2.223   2.001   2.546  0.8645  0.0436 -0.0918
 4997TIP3    H214998   2.121   1.986   2.435  0.9185  1.3267 -0.3349
 4998TIP3   OH214999   5.145   0.432   1.600 -0.2284 -0.3853  0.2259
 4998TIP3    H115000   5.116   0.422   1.691 -0.5937 -1.4719  0.0039
 4998TIP3    H215001   5.093   0.506   1.567 -0.5790 -0.4103  0.7043
 4999TIP3   OH215002   3.086   1.898   4.928  0.6832 -0.4666  0.0573
 4999TIP3    H115003   3.095   1.824   4.988  0.1263 -0.1807  0.5051
 4999TIP3    H215004   3.172   1.907   4.888  0.8355 -1.1818  0.2031
 5000TIP3   OH215005   4.678   5.925   1.351  0.7256 -0.6107 -0.2712
 5000TIP3    H115006   4.749   5.945   1.290 -0.6958  0.0128 -1.8173
 5000TIP3    H215007   4.651   6.011   1.384  1.2057 -0.9147  0.9507
 5001TIP3   OH215008   2.291   4.907   3.111  0.6386 -0.2628  0.1884
 5001TIP3    H115009   2.251   4.890   3.026  0.3761 -0.5097  0.3566
 5001TIP3    H215010   2.371   4.854   3.111 -2.0166 -4.9519  2.1867
 5002TIP3   OH215011   3.071   1.014   0.328 -0.0193 -0.3808  0.0729
 5002TIP3    H115012   3.049   1.061   0.247 -0.6438  2.0382  1.5483
 5002TIP3    H215013   3.159   1.045   0.351 -0.3873  0.0104  1.0039
 5003TIP3   OH215014   0.981   0.380   0.359 -0.5783  0.2613  0.3914
 5003TIP3    H115015   1.007   0.470   0.378  0.1770 -0.0107  0.6625
 5003TIP3    H215016   0.976   0.376   0.264 -3.0612  1.2614  0.3966
 5004TIP3   OH215017   5.043   2.604   3.791 -0.3387 -0.3247 -0.4511
 5004TIP3    H115018   5.117   2.661   3.771  0.2646 -1.1744 -0.7335
 5004TIP3    H215019   5.024   2.621   3.883  1.6451 -1.6205  0.2873
 5005TIP3   OH215020   2.459   2.412   1.128 -0.5806  0.4539  0.1004
 5005TIP3    H115021   2.445   2.318   1.140 -1.9634  0.5759 -0.3879
 5005TIP3    H215022   2.546   2.428   1.165  0.2054 -1.2215 -0.8769
 5006TIP3   OH215023   0.201   5.979   4.529 -0.3203  0.1184 -0.7951
 5006TIP3    H115024   0.246   5.895   4.526 -0.1820  0.1855 -0.5923
 5006TIP3    H215025   0.117   5.963   4.486  0.6486  0.4629 -2.9411
 5007TIP3   OH215026   3.491   0.660   4.184  0.4474 -0.7512  0.3248
 5007TIP3    H115027   3.422   0.616   4.234  1.5931 -1.2022  1.5935
 5007TIP3    H215028   3.571   0.642   4.234  1.2001  1.4378  0.0217
 5008TIP3   OH215029   2.149   2.678   1.426 -0.1754  0.5070  0.0121
 5008TIP3    H115030   2.222   2.672   1.365 -0.8523  0.1159 -0.7785
 5008TIP3    H215031   2.164   2.608   1.489 -1.1229 -1.1924 -1.5589
 5009TIP3   OH215032   5.337   1.041   1.693 -0.1097 -0.1791 -0.1929
 5009TIP3    H115033   5.336   0.991   1.774 -0.7302  0.5943  0.2972
 5009TIP3    H215034   5.415   1.011   1.646 -0.6389 -1.8179 -0.0792
 5010TIP3   OH215035   4.269   4.847   4.635 -0.3145 -0.2794  0.3564
 5010TIP3    H115036   4.254   4.939   4.612  2.8270  0.2798  0.1909
 5010TIP3    H215037   4.203   4.828   4.702 -2.1488  1.5276 -0.8103
 5011TIP3   OH215038   5.795   2.599   2.566  0.1293  0.3158 -0.3720
 5011TIP3    H115039   5.790   2.683   2.520  0.3329  0.4824 -0.0993
 5011TIP3    H215040   5.711   2.556   2.549 -0.2393  0.8657  0.0363
 5012TIP3   OH215041   1.581   0.356   3.426 -0.8540 -0.0797  0.0769
 5012TIP3    H115042   1.598   0.431   3.484  1.3308 -1.1306  0.9326
 5012TIP3    H215043   1.535   0.293   3.482  1.0220 -0.9871  0.7094
 5013TIP3   OH215044   5.150   4.808   0.066 -0.1558 -0.4150  0.0035
 5013TIP3    H115045   5.162   4.882   0.124 -1.4318 -0.8127  0.8007
 5013TIP3    H215046   5.239   4.784   0.040  0.3621  0.4868  0.8704
 5014TIP3   OH215047   0.721   5.179   4.789  0.3790  0.2520  0.4711
 5014TIP3    H115048   0.805   5.165   4.832 -0.1844 -0.1105  1.4793
 5014TIP3    H215049   0.657   5.133   4.843 -0.5932  1.1762  0.1723
 5015TIP3   OH215050   2.615   4.818   3.782 -0.1688 -1.0209 -0.0775
 5015TIP3    H115051   2.645   4.727   3.778  2.7116 -0.2317  1.1247
 5015TIP3    H215052   2.639   4.855   3.697  0.4150 -0.9450  0.1109
 5016TIP3   OH215053   0.596   3.131   2.841 -0.2388 -0.2227  0.6093
 5016TIP3    H115054   0.505   3.134   2.869 -0.1805 -2.1643  1.1742
 5016TIP3    H215055   0.594   3.085   2.757  0.1044  0.9094 -0.0320
 5017TIP3   OH215056   1.936   2.615   0.415  0.2545 -0.2226  0.0442
 5017TIP3    H115057   1.910   2.523   0.414  0.2186 -0.2343 -1.9783
 5017TIP3    H215058   1.896   2.650   0.495 -0.6349 -1.7042  0.2936
 5018TIP3   OH215059   2.907   1.278   3.363 -0.1619 -0.1223  0.0021
 5018TIP3    H115060   2.979   1.319   3.410 -0.1078 -1.0684  0.7658
 5018TIP3    H215061   2.875   1.210   3.422 -3.7275  2.1914  1.1163
 5019TIP3   OH215062   5.683   5.075   3.092  0.1914 -0.3351 -0.2206
 5019TIP3    H115063   5.732   5.033   3.021  0.4075 -0.2719 -0.1120
 5019TIP3    H215064   5.694   5.016   3.167  0.6495 -0.0036 -0.0167
 5020TIP3   OH215065   4.872   1.330   5.044 -0.4686  0.2963 -0.1593
 5020TIP3    H115066   4.895   1.245   5.007  2.6992  0.5561  0.9587
 5020TIP3    H215067   4.823   1.309   5.124  0.3030 -0.5124  0.1172
 5021TIP3   OH215068   4.120   4.105   0.704 -0.4296 -0.6922  0.0899
 5021TIP3    H115069   4.126   4.200   0.693 -2.2033 -0.6695 -1.3875
 5021TIP3    H215070   4.069   4.093   0.784 -0.0018 -0.3907  0.4047
 5022TIP3   OH215071   1.141   4.021   1.621  0.4821  0.2876 -0.3239
 5022TIP3    H115072   1.138   3.944   1.564 -0.0022 -1.0729  1.4173
 5022TIP3    H215073   1.058   4.019   1.668  0.4890  1.8754 -0.2055
 5023TIP3   OH215074   2.079   2.914   0.380 -0.6041  0.3611  0.0338
 5023TIP3    H115075   2.035   2.953   0.454 -0.8009  0.7793 -0.3014
 5023TIP3    H215076   2.169   2.899   0.410 -0.1823  2.1897 -0.2094
 5024TIP3   OH215077   3.177   2.896   2.158 -0.6155  0.3932 -0.3566
 5024TIP3    H115078   3.085   2.873   2.150 -1.1609  2.3508 -0.3713
 5024TIP3    H215079   3.176   2.987   2.190  1.3097  0.2589  0.2154
 5025TIP3   OH215080   0.356   5.912   2.376 -0.2925 -0.2119  0.2254
 5025TIP3    H115081   0.388   5.997   2.405 -0.8271 -0.5900  2.0318
 5025TIP3    H215082   0.321   5.929   2.288  1.7711  0.8834 -0.4593
 5026TIP3   OH215083   0.266   3.618   2.622 -0.5402 -0.7838 -0.3726
 5026TIP3    H115084   0.345   3.573   2.594  0.6909  0.6526  0.6307
 5026TIP3    H215085   0.253   3.687   2.557  1.9222  2.1050  1.8993
 5027TIP3   OH215086   0.297   0.939   1.912 -0.0182  0.1735 -0.1996
 5027TIP3    H115087   0.207   0.911   1.895  0.6209 -1.8610 -0.4758
 5027TIP3    H215088   0.318   0.903   1.998  0.2532  1.4242  0.2777
 5028TIP3   OH215089   0.377   3.599   1.487  0.2205 -0.4400  0.2022
 5028TIP3    H115090   0.327   3.540   1.543 -0.8813  0.9778  0.7889
 5028TIP3    H215091   0.371   3.561   1.400 -1.5906 -0.5364  0.3256
 5029TIP3   OH215092   2.601   2.705   3.914 -0.0549 -0.4262 -0.2913
 5029TIP3    H115093   2.602   2.654   3.995 -2.0123  0.6412  0.4518
 5029TIP3    H215094   2.521   2.679   3.870  0.2221  0.1322 -1.1502
 5030TIP3   OH215095   2.136   5.224   2.742  0.0345  0.2976  0.4828
 5030TIP3    H115096   2.123   5.136   2.706 -1.4606  2.0683 -4.0993
 5030TIP3    H215097   2.065   5.235   2.805 -0.8967 -1.2145 -0.2305
 5031TIP3   OH215098   3.139   2.286   4.605  0.0269  0.1428  0.4384
 5031TIP3    H115099   3.175   2.202   4.636 -0.5440  0.2914  1.5567
 5031TIP3    H215100   3.066   2.304   4.665 -1.1773  0.4207 -1.0649
 5032TIP3   OH215101   5.967   1.429   2.080 -0.0913 -0.0568  0.3648
 5032TIP3    H115102   5.891   1.379   2.110  0.2448 -0.0134  1.3448
 5032TIP3    H215103   5.955   1.516   2.119  1.0366 -0.3959  1.5234
 5033TIP3   OH215104   3.085   1.669   2.651  0.6473  0.0385  0.3133
 5033TIP3    H115105   3.121   1.702   2.733 -2.0143 -1.7371  2.3735
 5033TIP3    H215106   3.072   1.576   2.667 -1.5599 -0.0293 -1.4866
 5034TIP3   OH215107   4.243   5.482   4.869  0.0832 -0.8915 -0.2920
 5034TIP3    H115108   4.282   5.543   4.932  1.5020 -1.2493 -0.7977
 5034TIP3    H215109   4.223   5.536   4.792  2.8452 -1.2900 -1.3746
 5035TIP3   OH215110   4.167   3.491   0.419 -0.1173 -0.0279 -0.3711
 5035TIP3    H115111   4.095   3.553   0.408  0.2497  0.1988 -1.7179
 5035TIP3    H215112   4.232   3.519   0.354  0.8417 -0.7223  0.2561
 5036TIP3   OH215113   1.768   5.285   1.473 -0.5728  0.2309  0.5128
 5036TIP3    H115114   1.818   5.237   1.407 -1.0328 -0.2507  0.5119
 5036TIP3    H215115   1.804   5.254   1.556 -2.2165 -1.6721  0.5897
 5037TIP3   OH215116   6.049   5.793   3.335  0.0319 -0.6873 -0.6312
 5037TIP3    H115117   6.010   5.869   3.379  0.9432  1.1058 -2.7234
 5037TIP3    H215118   6.003   5.788   3.252  1.1288 -1.3868 -1.2152
 5038TIP3   OH215119   5.782   5.622   0.979 -0.7267  0.0548 -0.1251
 5038TIP3    H115120   5.822   5.539   1.006  0.2071 -0.2501 -2.2040
 5038TIP3    H215121   5.702   5.596   0.933 -0.9048  0.3676  0.0075
 5039TIP3   OH215122   5.673   0.474   0.409 -0.1329 -0.1500  0.0965
 5039TIP3    H115123   5.672   0.381   0.433  0.0354 -0.2156 -0.1476
 5039TIP3    H215124   5.748   0.483   0.350 -0.0416  0.1768  0.2584
 5040TIP3   OH215125   5.010   3.560   5.192 -0.1613 -0.5277  0.2538
 5040TIP3    H115126   4.983   3.569   5.100 -1.1786 -0.8369  0.5067
 5040TIP3    H215127   5.105   3.555   5.188 -0.2330 -1.5474 -0.8822
 5041TIP3   OH215128   3.074   5.624   4.792  0.1052  0.0236 -0.1904
 5041TIP3    H115129   3.123   5.582   4.863  0.2313  0.2580 -0.1356
 5041TIP3    H215130   2.985   5.631   4.825  0.1801  0.2028 -0.0225
 5042TIP3   OH215131   4.995   4.955   2.968 -0.7105 -0.2964 -0.4959
 5042TIP3    H115132   5.001   4.865   2.936  0.1999 -0.2625 -0.4276
 5042TIP3    H215133   5.056   5.004   2.913 -0.4584  0.0942  0.1264
 5043TIP3   OH215134   3.433   1.829   1.918  0.0986 -0.0844  0.0333
 5043TIP3    H115135   3.514   1.817   1.867 -0.0011 -1.6156  0.1895
 5043TIP3    H215136   3.441   1.917   1.956  0.4165  0.9171 -2.1828
 5044TIP3   OH215137   3.648   4.527   1.968 -0.0952 -0.4031 -0.6408
 5044TIP3    H115138   3.566   4.507   2.012 -0.2720  0.6863 -0.4532
 5044TIP3    H215139   3.632   4.507   1.876 -0.3374 -0.8605 -0.5012
 5045TIP3   OH215140   0.558   2.205   4.195  0.1400 -0.0283  0.2073
 5045TIP3    H115141   0.485   2.203   4.132  0.7052  0.3077 -0.4710
 5045TIP3    H215142   0.545   2.286   4.244 -1.2976 -1.1327  1.7572
 5046TIP3   OH215143   5.258   1.905   4.775 -0.1034 -0.0498 -0.1040
 5046TIP3    H115144   5.316   1.922   4.700  1.3002 -0.4502  0.8433
 5046TIP3    H215145   5.235   1.813   4.766  0.4127 -0.2110  0.1723
 5047TIP3   OH215146   4.249   3.060   1.702 -0.9523 -0.0129 -0.0363
 5047TIP3    H115147   4.248   3.156   1.702 -1.1971 -0.0164 -0.0349
 5047TIP3    H215148   4.157   3.034   1.699 -0.8727 -0.2486 -0.5093
 5048TIP3   OH215149   2.524   2.544   2.330  1.0882  0.0105 -0.4353
 5048TIP3    H115150   2.502   2.637   2.322 -0.3181 -0.2151  0.4815
 5048TIP3    H215151   2.474   2.514   2.406 -1.0040 -2.1845 -2.4771
 5049TIP3   OH215152   2.801   3.714   1.314  0.7684  0.1644 -0.3399
 5049TIP3    H115153   2.742   3.676   1.379  0.0533  2.1825  0.2669
 5049TIP3    H215154   2.749   3.722   1.235  1.6230 -2.2369 -1.2392
 5050TIP3   OH215155   2.481   1.099   2.814 -0.1975 -0.0170 -0.5334
 5050TIP3    H115156   2.432   1.145   2.746  0.3280  1.0399 -0.2312
 5050TIP3    H215157   2.553   1.159   2.836 -1.1029  0.2753  1.8889
 5051TIP3   OH215158   0.289   0.642   5.128  0.5230 -0.4452  0.0309
 5051TIP3    H115159   0.329   0.726   5.106 -0.1924  0.2440  1.2439
 5051TIP3    H215160   0.230   0.624   5.054 -0.7936  1.1205  0.6306
 5052TIP3   OH215161   0.337   5.636   0.645  0.1480 -0.3763 -0.5783
 5052TIP3    H115162   0.297   5.614   0.560  0.4571 -0.9907 -0.5715
 5052TIP3    H215163   0.266   5.624   0.708  0.2343 -1.0909 -0.6116
 5053TIP3   OH215164   1.947   4.665   4.237  0.0979  0.1756 -0.2768
 5053TIP3    H115165   1.920   4.755   4.217 -0.1333 -0.2781 -2.2080
 5053TIP3    H215166   2.043   4.669   4.240  0.0921  0.4687 -0.4340
 5054TIP3   OH215167   4.620   5.023   2.275  0.3889  0.1757  0.1014
 5054TIP3    H115168   4.575   5.063   2.200 -0.6513 -0.5543  0.3175
 5054TIP3    H215169   4.713   5.034   2.255  0.2387 -2.1415 -2.5271
 5055TIP3   OH215170   1.365   4.622   3.058  0.1587 -0.4443  0.0788
 5055TIP3    H115171   1.358   4.664   3.143  0.7298 -1.6231  0.7414
 5055TIP3    H215172   1.369   4.528   3.078 -2.3577 -0.9463 -1.4064
 5056TIP3   OH215173   3.663   1.784   2.727  0.4801 -0.0608 -0.0895
 5056TIP3    H115174   3.618   1.793   2.811  0.1394  0.3612 -0.3118
 5056TIP3    H215175   3.749   1.748   2.749 -0.5695 -2.5384  0.1749
 5057TIP3   OH215176   2.042   0.098   1.009 -0.2579 -0.0591  0.1738
 5057TIP3    H115177   1.952   0.123   1.030 -0.5680 -0.6327 -0.4346
 5057TIP3    H215178   2.076   0.061   1.090 -0.6387 -0.0174  0.3538
 5058TIP3   OH215179   4.715   3.594   1.365  0.1868  0.1311  0.3014
 5058TIP3    H115180   4.692   3.659   1.432  0.8246 -0.2334  0.8941
 5058TIP3    H215181   4.808   3.606   1.351 -0.2836  1.5944 -2.0697
 5059TIP3   OH215182   6.229   1.081   0.207  0.9216  0.4049 -0.0926
 5059TIP3    H115183   6.185   1.046   0.130  0.4158  0.7386  0.0362
 5059TIP3    H215184   6.284   1.151   0.175 -0.1033  1.2632 -0.0362
 5060TIP3   OH215185   1.299   1.191   0.749 -0.4272  0.0804  0.5589
 5060TIP3    H115186   1.393   1.189   0.765 -0.8190 -2.0369  3.6127
 5060TIP3    H215187   1.284   1.271   0.699  2.7889  1.3995  1.4687
 5061TIP3   OH215188   1.612   3.078   3.158  0.1797  0.5381 -0.0219
 5061TIP3    H115189   1.518   3.083   3.175  0.3776 -1.1653  1.9536
 5061TIP3    H215190   1.630   2.984   3.150  1.7036  0.8533 -0.5593
 5062TIP3   OH215191   3.594   1.409   3.026  0.1240  0.5286  0.1071
 5062TIP3    H115192   3.567   1.324   2.990  1.6611 -0.4780  1.2005
 5062TIP3    H215193   3.539   1.473   2.981 -2.3315 -1.1605  0.5110
 5063TIP3   OH215194   3.824   5.937   2.076 -0.1521 -0.0863  0.8271
 5063TIP3    H115195   3.908   5.892   2.067  1.6129  2.9427  0.6781
 5063TIP3    H215196   3.766   5.893   2.014  1.6369 -1.5988  0.1407
 5064TIP3   OH215197   5.746   4.285   1.019  0.0064 -0.0812 -0.2922
 5064TIP3    H115198   5.734   4.325   1.105  1.8934 -1.5412  0.7310
 5064TIP3    H215199   5.725   4.192   1.033 -0.8799 -0.1240 -1.7334
 5065TIP3   OH215200   1.024   1.024   3.094  0.2697 -0.0235 -0.7348
 5065TIP3    H115201   1.070   0.942   3.077 -1.2678 -1.2596  0.6775
 5065TIP3    H215202   1.094   1.089   3.104  1.4885 -0.8965 -2.9099
 5066TIP3   OH215203   0.118   4.386   1.992 -0.0109 -0.1066 -0.1431
 5066TIP3    H115204   0.100   4.333   1.914 -0.2293 -1.8370  1.0185
 5066TIP3    H215205   0.211   4.406   1.986  0.6687 -2.6302  0.4566
 5067TIP3   OH215206   3.231   2.620   2.235 -0.2309  0.1272 -0.0613
 5067TIP3    H115207   3.220   2.707   2.196  2.0399  0.7541  0.5132
 5067TIP3    H215208   3.212   2.633   2.328 -1.0368 -0.2828 -0.1626
 5068TIP3   OH215209   2.620   3.738   1.105  0.1128 -0.4836 -0.2926
 5068TIP3    H115210   2.539   3.769   1.144 -0.2616 -2.4872  0.6652
 5068TIP3    H215211   2.599   3.723   1.013 -0.3256 -0.1401 -0.2526
 5069TIP3   OH215212   5.161   1.606   3.577  0.0453  0.1769  0.6147
 5069TIP3    H115213   5.137   1.631   3.666  1.1934  1.1855  0.6642
 5069TIP3    H215214   5.205   1.682   3.541  1.3866 -0.8924 -0.1257
 5070TIP3   OH215215   1.451   3.279   1.164  0.1273 -0.1249  0.2884
 5070TIP3    H115216   1.368   3.251   1.125 -0.9761  0.7581  1.8893
 5070TIP3    H215217   1.473   3.210   1.226 -0.2131  0.3422  0.9431
 5071TIP3   OH215218   1.413   0.527   0.103  0.3645  0.3982 -0.1704
 5071TIP3    H115219   1.451   0.612   0.127  0.7295  0.4078 -0.7467
 5071TIP3    H215220   1.331   0.549   0.058  0.6648  0.4746 -0.6954
 5072TIP3   OH215221   4.882   3.553   0.203 -0.1295 -0.3212  0.1971
 5072TIP3    H115222   4.806   3.574   0.259 -0.8746  1.0446 -1.2335
 5072TIP3    H215223   4.855   3.474   0.156 -1.0844  0.6461 -0.9510
 5073TIP3   OH215224   2.049   5.268   4.140 -0.4161 -1.0027 -0.3963
 5073TIP3    H115225   1.978   5.255   4.078  0.2022 -2.1234 -0.8963
 5073TIP3    H215226   2.126   5.231   4.097  0.7084  1.0268 -0.2963
 5074TIP3   OH215227   0.047   5.671   0.080 -0.2013  0.2017  0.3029
 5074TIP3    H115228   0.093   5.590   0.105 -0.6121  0.2631  1.3138
 5074TIP3    H215229   0.035   5.663  -0.015  0.7940 -0.3819  0.2008
 5075TIP3   OH215230   5.873   1.894   3.241 -0.3562 -0.2593  0.0010
 5075TIP3    H115231   5.827   1.822   3.199  0.9559 -0.5194 -1.0680
 5075TIP3    H215232   5.805   1.942   3.288 -1.4463 -1.4852 -0.2659
 5076TIP3   OH215233   2.770   4.608   4.016  0.1737  0.5005  0.0685
 5076TIP3    H115234   2.743   4.566   4.098 -0.1134 -0.7529 -0.6425
 5076TIP3    H215235   2.797   4.696   4.042  0.8744 -0.1400  1.6242
 5077TIP3   OH215236   4.548   4.606   1.301  0.1355 -0.1139 -0.6498
 5077TIP3    H115237   4.548   4.635   1.392  0.8715 -1.2063 -0.2857
 5077TIP3    H215238   4.634   4.630   1.267 -0.1862  0.4232 -1.1214
 5078TIP3   OH215239   1.652   5.161   3.157  0.1010 -0.2055 -0.0491
 5078TIP3    H115240   1.692   5.229   3.103  0.8261 -1.5653 -1.2965
 5078TIP3    H215241   1.726   5.108   3.189 -0.5328 -1.5248 -0.6744
 5079TIP3   OH215242   6.188   5.757   1.647 -0.2917  0.1579 -0.2652
 5079TIP3    H115243   6.273   5.771   1.605 -0.4648  1.6297 -0.1694
 5079TIP3    H215244   6.156   5.675   1.610  1.4648 -0.7793  0.2160
 5080TIP3   OH215245   4.970   1.220   2.624  0.6274  0.8017 -0.3666
 5080TIP3    H115246   5.011   1.153   2.678 -2.5966  0.1549  1.5670
 5080TIP3    H215247   4.970   1.299   2.679 -1.7869  0.4093  0.3173
 5081TIP3   OH215248   4.100   4.722   1.431  0.2507  0.3163 -0.4067
 5081TIP3    H115249   4.074   4.676   1.351  0.0880 -0.1728 -0.0763
 5081TIP3    H215250   4.039   4.690   1.498  1.5264 -0.6862  0.3264
 5082TIP3   OH215251   2.322   5.555   1.075 -0.3578  0.1899 -0.1561
 5082TIP3    H115252   2.253   5.564   1.009 -0.8088  0.5245  0.3441
 5082TIP3    H215253   2.399   5.596   1.036 -0.3477 -0.4880 -0.8575
 5083TIP3   OH215254   3.923   5.893   3.925 -0.5362 -1.0317 -0.4851
 5083TIP3    H115255   3.941   5.920   4.015 -1.0486 -1.6405 -0.1848
 5083TIP3    H215256   3.827   5.897   3.918 -0.7137 -3.2312 -0.2279
 5084TIP3   OH215257   5.841   3.395   2.410  0.2717  0.6289 -0.8253
 5084TIP3    H115258   5.915   3.447   2.442  1.6536 -1.8658  0.3553
 5084TIP3    H215259   5.775   3.403   2.480 -0.7887  3.0284 -1.9745
 5085TIP3   OH215260   0.300   3.735   0.550 -0.1848  0.5312  0.3669
 5085TIP3    H115261   0.256   3.788   0.484 -2.1157 -0.5320  0.7478
 5085TIP3    H215262   0.255   3.756   0.632 -1.3061 -1.9275  0.4675
 5086TIP3   OH215263   4.405   1.068   3.529  0.0223  0.2348  0.5251
 5086TIP3    H115264   4.426   0.988   3.577  0.1296  0.5196  0.9564
 5086TIP3    H215265   4.400   1.136   3.596  0.1608  0.6346  0.1337
 5087TIP3   OH215266   1.246   2.261   1.720  0.4758 -0.1459 -0.6286
 5087TIP3    H115267   1.230   2.293   1.809  0.5659 -1.9558  0.0937
 5087TIP3    H215268   1.170   2.292   1.670  1.3655  2.5617 -0.4451
 5088TIP3   OH215269   3.789   0.602   3.135 -0.6541 -0.2100  0.5101
 5088TIP3    H115270   3.759   0.653   3.209 -0.0892  1.7839 -0.5596
 5088TIP3    H215271   3.722   0.615   3.068  0.6439  1.2207 -0.6020
 5089TIP3   OH215272   0.927   4.939   2.334  0.2813 -0.5388  0.4910
 5089TIP3    H115273   0.841   4.976   2.351  0.3609 -0.5087  0.8302
 5089TIP3    H215274   0.954   4.978   2.251  0.0670 -0.3763  0.4982
 5090TIP3   OH215275   1.511   0.428   0.359 -0.2350 -0.3980 -0.1241
 5090TIP3    H115276   1.491   0.473   0.277  2.7787  1.0058 -0.2365
 5090TIP3    H215277   1.515   0.498   0.424  0.1789 -1.1162  0.6406
 5091TIP3   OH215278   3.390   5.880   0.988 -0.4089 -0.0516  0.2111
 5091TIP3    H115279   3.402   5.785   0.983  4.1393  0.2846  0.3433
 5091TIP3    H215280   3.420   5.912   0.903  0.0522  1.3388  0.8673
 5092TIP3   OH215281   2.007   3.060   0.145  0.2710 -0.7868  0.2903
 5092TIP3    H115282   1.921   3.101   0.146 -0.0421 -1.2156 -2.6960
 5092TIP3    H215283   2.009   3.007   0.225 -1.6426  0.3087  1.1349
 5093TIP3   OH215284   0.949   2.603   1.806  0.2331  0.1453  0.2642
 5093TIP3    H115285   0.926   2.581   1.716 -1.1252 -0.9071  0.8426
 5093TIP3    H215286   1.008   2.532   1.834  1.1471  0.7912  0.0349
 5094TIP3   OH215287   5.976   1.361   3.418  0.8734 -0.0171  0.0966
 5094TIP3    H115288   5.919   1.345   3.342  1.0497 -0.4383  0.0483
 5094TIP3    H215289   5.981   1.456   3.425 -1.1282  0.0585  1.0726
 5095TIP3   OH215290   4.507   4.604   3.192  0.2882 -0.3148 -0.2623
 5095TIP3    H115291   4.451   4.661   3.245  0.2444 -0.0875 -0.5507
 5095TIP3    H215292   4.473   4.614   3.103 -0.6047 -1.8374 -0.1250
 5096TIP3   OH215293   5.203   5.693   0.219 -0.1769 -0.4384 -0.2603
 5096TIP3    H115294   5.125   5.743   0.245 -0.6472 -0.6882 -1.1719
 5096TIP3    H215295   5.242   5.744   0.148  0.4716 -0.3398  0.1568
 5097TIP3   OH215296   1.351   4.330   3.660  0.3836  0.2723  0.0135
 5097TIP3    H115297   1.436   4.374   3.653  0.5335  0.4411  2.1223
 5097TIP3    H215298   1.354   4.287   3.746 -1.6669  0.3344  0.1649
 5098TIP3   OH215299   1.407   0.878   1.114  0.2980 -0.8399 -0.3765
 5098TIP3    H115300   1.359   0.795   1.124 -0.3747 -0.2732  1.6254
 5098TIP3    H215301   1.394   0.923   1.198  0.6357  1.3116 -1.4212
 5099TIP3   OH215302   4.572   4.018   2.932 -0.2260 -0.2581 -0.0255
 5099TIP3    H115303   4.525   4.019   2.848 -0.7846 -2.6330  0.2002
 5099TIP3    H215304   4.619   3.935   2.932 -0.1583 -0.2530  1.9721
 5100TIP3   OH215305   0.514   3.211   4.159  0.7172 -0.2149  0.3123
 5100TIP3    H115306   0.424   3.242   4.151  0.6288 -0.7905 -1.5738
 5100TIP3    H215307   0.512   3.146   4.229 -0.4634 -0.5576 -0.0149
 5101TIP3   OH215308   0.589   2.423   4.377  0.8725 -0.4476  0.5512
 5101TIP3    H115309   0.673   2.395   4.415  1.2116 -0.6350 -0.3130
 5101TIP3    H215310   0.614   2.475   4.301  0.2002 -0.2970  0.4317
 5102TIP3   OH215311   6.233   3.080   3.403 -0.0884 -0.1204 -0.0073
 5102TIP3    H115312   6.305   3.026   3.371  0.6465  0.9370 -0.2174
 5102TIP3    H215313   6.230   3.154   3.342 -1.6731 -0.3811 -0.2689
 5103TIP3   OH215314   0.282   1.695   0.581 -0.1984 -0.1856  0.0773
 5103TIP3    H115315   0.310   1.684   0.672 -0.8068 -0.2807  0.2593
 5103TIP3    H215316   0.326   1.775   0.552 -0.6136  0.2836  0.7076
 5104TIP3   OH215317   5.532   0.900   3.363 -0.4181 -0.2754  0.2188
 5104TIP3    H115318   5.601   0.911   3.298 -0.6701 -1.2652 -0.2330
 5104TIP3    H215319   5.577   0.905   3.447 -0.1122  1.1655  0.0059
 5105TIP3   OH215320   3.851   1.251   2.744 -0.4179  0.3865 -0.0207
 5105TIP3    H115321   3.864   1.268   2.837 -3.9945  0.7892  0.5244
 5105TIP3    H215322   3.784   1.313   2.717 -1.1928 -1.2828 -2.2705
 5106TIP3   OH215323   3.291   5.789   5.123 -0.2175  0.3642  0.1741
 5106TIP3    H115324   3.232   5.795   5.198 -0.9629  0.1578 -0.3883
 5106TIP3    H215325   3.330   5.701   5.131 -0.2119  0.3845  0.3784
 5107TIP3   OH215326   0.370   2.907   1.150  0.0178 -0.2287 -0.0744
 5107TIP3    H115327   0.312   2.964   1.099  0.7953  1.6178  1.0149
 5107TIP3    H215328   0.328   2.900   1.235  0.9394  0.4572  0.4593
 5108TIP3   OH215329   0.183   2.420   2.448 -0.5003 -0.0955 -0.0912
 5108TIP3    H115330   0.240   2.406   2.372 -0.8726 -2.1544 -0.0485
 5108TIP3    H215331   0.098   2.385   2.421 -0.7401 -0.5013  1.1283
 5109TIP3   OH215332   0.181   2.920   0.218 -0.0558  0.2422 -0.4669
 5109TIP3    H115333   0.252   2.945   0.159 -0.5927 -0.2044 -1.3321
 5109TIP3    H215334   0.178   2.988   0.284  0.4865  0.8232 -1.0356
 5110TIP3   OH215335   0.478   1.464   3.650 -0.3392  0.2583  0.3057
 5110TIP3    H115336   0.414   1.508   3.594  0.5212  1.5159  0.2747
 5110TIP3    H215337   0.519   1.535   3.700  1.6494 -0.3937 -0.3171
 5111TIP3   OH215338   3.720   5.791   1.829 -0.2785  0.2094  0.2616
 5111TIP3    H115339   3.650   5.787   1.763 -2.1126  0.3439  2.0966
 5111TIP3    H215340   3.776   5.716   1.809 -1.1300 -0.1111 -1.0597
 5112TIP3   OH215341   1.939   0.519   0.502 -0.0321 -0.2200  0.5938
 5112TIP3    H115342   1.876   0.585   0.472 -0.3500 -1.9480 -3.1110
 5112TIP3    H215343   2.020   0.568   0.515 -0.5066  1.0945 -1.0798
 5113TIP3   OH215344   0.297   0.156   1.436 -0.2940  0.2647 -0.3633
 5113TIP3    H115345   0.334   0.239   1.466  0.3447 -0.2156  0.1856
 5113TIP3    H215346   0.224   0.139   1.496  1.4230 -1.0590  1.4662
 5114TIP3   OH215347   4.685   1.496   4.047 -0.4375  0.4055 -0.0212
 5114TIP3    H115348   4.657   1.404   4.051  1.6995 -0.2559  1.8063
 5114TIP3    H215349   4.660   1.532   4.132  1.0659  0.7392  0.2979
 5115TIP3   OH215350   4.592   0.234   4.474  0.2280  0.2412 -0.4286
 5115TIP3    H115351   4.518   0.207   4.419  0.2284 -0.5636 -0.0385
 5115TIP3    H215352   4.670   0.205   4.425  0.2083 -1.8857  0.6618
 5116TIP3   OH215353   4.728   3.760   2.923 -0.3942  0.4849  0.0824
 5116TIP3    H115354   4.752   3.718   2.840  2.5853  0.4491  0.8516
 5116TIP3    H215355   4.692   3.689   2.976  0.8740 -0.2788 -0.0298
 5117TIP3   OH215356   0.161   2.098   1.889  0.6138  0.5004  0.1943
 5117TIP3    H115357   0.124   2.058   1.967 -1.7562  1.3596 -0.3899
 5117TIP3    H215358   0.250   2.065   1.884 -0.3383 -2.5065  1.2229
 5118TIP3   OH215359   2.553   5.408   5.173  0.4398  0.1124 -0.6295
 5118TIP3    H115360   2.517   5.330   5.215  0.5631  0.4467  0.0934
 5118TIP3    H215361   2.533   5.396   5.080  0.2862 -0.6881 -0.4985
 5119TIP3   OH215362   5.326   5.849   3.836 -0.8079 -0.2382  0.2611
 5119TIP3    H115363   5.282   5.790   3.897 -0.3538  0.4081  1.2418
 5119TIP3    H215364   5.268   5.924   3.828 -1.3271 -0.7300 -0.8912
 5120TIP3   OH215365   3.489   0.760   3.926 -0.8832 -0.0180  0.2091
 5120TIP3    H115366   3.526   0.847   3.912  0.6083 -0.7808 -1.0281
 5120TIP3    H215367   3.488   0.748   4.021  2.4798 -0.0246  0.3754
 5121TIP3   OH215368   5.275   2.779   1.831 -0.8383  0.2273  0.6164
 5121TIP3    H115369   5.363   2.760   1.864 -0.1945 -0.0909 -1.1751
 5121TIP3    H215370   5.261   2.716   1.760 -1.7862  1.4137 -0.3170
 5122TIP3   OH215371   1.237   4.902   2.240 -0.4238 -0.3004  0.0246
 5122TIP3    H115372   1.265   4.965   2.307  0.2878 -2.0699  1.4976
 5122TIP3    H215373   1.222   4.821   2.289 -1.7324 -1.1825 -1.7273
 5123TIP3   OH215374   5.358   0.948   2.761 -0.0125 -0.1776  0.0195
 5123TIP3    H115375   5.373   0.946   2.667 -0.0781  0.5886 -0.0109
 5123TIP3    H215376   5.420   1.013   2.794 -2.4202  2.2570  0.0377
 5124TIP3   OH215377   3.876   5.909   4.259 -0.5466  0.2138 -0.4918
 5124TIP3    H115378   3.951   5.933   4.313 -0.5199  0.8410 -0.8030
 5124TIP3    H215379   3.804   5.901   4.322 -0.6405  1.4845 -0.4138
 5125TIP3   OH215380   4.211   1.918   4.551 -0.2504 -0.1331 -0.4487
 5125TIP3    H115381   4.270   1.991   4.568 -0.9611  0.1530  0.9229
 5125TIP3    H215382   4.268   1.848   4.518  0.4631  0.9465 -1.5979
 5126TIP3   OH215383   5.858   5.861   2.068 -0.1026  0.7074  0.3429
 5126TIP3    H115384   5.881   5.924   2.136  2.5987 -1.4922  1.7124
 5126TIP3    H215385   5.943   5.826   2.038 -1.3824 -1.2354 -1.3392
 5127TIP3   OH215386   1.723   0.578   2.789  0.0829 -0.3226 -0.8553
 5127TIP3    H115387   1.643   0.577   2.736 -1.3019 -0.0017  1.0758
 5127TIP3    H215388   1.702   0.638   2.861  2.4679  0.5497 -0.8112
 5128TIP3   OH215389   1.353   0.750   4.354 -0.1267 -0.5145  0.7021
 5128TIP3    H115390   1.302   0.682   4.312  0.0736 -2.1502  2.9514
 5128TIP3    H215391   1.289   0.807   4.397 -0.2026 -1.8204  2.4258
 5129TIP3   OH215392   1.263   3.605   1.570  0.0348  0.2620 -0.0584
 5129TIP3    H115393   1.206   3.532   1.593  1.2852 -1.0501 -0.9436
 5129TIP3    H215394   1.204   3.672   1.535 -1.3729  0.5386  2.6027
 5130TIP3   OH215395   6.001   2.448   3.415 -0.4550 -0.0933 -0.4475
 5130TIP3    H115396   6.045   2.428   3.498 -0.1702 -0.0523 -0.5891
 5130TIP3    H215397   6.068   2.435   3.348 -0.3511  1.0125 -0.5732
 5131TIP3   OH215398   0.427   3.757   3.306 -0.3995  0.0214  0.0950
 5131TIP3    H115399   0.498   3.729   3.363 -0.6390  0.3176  0.5447
 5131TIP3    H215400   0.460   3.743   3.217 -0.8561 -2.5773  0.2693
 5132TIP3   OH215401   1.505   0.385   4.279  0.1859  0.2754 -0.9794
 5132TIP3    H115402   1.536   0.296   4.264  1.2710  0.5066 -0.2571
 5132TIP3    H215403   1.467   0.412   4.195 -1.2371 -1.2640 -0.8620
 5133TIP3   OH215404   1.536   3.840   4.625  0.1099  0.8303 -0.2653
 5133TIP3    H115405   1.560   3.798   4.542 -0.5455 -1.2504  0.5224
 5133TIP3    H215406   1.606   3.815   4.686 -0.5227  0.4784  0.3317
 5134TIP3   OH215407   0.818   4.498   2.683  0.0821  0.7980  0.0570
 5134TIP3    H115408   0.832   4.547   2.602  1.1692  0.6964  0.1709
 5134TIP3    H215409   0.869   4.417   2.671 -1.1176 -0.0055  0.1587
 5135TIP3   OH215410   5.911   0.322   0.028 -0.5913 -0.2565 -0.1754
 5135TIP3    H115411   5.988   0.273   0.057 -1.9953 -2.5818 -0.1382
 5135TIP3    H215412   5.891   0.288  -0.059 -1.5743  0.3244 -0.2025
 5136TIP3   OH215413   1.262   4.930   3.029 -0.3690  0.2123  0.4874
 5136TIP3    H115414   1.170   4.954   3.038  0.2076  2.4036  1.4132
 5136TIP3    H215415   1.277   4.865   3.098 -0.8966  1.0067  1.3733
 5137TIP3   OH215416   3.555   1.058   0.984  0.0991 -0.7389  0.2962
 5137TIP3    H115417   3.466   1.093   0.985  0.3388  0.1749 -2.2066
 5137TIP3    H215418   3.546   0.971   0.944  0.4584  0.1783 -1.9842
 5138TIP3   OH215419   5.851   1.784   5.134  0.2050  0.4979 -0.0028
 5138TIP3    H115420   5.877   1.799   5.044  1.8482  2.6069  0.7314
 5138TIP3    H215421   5.785   1.851   5.152 -0.6111 -0.3324  0.2024
 5139TIP3   OH215422   4.928   1.101   4.874 -0.2193 -0.0211 -0.1518
 5139TIP3    H115423   4.997   1.085   4.809 -0.9550  0.0554 -0.9707
 5139TIP3    H215424   4.929   1.024   4.931 -1.2486 -1.3215 -1.7997
 5140TIP3   OH215425   5.642   2.456   3.685  0.6774  0.0863 -0.1934
 5140TIP3    H115426   5.553   2.428   3.704 -0.3073  3.2368  0.5840
 5140TIP3    H215427   5.677   2.484   3.770  1.8793  0.2536 -0.7103
 5141TIP3   OH215428   2.587   1.760   0.573 -0.3111  0.1662  0.5189
 5141TIP3    H115429   2.646   1.754   0.648  2.5164  3.0281 -1.2397
 5141TIP3    H215430   2.634   1.813   0.509 -2.7770 -1.6335 -3.1470
 5142TIP3   OH215431   0.450   5.950   4.149 -0.2955 -0.2053 -0.1402
 5142TIP3    H115432   0.415   5.861   4.157  1.9121 -1.0716  0.5414
 5142TIP3    H215433   0.444   5.985   4.238  0.1665 -0.2106 -0.1062
 5143TIP3   OH215434   0.484   2.315   1.572 -0.0767  0.3977  0.1795
 5143TIP3    H115435   0.446   2.245   1.625  0.4791  1.0929  1.5483
 5143TIP3    H215436   0.575   2.321   1.603  0.9801 -0.7078 -2.4516
 5144TIP3   OH215437   3.725   2.713   2.131  0.1134  0.4759 -0.6721
 5144TIP3    H115438   3.721   2.718   2.036 -0.9140  1.4432 -0.6028
 5144TIP3    H215439   3.649   2.659   2.155  2.0635 -2.4064 -0.5162
 5145TIP3   OH215440   1.978   3.756   2.352  0.5298 -0.2089  0.2379
 5145TIP3    H115441   2.011   3.693   2.417  4.3874 -0.6603 -1.8127
 5145TIP3    H215442   2.000   3.842   2.388 -1.0493 -0.1788  1.2273
 5146TIP3   OH215443   2.016   3.018   3.784 -0.1283  0.7910 -0.5142
 5146TIP3    H115444   1.937   3.002   3.732  0.0962 -1.5505 -0.2473
 5146TIP3    H215445   2.080   2.956   3.749  0.4048 -0.0035  1.7279
 5147TIP3   OH215446   3.910   1.195   1.735  0.4683  0.2986  0.5404
 5147TIP3    H115447   3.886   1.102   1.737  0.5187  0.2896  1.1976
 5147TIP3    H215448   3.900   1.221   1.644  0.8255 -0.4484  0.2848
 5148TIP3   OH215449   5.608   0.238   3.277 -0.4141 -0.1540  0.3182
 5148TIP3    H115450   5.627   0.315   3.224  0.6383 -0.1157  0.7201
 5148TIP3    H215451   5.585   0.170   3.214 -0.9037  0.3570 -0.0668
 5149TIP3   OH215452   2.751   5.783   3.669 -0.1259  0.0118  0.2776
 5149TIP3    H115453   2.752   5.747   3.580  0.4308 -0.2022  0.3687
 5149TIP3    H215454   2.659   5.808   3.683 -0.8864 -2.7004  0.7264
 5150TIP3   OH215455   6.144   4.982   3.338  0.1357  0.0110  0.0629
 5150TIP3    H115456   6.228   5.006   3.299  0.6290 -2.0815 -0.3038
 5150TIP3    H215457   6.089   4.961   3.263  0.1208 -1.0847  0.3645
 5151TIP3   OH215458   1.439   3.652   2.146  0.4825  0.0365  0.8223
 5151TIP3    H115459   1.388   3.733   2.146 -0.1961 -0.3468  2.7966
 5151TIP3    H215460   1.519   3.675   2.098 -0.2397  1.4981  0.2546
 5152TIP3   OH215461   2.142   3.165   2.216  0.2157 -0.2446 -0.2299
 5152TIP3    H115462   2.207   3.202   2.156 -0.5663  3.0206  0.7288
 5152TIP3    H215463   2.135   3.073   2.190  1.3267  0.5190 -3.7872
 5153TIP3   OH215464   4.108   4.020   4.253 -0.0288  0.5189 -0.0205
 5153TIP3    H115465   4.044   4.070   4.204 -1.5633 -0.7428  0.5839
 5153TIP3    H215466   4.175   3.996   4.189 -1.2772  0.0530 -1.1968
 5154TIP3   OH215467   1.156   5.130   0.269  0.4100 -0.4740  0.1703
 5154TIP3    H115468   1.169   5.150   0.177  0.6987  0.8622  0.4734
 5154TIP3    H215469   1.067   5.096   0.275 -0.3894  1.4293 -0.3287
 5155TIP3   OH215470   0.908   3.550   4.933  0.3389 -0.0995  0.1325
 5155TIP3    H115471   0.893   3.550   5.027  0.5949  1.9882  0.2142
 5155TIP3    H215472   0.869   3.468   4.902 -2.0213  0.3279  1.7125
 5156TIP3   OH215473   5.618   2.154   2.198  0.0529 -0.4195 -0.1120
 5156TIP3    H115474   5.629   2.210   2.122 -1.1812  0.1097  0.0713
 5156TIP3    H215475   5.642   2.067   2.168 -0.5691 -0.2437 -1.1628
 5157TIP3   OH215476   2.034   3.066   5.003 -0.2026  0.2040 -0.3278
 5157TIP3    H115477   2.107   3.094   4.948 -1.1198  0.5083 -1.4222
 5157TIP3    H215478   2.069   3.068   5.092  1.3018 -0.2798 -0.8848
 5158TIP3   OH215479   6.043   3.918   1.125 -0.0039 -0.3645  0.2310
 5158TIP3    H115480   6.084   3.992   1.170  1.9022 -0.7514 -0.7693
 5158TIP3    H215481   5.952   3.945   1.113  0.8170  2.2255 -0.8890
 5159TIP3   OH215482   3.555   3.649   0.785  0.6718 -0.1487 -0.6857
 5159TIP3    H115483   3.513   3.589   0.847  2.4059 -0.4640  0.2575
 5159TIP3    H215484   3.619   3.696   0.838 -0.3222  2.2528 -1.5053
 5160TIP3   OH215485   2.322   1.859   0.256  0.0845  0.0886 -0.5419
 5160TIP3    H115486   2.347   1.800   0.328 -0.2848 -0.4591 -0.8591
 5160TIP3    H215487   2.227   1.862   0.260  0.1202  1.7630  0.3362
 5161TIP3   OH215488   3.655   1.482   2.138  1.0102 -0.1222  0.2481
 5161TIP3    H115489   3.662   1.398   2.093  0.3714 -0.2160  0.3168
 5161TIP3    H215490   3.561   1.499   2.143  1.0825  0.0365  1.2738
 5162TIP3   OH215491   2.921   5.754   4.191 -0.4094 -0.4163 -0.4036
 5162TIP3    H115492   2.845   5.715   4.148 -2.9525  1.2270  2.2286
 5162TIP3    H215493   2.949   5.688   4.255 -1.3060 -0.0579  0.3800
 5163TIP3   OH215494   5.878   4.900   4.723 -0.1009 -0.4121 -0.6876
 5163TIP3    H115495   5.829   4.963   4.776 -0.0143 -0.6315 -0.3410
 5163TIP3    H215496   5.889   4.824   4.781 -0.5180 -0.8837 -1.2219
 5164TIP3   OH215497   1.331   2.067   0.251  0.2376 -0.1330  0.1583
 5164TIP3    H115498   1.325   2.063   0.155 -1.1231 -1.2761  0.2716
 5164TIP3    H215499   1.305   1.980   0.280  2.8356 -0.5767  1.5084
 5165TIP3   OH215500   0.027   4.443   4.060 -0.8155 -0.5557 -0.4794
 5165TIP3    H115501   0.036   4.394   4.142  1.1195  0.0819 -0.2577
 5165TIP3    H215502   0.109   4.492   4.052 -1.2042 -0.1393 -2.5057
 5166TIP3   OH215503   4.179   0.872   2.925 -0.9961  0.3245  0.0453
 5166TIP3    H115504   4.241   0.836   2.861  0.7654 -0.2271  1.9500
 5166TIP3    H215505   4.157   0.798   2.982 -0.6185  1.2877  1.4957
 5167TIP3   OH215506   0.461   3.399   1.704  0.2788  0.2791 -0.1561
 5167TIP3    H115507   0.491   3.338   1.772  0.8071  1.3403  0.5912
 5167TIP3    H215508   0.503   3.367   1.624  0.3575 -0.4738  0.1717
 5168TIP3   OH215509   1.881   5.776   1.630 -0.2882 -0.2427 -0.3283
 5168TIP3    H115510   1.947   5.801   1.693 -1.1621  1.4666 -0.0201
 5168TIP3    H215511   1.904   5.687   1.604  0.3490 -0.8410  2.0455
 5169TIP3   OH215512   5.947   1.169   4.343  0.2316 -0.4827 -0.0669
 5169TIP3    H115513   6.013   1.171   4.412 -0.9478 -0.8031  1.1010
 5169TIP3    H215514   5.953   1.080   4.308  1.8406  0.1106 -1.4331
 5170TIP3   OH215515   6.178   2.978   1.525 -0.2852  0.6543  0.0294
 5170TIP3    H115516   6.184   2.915   1.597  1.9611  0.6987 -0.0623
 5170TIP3    H215517   6.086   2.974   1.498 -0.9121 -0.2361  2.0951
 5171TIP3   OH215518   0.531   2.812   3.462  0.3860  0.0018 -0.3439
 5171TIP3    H115519   0.623   2.790   3.444  0.0899 -0.4751 -1.3608
 5171TIP3    H215520   0.487   2.727   3.465  0.0017  0.2192  0.3253
 5172TIP3   OH215521   0.598   2.840   1.829  0.2412  0.2117  0.0371
 5172TIP3    H115522   0.548   2.780   1.773  1.3652 -0.2255 -0.5101
 5172TIP3    H215523   0.689   2.821   1.810  0.8148 -1.4857  3.5447
 5173TIP3   OH215524   3.701   1.777   0.908  0.0044 -1.1219  0.4698
 5173TIP3    H115525   3.620   1.822   0.886  0.2580 -1.7021 -1.8870
 5173TIP3    H215526   3.733   1.821   0.987 -1.3696  0.6874  0.0664
 5174TIP3   OH215527   1.008   3.526   3.253 -0.0831 -0.2008 -0.2774
 5174TIP3    H115528   0.944   3.492   3.316 -0.5495 -0.4857 -0.8981
 5174TIP3    H215529   1.081   3.557   3.307 -1.0141  0.7303  0.4739
 5175TIP3   OH215530   5.700   1.901   1.165 -0.0011 -0.1924  0.1521
 5175TIP3    H115531   5.689   1.969   1.232  3.9807 -1.1474  2.1161
 5175TIP3    H215532   5.773   1.932   1.111  0.7583 -2.0636  0.0235
 5176TIP3   OH215533   3.351   4.224   4.448 -0.0812 -0.2504 -0.0618
 5176TIP3    H115534   3.277   4.252   4.393  1.2127 -0.4356 -1.9997
 5176TIP3    H215535   3.390   4.152   4.400  0.8891 -0.6987  1.3488
 5177TIP3   OH215536   1.584   3.830   2.568 -0.2842  0.5470 -0.0214
 5177TIP3    H115537   1.590   3.761   2.502 -1.8952  0.3068  0.0302
 5177TIP3    H215538   1.495   3.866   2.557  0.0074  1.6205  0.9233
 5178TIP3   OH215539   4.855   4.435   3.799 -0.1268  0.6686  0.1353
 5178TIP3    H115540   4.888   4.368   3.739 -0.2599 -0.8766  1.7283
 5178TIP3    H215541   4.847   4.390   3.883 -1.8750  2.2222  0.8586
 5179TIP3   OH215542   2.769   5.708   4.474  0.0160  1.3604  0.3325
 5179TIP3    H115543   2.846   5.758   4.502 -0.0344  0.9681  1.1766
 5179TIP3    H215544   2.805   5.636   4.421  0.2587  0.9818  1.0068
 5180TIP3   OH215545   1.095   3.587   0.106  0.0712  0.4930 -0.1393
 5180TIP3    H115546   1.103   3.672   0.063  1.2121  0.2799 -0.3717
 5180TIP3    H215547   1.173   3.539   0.080 -0.2909 -0.4401  0.4278
 5181TIP3   OH215548   5.480   2.752   3.897 -0.6027 -1.2243 -0.1637
 5181TIP3    H115549   5.542   2.680   3.910  0.3817 -0.6514 -1.5265
 5181TIP3    H215550   5.522   2.827   3.938  0.7584 -0.2943 -3.0248
 5182TIP3   OH215551   1.004   5.707   3.679  0.0612 -0.6746  0.5557
 5182TIP3    H115552   0.936   5.676   3.619  0.7781  1.6969 -1.6662
 5182TIP3    H215553   0.957   5.752   3.748 -0.7231 -2.1617  1.0452
 5183TIP3   OH215554   4.852   2.373   1.134 -0.6469  0.6925 -0.5580
 5183TIP3    H115555   4.768   2.408   1.163 -1.1185 -0.8877  0.0990
 5183TIP3    H215556   4.861   2.289   1.180  1.7694  1.2669  0.1943
 5184TIP3   OH215557   5.060   3.988   1.836 -0.2531 -0.2319  0.3968
 5184TIP3    H115558   5.016   4.070   1.858 -1.7679 -0.3347 -1.8887
 5184TIP3    H215559   5.048   3.933   1.913  0.2648  1.4175  1.7414
 5185TIP3   OH215560   1.300   1.459   4.403 -0.8851 -0.0308  0.0283
 5185TIP3    H115561   1.392   1.486   4.405 -0.4978 -0.8491 -2.3835
 5185TIP3    H215562   1.251   1.540   4.398 -0.3243  0.4258  1.5829
 5186TIP3   OH215563   1.129   2.407   4.898 -0.2292  0.5578  0.6632
 5186TIP3    H115564   1.039   2.431   4.873 -0.8088 -0.6596  1.4484
 5186TIP3    H215565   1.151   2.467   4.969 -0.3144  1.0408  0.2855
 5187TIP3   OH215566   1.581   3.383   3.456 -0.0835  0.6451 -0.2202
 5187TIP3    H115567   1.599   3.323   3.529 -0.5078 -0.0256 -0.6530
 5187TIP3    H215568   1.663   3.386   3.407 -0.5301 -0.9522 -1.1504
 5188TIP3   OH215569   2.269   2.822   2.920  0.4197 -0.3618  0.7552
 5188TIP3    H115570   2.228   2.896   2.965  1.1256  1.4456 -1.3438
 5188TIP3    H215571   2.208   2.801   2.849  0.7615 -1.0346  0.6591
 5189TIP3   OH215572   4.710   1.232   4.730 -0.2353  0.2822  0.0211
 5189TIP3    H115573   4.724   1.190   4.645 -1.7476 -0.9985  0.3354
 5189TIP3    H215574   4.758   1.176   4.792 -2.5206 -1.3361  0.4849
 5190TIP3   OH215575   0.099   3.420   1.948  1.0135 -0.2582  0.2549
 5190TIP3    H115576   0.046   3.456   1.878  0.8960 -2.8012 -1.0658
 5190TIP3    H215577   0.189   3.424   1.915  1.2277  0.5968  0.9171
 5191TIP3   OH215578   2.189   1.686   2.193  0.2135 -0.1860  0.2694
 5191TIP3    H115579   2.262   1.709   2.251 -0.2740  0.7768  0.5267
 5191TIP3    H215580   2.118   1.661   2.252  0.3427 -1.1829  0.0182
 5192TIP3   OH215581   2.784   4.558   3.727 -0.1118  0.0153  0.3609
 5192TIP3    H115582   2.803   4.566   3.821 -0.6708  1.2544  0.3840
 5192TIP3    H215583   2.807   4.467   3.706  1.2038  0.0640  1.4167
 5193TIP3   OH215584   3.551   4.178   2.708 -0.1932  0.1696  0.6772
 5193TIP3    H115585   3.531   4.157   2.799  0.6013 -1.2829  0.5510
 5193TIP3    H215586   3.544   4.094   2.662 -0.8427  0.9246 -0.6606
 5194TIP3   OH215587   1.774   4.444   0.847 -0.1626 -0.3269  0.2742
 5194TIP3    H115588   1.735   4.510   0.789  0.6661 -1.0469 -1.1554
 5194TIP3    H215589   1.866   4.441   0.821 -0.0648 -1.6229  0.7211
 5195TIP3   OH215590   0.178   4.511   0.410 -0.3092 -0.0839 -0.3241
 5195TIP3    H115591   0.160   4.605   0.398  0.6070  0.1974  0.4310
 5195TIP3    H215592   0.179   4.498   0.505 -0.5952 -0.9015 -0.4222
 5196TIP3   OH215593   3.580   0.596   4.659 -0.0233  0.2799 -0.4817
 5196TIP3    H115594   3.615   0.507   4.657 -0.6725  0.0192 -1.2084
 5196TIP3    H215595   3.648   0.649   4.700  0.3065 -0.5789  0.0958
 5197TIP3   OH215596   5.660   0.203   0.213 -0.3559  0.6834  0.2485
 5197TIP3    H115597   5.587   0.227   0.156 -0.0817  2.4617  0.5926
 5197TIP3    H215598   5.738   0.227   0.163  0.1708 -2.7834 -0.8569
 5198TIP3   OH215599   5.674   4.879   3.695 -0.4563 -0.1330 -0.2666
 5198TIP3    H115600   5.634   4.966   3.696  0.2057  0.2024 -1.6249
 5198TIP3    H215601   5.695   4.863   3.603  0.9091 -1.0423  0.1758
 5199TIP3   OH215602   0.539   3.952   0.148 -0.0311 -0.0290  0.2280
 5199TIP3    H115603   0.574   4.020   0.089  0.0021  0.2115  0.5217
 5199TIP3    H215604   0.609   3.886   0.152 -0.0668 -0.0865 -0.0658
 5200TIP3   OH215605   0.364   2.396   0.468  0.5515  0.2732  0.0847
 5200TIP3    H115606   0.282   2.377   0.423  1.2223 -0.5745 -0.8337
 5200TIP3    H215607   0.361   2.344   0.548  1.0525 -1.4261 -0.9426
 5201TIP3   OH215608   3.761   4.909   0.940  0.8143  0.2501  0.1567
 5201TIP3    H115609   3.810   4.921   1.022  0.9501  1.2040 -0.0609
 5201TIP3    H215610   3.670   4.904   0.967  0.7238  1.9474  0.2704
 5202TIP3   OH215611   1.932   1.482   1.860  0.1765 -0.0554 -0.7019
 5202TIP3    H115612   1.943   1.393   1.827  0.1882 -0.1967 -0.3260
 5202TIP3    H215613   1.932   1.472   1.955 -2.2431  0.0384 -0.6297
 5203TIP3   OH215614   1.177   0.783   3.091  0.5686 -0.1768  0.0330
 5203TIP3    H115615   1.162   0.735   3.009 -0.6990 -1.6871  1.0919
 5203TIP3    H215616   1.199   0.715   3.155 -3.5749  0.1647  2.1659
 5204TIP3   OH215617   5.007   5.640   0.989 -0.0511 -0.2607 -0.0445
 5204TIP3    H115618   4.932   5.671   1.040 -1.1997 -0.3817 -1.5858
 5204TIP3    H215619   4.970   5.575   0.930  0.8683  1.0295 -2.1634
 5205TIP3   OH215620   5.713   4.239   4.982 -0.1785  0.2329 -0.5353
 5205TIP3    H115621   5.707   4.288   4.900  2.1554  0.7107 -0.4953
 5205TIP3    H215622   5.688   4.150   4.959  3.9130 -0.5978 -2.7961
 5206TIP3   OH215623   3.179   3.809   2.862 -0.2579  0.0814 -0.5367
 5206TIP3    H115624   3.268   3.784   2.837 -0.0101  1.3230 -0.9911
 5206TIP3    H215625   3.147   3.860   2.787 -1.2931 -0.2217 -0.3145
 5207TIP3   OH215626   3.714   2.301   0.655  0.0348 -0.1062  1.0803
 5207TIP3    H115627   3.752   2.251   0.727  0.6311 -0.1298  0.7510
 5207TIP3    H215628   3.728   2.247   0.577  1.5040  0.9527  0.5686
 5208TIP3   OH215629   3.920   2.263   4.046 -0.0162  0.3986  0.0328
 5208TIP3    H115630   3.844   2.205   4.035  0.1319  0.5144 -2.0554
 5208TIP3    H215631   3.926   2.277   4.140 -1.0702 -1.6399  0.4690
 5209TIP3   OH215632   4.873   1.945   3.325  0.3237  0.0923 -0.3696
 5209TIP3    H115633   4.794   1.958   3.271  0.6196  0.2044 -0.7812
 5209TIP3    H215634   4.937   1.907   3.265  0.6858  0.2974 -0.1190
 5210TIP3   OH215635   5.956   5.427   0.713 -0.0120 -0.0754 -0.3590
 5210TIP3    H115636   5.903   5.349   0.725  0.3974 -0.1507  1.0643
 5210TIP3    H215637   6.046   5.398   0.728  0.0213  0.9519  1.8643
 5211TIP3   OH215638   0.927   4.960   4.361  0.4531  0.0594  0.0573
 5211TIP3    H115639   0.910   4.887   4.301  0.3186  0.4201 -0.3489
 5211TIP3    H215640   0.916   5.038   4.308  3.2820  0.3572 -0.2267
 5212TIP3   OH215641   3.889   5.752   1.544 -0.2064  0.0768  0.1752
 5212TIP3    H115642   3.826   5.810   1.502  0.2060  0.2827 -0.1690
 5212TIP3    H215643   3.974   5.793   1.526  0.0866 -0.6260 -0.0594
 5213TIP3   OH215644   3.772   2.059   2.753 -0.5492  0.5651  0.2123
 5213TIP3    H115645   3.783   1.967   2.732 -0.9982  0.5920 -0.1685
 5213TIP3    H215646   3.677   2.070   2.760 -0.5147  1.0637 -0.0580
 5214TIP3   OH215647   3.393   5.069   4.692 -0.1250  1.0771  0.1002
 5214TIP3    H115648   3.443   4.994   4.661 -1.4963  1.2126 -2.8097
 5214TIP3    H215649   3.456   5.142   4.691  0.5732  0.4884  0.4244
 5215TIP3   OH215650   2.569   4.018   2.438 -0.7940 -0.5353  0.2181
 5215TIP3    H115651   2.592   3.968   2.360  1.7034 -0.6059  0.9157
 5215TIP3    H215652   2.585   3.958   2.511  2.1947  1.0914  1.0696
 5216TIP3   OH215653   5.141   1.183   0.201  0.3881 -0.3163 -0.5297
 5216TIP3    H115654   5.113   1.124   0.271  1.5195 -0.6470 -0.3428
 5216TIP3    H215655   5.113   1.139   0.121  1.6093 -1.3596 -0.4150
 5217TIP3   OH215656   3.023   5.415   0.926 -0.2170 -0.2143  0.3889
 5217TIP3    H115657   2.979   5.499   0.938 -0.2310 -0.0362 -0.8056
 5217TIP3    H215658   2.971   5.353   0.979 -2.4177 -0.1768 -1.5580
 5218TIP3   OH215659   0.994   2.384   2.942  0.0804 -0.2729 -0.0830
 5218TIP3    H115660   1.038   2.303   2.918  0.3489  0.2074 -1.2983
 5218TIP3    H215661   0.971   2.425   2.858  0.1935  1.0327  0.4904
 5219TIP3   OH215662   5.631   1.507   0.206 -0.5571 -0.9340 -0.2911
 5219TIP3    H115663   5.711   1.468   0.242 -1.1734  0.6992  3.2566
 5219TIP3    H215664   5.569   1.434   0.202 -0.8722 -1.0778  3.6276
 5220TIP3   OH215665   2.664   3.281   4.032 -0.3257 -0.2818 -0.3303
 5220TIP3    H115666   2.728   3.221   3.992 -0.7369 -0.5872 -0.5397
 5220TIP3    H215667   2.716   3.336   4.091  0.0734 -0.7816 -0.2100
 5221TIP3   OH215668   5.137   0.094   2.784 -0.0611  0.4340 -0.4100
 5221TIP3    H115669   5.087   0.062   2.859 -0.1302  0.5160 -0.4211
 5221TIP3    H215670   5.127   0.189   2.787 -0.3462  0.4166 -0.7198
 5222TIP3   OH215671   0.058   2.564   4.654  0.1486 -0.1133  1.2117
 5222TIP3    H115672  -0.020   2.617   4.634  0.4872  0.1333  0.5071
 5222TIP3    H215673   0.048   2.541   4.746  0.0715  1.2980  1.5712
 5223TIP3   OH215674   1.260   4.743   4.582  0.1533  0.2026  0.2165
 5223TIP3    H115675   1.258   4.701   4.669 -0.5634 -2.2737 -0.8896
 5223TIP3    H215676   1.352   4.750   4.561  0.3665  1.3918  1.3829
 5224TIP3   OH215677   4.347   3.580   1.982 -0.2203 -0.3802  0.3194
 5224TIP3    H115678   4.273   3.538   2.026 -0.6920 -0.7425 -0.7871
 5224TIP3    H215679   4.307   3.647   1.928  0.3782  0.2276  0.6223
 5225TIP3   OH215680   4.989   3.501   3.823  0.3011 -0.2709 -0.2020
 5225TIP3    H115681   4.901   3.524   3.854  0.4931  0.7453 -0.3955
 5225TIP3    H215682   4.976   3.423   3.770 -0.1753 -1.5130  1.6389
 5226TIP3   OH215683   3.710   0.368   4.747  0.2387 -0.5107 -0.0540
 5226TIP3    H115684   3.751   0.313   4.813 -1.3420 -0.5343  0.9559
 5226TIP3    H215685   3.627   0.396   4.786  0.2538  1.2863 -1.1629
 5227TIP3   OH215686   0.264   4.434   3.185 -0.3176 -0.1915  0.0194
 5227TIP3    H115687   0.230   4.442   3.096 -0.5654  1.3527  0.2264
 5227TIP3    H215688   0.336   4.371   3.178 -0.0386  0.2642 -1.3564
 5228TIP3   OH215689   1.758   0.785   1.753 -0.2213  0.0198 -0.4156
 5228TIP3    H115690   1.774   0.731   1.676 -0.2754  0.5401 -0.7961
 5228TIP3    H215691   1.704   0.857   1.721 -1.4675 -0.5166  0.3996
 5229TIP3   OH215692   5.696   3.434   3.830 -0.3570  0.1929 -0.6211
 5229TIP3    H115693   5.642   3.399   3.759 -1.3875  0.0708  0.1967
 5229TIP3    H215694   5.709   3.360   3.889 -2.6774  1.0980  1.2010
 5230TIP3   OH215695   3.608   2.477   1.686  0.1877 -0.4150  0.0316
 5230TIP3    H115696   3.687   2.491   1.737  0.1594  1.1546 -0.3015
 5230TIP3    H215697   3.635   2.490   1.595 -0.4204  0.1091 -0.0875
 5231TIP3   OH215698   5.084   0.181   1.473  0.3466 -0.5356 -0.1358
 5231TIP3    H115699   5.118   0.256   1.522 -0.3891  0.2176 -0.7521
 5231TIP3    H215700   5.113   0.194   1.383  2.4190 -2.3556  0.1762
 5232TIP3   OH215701   0.548   1.537   4.700 -0.2182 -0.6054 -0.2718
 5232TIP3    H115702   0.586   1.625   4.691 -0.1113 -0.3468  2.0557
 5232TIP3    H215703   0.458   1.547   4.667 -0.3287  0.4925  0.3041
 5233TIP3   OH215704   1.213   4.285   1.111 -0.2412  0.0376 -0.1439
 5233TIP3    H115705   1.277   4.317   1.048 -0.4302 -0.4871 -0.6053
 5233TIP3    H215706   1.143   4.246   1.058 -1.0613  0.8119  0.3448
 5234TIP3   OH215707   5.557   2.773   3.169 -0.4677  0.5661 -0.5203
 5234TIP3    H115708   5.495   2.738   3.105  2.1010  0.4612 -3.1805
 5234TIP3    H215709   5.547   2.868   3.161 -1.5802  0.5566  0.5067
 5235TIP3   OH215710   4.277   4.700   3.298 -0.0335 -0.1725 -0.4360
 5235TIP3    H115711   4.306   4.615   3.331 -0.3491 -0.1961 -0.2132
 5235TIP3    H215712   4.213   4.729   3.362 -0.0813  0.1385 -0.6256
 5236TIP3   OH215713   4.510   3.571   3.653  0.1532 -0.2981 -0.0959
 5236TIP3    H115714   4.495   3.639   3.718  0.2674 -0.1136 -0.2604
 5236TIP3    H215715   4.596   3.593   3.616 -0.2077 -0.0153 -0.7816
 5237TIP3   OH215716   3.531   0.731   2.796 -0.3280 -0.0001  0.1017
 5237TIP3    H115717   3.453   0.777   2.828 -0.9416 -0.7507 -0.2539
 5237TIP3    H215718   3.501   0.688   2.716  0.1303 -1.2150  0.5540
 5238TIP3   OH215719   0.745   3.525   0.599  0.1256 -0.0933 -0.0034
 5238TIP3    H115720   0.674   3.496   0.657 -1.4987  1.3976 -1.1238
 5238TIP3    H215721   0.812   3.559   0.657 -1.2530  0.9326  1.0521
 5239TIP3   OH215722   0.684   4.616   1.354 -0.2250  0.4162  0.0450
 5239TIP3    H115723   0.780   4.615   1.346 -0.1925 -0.2860  0.4049
 5239TIP3    H215724   0.660   4.523   1.350 -0.9937  0.6558 -1.2525
 5240TIP3   OH215725   3.501   3.566   3.366  0.5163  0.0568  0.0564
 5240TIP3    H115726   3.483   3.657   3.389  0.1416  0.8923 -3.1492
 5240TIP3    H215727   3.456   3.515   3.434 -0.2055  2.2171  1.2944
 5241TIP3   OH215728   3.550   0.415   4.060  0.2028 -0.2633 -0.0815
 5241TIP3    H115729   3.546   0.333   4.108 -0.3297 -0.1385  0.0959
 5241TIP3    H215730   3.504   0.478   4.116 -1.5195 -0.3914 -1.3017
 5242TIP3   OH215731   1.892   4.844   1.454  0.1214 -0.2019 -0.0577
 5242TIP3    H115732   1.925   4.757   1.476  0.0389  0.2360  2.0518
 5242TIP3    H215733   1.833   4.866   1.526 -1.6600  0.6911 -1.6978
 5243TIP3   OH215734   5.023   5.773   2.080  0.6992 -0.0630  0.4309
 5243TIP3    H115735   5.036   5.811   1.993 -1.2004  0.8307  0.4810
 5243TIP3    H215736   5.046   5.842   2.141  1.7769 -0.6036  0.6653
 5244TIP3   OH215737   6.274   0.192   1.323  0.1998 -0.1564 -0.3919
 5244TIP3    H115738   6.349   0.152   1.279  0.9463  0.1224  0.6041
 5244TIP3    H215739   6.295   0.285   1.327 -1.1362  0.2727 -1.9094
 5245TIP3   OH215740   5.970   3.701   4.785 -0.0892  0.4036  0.3322
 5245TIP3    H115741   5.896   3.646   4.759  0.0734  0.3677 -0.0637
 5245TIP3    H215742   6.044   3.641   4.792 -0.2742  0.2867  1.6091
 5246TIP3   OH215743   0.143   5.084   3.004 -0.3610  0.7511  0.3426
 5246TIP3    H115744   0.092   5.061   2.926 -0.6745 -0.9407  1.0058
 5246TIP3    H215745   0.233   5.059   2.982 -0.8669 -2.5296  1.4821
 5247TIP3   OH215746   0.743   4.808   3.257  0.0371 -0.0749 -0.2631
 5247TIP3    H115747   0.661   4.763   3.234 -0.0418  0.2346 -0.6056
 5247TIP3    H215748   0.771   4.767   3.338  0.8584 -1.9491 -1.4170
 5248TIP3   OH215749   1.314   0.199  -0.000  0.3184 -0.2330  0.0942
 5248TIP3    H115750   1.375   0.143   0.048  0.7996  0.1151 -0.1019
 5248TIP3    H215751   1.349   0.287   0.011  0.0921 -0.0827 -0.3850
 5249TIP3   OH215752   5.268   4.030   0.531 -0.6469 -0.1737  0.4574
 5249TIP3    H115753   5.360   4.057   0.537 -0.9198  0.7894  0.4793
 5249TIP3    H215754   5.242   4.055   0.442 -1.4597  1.5016  1.1194
 5250TIP3   OH215755   0.739   3.577   2.407 -0.4353 -0.3012 -0.2395
 5250TIP3    H115756   0.747   3.547   2.317 -1.7719  0.6702 -0.7082
 5250TIP3    H215757   0.779   3.507   2.459  1.0939 -0.5121 -1.6058
 5251TIP3   OH215758   5.135   1.701   2.389  1.0071  0.4073  0.0678
 5251TIP3    H115759   5.156   1.792   2.408 -0.5874  0.8194 -0.0046
 5251TIP3    H215760   5.039   1.697   2.392  1.0266 -1.1748 -0.3500
 5252TIP3   OH215761   2.479   4.843   0.222  0.3571  0.0202 -0.3533
 5252TIP3    H115762   2.456   4.868   0.312  1.2741 -0.6723  0.0926
 5252TIP3    H215763   2.424   4.767   0.204 -1.3353  1.3763 -1.1603
 5253TIP3   OH215764   1.689   5.341   0.814  0.2419  0.1568 -0.3887
 5253TIP3    H115765   1.680   5.378   0.902 -0.3831 -1.1972  0.1472
 5253TIP3    H215766   1.600   5.325   0.785  0.4773 -0.5332 -0.7584
 5254TIP3   OH215767   6.119   0.464   3.669  0.1634 -0.3424  0.2346
 5254TIP3    H115768   6.172   0.458   3.590  0.8907 -2.7421  0.8081
 5254TIP3    H215769   6.043   0.408   3.651  0.1587 -0.6202  1.0603
 5255TIP3   OH215770   0.925   0.069   1.134 -0.0596 -0.0273 -0.2653
 5255TIP3    H115771   0.845   0.030   1.170 -1.5596  1.5140 -1.7199
 5255TIP3    H215772   0.917   0.163   1.153  1.1772  0.2207 -0.8374
 5256TIP3   OH215773   1.041   3.986   5.053  1.0227 -0.4765  0.1310
 5256TIP3    H115774   1.065   3.935   5.131 -0.7357 -1.2402  0.2253
 5256TIP3    H215775   1.047   4.077   5.081 -0.2803 -0.7451  1.4259
 5257TIP3   OH215776   1.177   1.512   0.998 -0.2156  0.2531  0.5750
 5257TIP3    H115777   1.124   1.585   1.028 -1.8944 -1.4142  1.9194
 5257TIP3    H215778   1.267   1.538   1.018 -0.8581  1.4774  2.0597
 5258TIP3   OH215779   2.151   4.970   1.589 -0.1999  0.0895 -0.8055
 5258TIP3    H115780   2.059   4.959   1.563  0.0043 -1.4664 -0.9784
 5258TIP3    H215781   2.200   4.947   1.510  0.3457  2.0457 -1.0727
 5259TIP3   OH215782   3.227   2.193   0.118 -0.2040 -0.4282 -0.9638
 5259TIP3    H115783   3.238   2.285   0.094 -1.4864  0.0364  0.1273
 5259TIP3    H215784   3.307   2.171   0.167  0.1483  0.0651 -1.3056
 5260TIP3   OH215785   5.861   2.133   0.732 -0.3433  0.3298 -0.4293
 5260TIP3    H115786   5.819   2.218   0.741 -0.4712  0.1527  0.8015
 5260TIP3    H215787   5.793   2.070   0.757 -0.0204 -0.0916 -0.5867
 5261TIP3   OH215788   3.983   5.468   3.333  0.3041  0.2599 -0.7050
 5261TIP3    H115789   4.028   5.488   3.251  0.8009  1.1544 -0.2309
 5261TIP3    H215790   3.978   5.552   3.379  0.4889 -0.3134  0.4015
 5262TIP3   OH215791   0.889   1.206   4.044  0.4611 -0.8018 -0.0757
 5262TIP3    H115792   0.961   1.168   4.093 -0.1935 -1.3379  0.4967
 5262TIP3    H215793   0.929   1.242   3.965  1.1356 -2.6475 -0.6337
 5263TIP3   OH215794   6.270   2.145   3.868 -0.1641 -0.0973  0.2685
 5263TIP3    H115795   6.235   2.234   3.860  0.8247  0.2377 -0.6569
 5263TIP3    H215796   6.270   2.112   3.778  0.1433 -0.7732  0.5132
 5264TIP3   OH215797   1.894   3.584   0.220  0.3429 -0.4154  0.3512
 5264TIP3    H115798   1.921   3.643   0.291 -1.9375  0.5427  0.5071
 5264TIP3    H215799   1.975   3.542   0.192  1.8693  1.7718  1.1824
 5265TIP3   OH215800   3.046   1.635   0.530 -0.0951 -0.2887 -0.4620
 5265TIP3    H115801   3.103   1.641   0.607 -1.9743 -0.8285  1.0325
 5265TIP3    H215802   3.019   1.543   0.527 -2.5801  0.3641  0.1761
 5266TIP3   OH215803   0.749   3.262   0.857  0.3210 -0.9121  0.5624
 5266TIP3    H115804   0.661   3.268   0.820 -0.0403  0.4816  1.5789
 5266TIP3    H215805   0.768   3.168   0.858 -0.4820 -1.1413 -1.1449
 5267TIP3   OH215806   2.763   4.253   0.836  0.2487  0.1636 -0.9426
 5267TIP3    H115807   2.844   4.208   0.862  0.6834  1.0158 -0.7671
 5267TIP3    H215808   2.765   4.254   0.741 -0.0052 -0.6106 -0.9573
 5268TIP3   OH215809   0.703   3.089   4.459  0.1208 -0.2425  0.1845
 5268TIP3    H115810   0.649   3.082   4.538 -0.0626  0.8582  0.1751
 5268TIP3    H215811   0.791   3.063   4.488 -0.2902 -1.5829  0.3108
 5269TIP3   OH215812   0.371   3.147   4.517 -0.0457 -0.0962  0.0465
 5269TIP3    H115813   0.344   3.172   4.428  1.0576  0.4739 -0.1412
 5269TIP3    H215814   0.325   3.209   4.574  0.3206  0.4273 -0.2214
 5270TIP3   OH215815   5.943   3.135   3.396  0.7121  0.0325 -0.3258
 5270TIP3    H115816   6.020   3.128   3.452  1.3402  2.5457 -0.7313
 5270TIP3    H215817   5.959   3.215   3.345 -2.2396  0.7419 -0.2920
 5271TIP3   OH215818   0.895   4.159   1.161  0.0721 -0.1198 -0.2285
 5271TIP3    H115819   0.811   4.116   1.142 -0.0526 -0.5101  1.1015
 5271TIP3    H215820   0.926   4.188   1.076 -2.2058  1.5161 -0.6133
 5272TIP3   OH215821   5.560   3.722   2.041 -0.0044 -0.7649 -0.2466
 5272TIP3    H115822   5.537   3.683   2.125 -2.6004 -0.1048 -0.5716
 5272TIP3    H215823   5.590   3.648   1.988  0.9840 -1.3002  0.9725
 5273TIP3   OH215824   3.732   5.115   2.317 -0.4327  0.2296  0.1894
 5273TIP3    H115825   3.731   5.187   2.379 -0.7926 -1.3806  2.1364
 5273TIP3    H215826   3.824   5.106   2.292 -0.5300  2.1669 -1.1943
 5274TIP3   OH215827   1.774   3.227   0.765  0.1712  0.0188  0.3708
 5274TIP3    H115828   1.692   3.180   0.780  0.5248 -0.7245  0.0471
 5274TIP3    H215829   1.771   3.302   0.825 -0.9656  0.2912 -0.0058
 5275TIP3   OH215830   1.090   5.399   0.743 -0.1725 -0.3007 -0.1466
 5275TIP3    H115831   1.132   5.337   0.803  1.5279 -0.7165 -1.6824
 5275TIP3    H215832   1.109   5.485   0.780  0.4084 -0.5685  0.1984
 5276TIP3   OH215833   4.783   3.313   0.055  0.5747  0.1777 -0.2769
 5276TIP3    H115834   4.773   3.353  -0.032 -1.7174 -0.6868 -0.4830
 5276TIP3    H215835   4.809   3.222   0.037  3.1060  0.7527  0.1045
 5277TIP3   OH215836   0.461   4.377   2.917 -0.0439 -0.1342  0.5161
 5277TIP3    H115837   0.486   4.363   3.009  0.2257 -1.6110  0.2479
 5277TIP3    H215838   0.366   4.366   2.917  0.0290 -0.8504  0.5237
 5278TIP3   OH215839   5.235   1.353   3.900  0.1818  0.1398 -0.3701
 5278TIP3    H115840   5.201   1.419   3.961  1.8925 -0.7391  1.6668
 5278TIP3    H215841   5.158   1.322   3.854 -1.3054  0.5464  1.6898
 5279TIP3   OH215842   1.069   5.915   3.476 -0.1911  0.0081  0.0210
 5279TIP3    H115843   1.077   5.820   3.463 -1.7228 -0.1050 -0.1956
 5279TIP3    H215844   1.041   5.924   3.567 -1.4273  0.1708 -0.3649
 5280TIP3   OH215845   2.627   2.671   4.196  0.0215 -0.0081  0.1130
 5280TIP3    H115846   2.532   2.662   4.191 -0.0493 -1.5507  2.6390
 5280TIP3    H215847   2.642   2.719   4.278  1.4525 -3.1809  1.8627
 5281TIP3   OH215848   5.107   4.589   3.053 -0.5192  0.0711 -0.3554
 5281TIP3    H115849   5.055   4.609   2.975 -1.5534 -0.8571  0.0631
 5281TIP3    H215850   5.042   4.566   3.120  0.3918 -3.6101 -0.4957
 5282TIP3   OH215851   0.959   0.589   3.887 -0.5910 -0.9660 -0.0291
 5282TIP3    H115852   0.971   0.543   3.805 -2.0710 -1.3128 -0.0872
 5282TIP3    H215853   0.907   0.530   3.941 -1.2240 -0.0008  0.4634
 5283TIP3   OH215854   2.646   0.841   5.018  0.0894 -0.0661 -0.1966
 5283TIP3    H115855   2.602   0.884   4.945 -0.2829 -0.7697 -0.4001
 5283TIP3    H215856   2.688   0.765   4.978  1.1905  0.3920  0.0595
 5284TIP3   OH215857   1.545   4.995   1.350  0.5783 -0.1348 -0.0348
 5284TIP3    H115858   1.600   4.952   1.415  0.6611 -0.2911 -0.2055
 5284TIP3    H215859   1.482   5.046   1.401  1.4337  0.7577  0.1634
 5285TIP3   OH215860   1.010   1.738   1.034  0.1782  0.0692  0.5176
 5285TIP3    H115861   1.009   1.829   1.006 -0.0933  0.0166  0.3454
 5285TIP3    H215862   0.918   1.717   1.050  0.2531 -0.1330  0.6946
 5286TIP3   OH215863   0.953   0.228   2.095 -0.3726 -0.1642 -0.1330
 5286TIP3    H115864   0.957   0.232   2.000 -0.1657  0.5761 -0.1020
 5286TIP3    H215865   0.860   0.230   2.116 -0.5029 -2.0506 -0.3635
 5287TIP3   OH215866   0.115   4.983   0.058  0.3094  0.1716  0.0077
 5287TIP3    H115867   0.078   4.946   0.139  0.1228  0.6675  0.1541
 5287TIP3    H215868   0.190   5.035   0.088  0.0392  0.6269 -0.1009
 5288TIP3   OH215869   5.546   1.623   2.156 -0.0234  0.4701  0.2349
 5288TIP3    H115870   5.450   1.614   2.161 -0.1935  0.9221 -1.4362
 5288TIP3    H215871   5.566   1.698   2.211 -0.7802  1.0808 -0.3002
 5289TIP3   OH215872   4.769   5.698   0.363  0.5333  0.1393  0.2240
 5289TIP3    H115873   4.679   5.708   0.394 -0.1774 -1.2994 -1.2379
 5289TIP3    H215874   4.796   5.612   0.394  0.3672 -0.6531 -1.7006
 5290TIP3   OH215875   1.675   2.841   1.274 -0.3677  0.3484  0.2319
 5290TIP3    H115876   1.601   2.780   1.277  0.0905 -0.2200  0.0724
 5290TIP3    H215877   1.743   2.799   1.327 -0.1055  0.7908  0.2490
 5291TIP3   OH215878   4.596   5.327   0.446 -0.1559  0.3827 -0.4441
 5291TIP3    H115879   4.519   5.384   0.445 -1.2215 -1.0186 -1.0376
 5291TIP3    H215880   4.588   5.278   0.528  0.2492  0.4094 -0.3869
 5292TIP3   OH215881   4.252   3.997   3.270 -0.3389 -0.4326 -0.4449
 5292TIP3    H115882   4.341   3.962   3.267 -0.2106 -0.0738 -1.0188
 5292TIP3    H215883   4.241   4.042   3.186 -0.7541  0.2633 -0.0285
 5293TIP3   OH215884   2.782   2.766   4.705  0.6281  0.1706  0.7510
 5293TIP3    H115885   2.838   2.731   4.774  0.0976 -0.0331  1.0890
 5293TIP3    H215886   2.832   2.838   4.668  2.7278 -2.1830 -1.4187
 5294TIP3   OH215887   5.345   3.737   4.521 -0.1502  0.2097  0.2824
 5294TIP3    H115888   5.382   3.730   4.609  1.6857  0.3886 -0.4321
 5294TIP3    H215889   5.395   3.807   4.480 -1.6398  0.8018 -0.6134
 5295TIP3   OH215890   4.061   5.313   4.086 -0.1923  0.1765 -0.1238
 5295TIP3    H115891   4.037   5.379   4.021 -1.0355 -0.6427 -0.6674
 5295TIP3    H215892   4.156   5.312   4.085 -0.1914  0.4022 -1.1187
 5296TIP3   OH215893   4.126   5.147   1.353 -0.3807  0.0133  0.1655
 5296TIP3    H115894   4.118   5.194   1.436 -1.4848  1.2179 -0.5859
 5296TIP3    H215895   4.042   5.163   1.308  0.2083 -0.5727 -1.2000
 5297TIP3   OH215896   1.063   5.476   4.051 -0.1896 -0.0650 -0.3186
 5297TIP3    H115897   1.154   5.474   4.023 -0.4397  0.9417 -1.2908
 5297TIP3    H215898   1.054   5.560   4.098 -0.9164  0.5038 -1.4286
 5298TIP3   OH215899   6.111   0.513   2.036 -0.0216 -0.0719 -0.3509
 5298TIP3    H115900   6.126   0.428   2.079 -0.8543 -0.0853 -0.0778
 5298TIP3    H215901   6.017   0.527   2.043  0.3484  1.9179  1.5834
 5299TIP3   OH215902   2.489   2.230   3.269 -0.4334  0.1160 -0.6521
 5299TIP3    H115903   2.420   2.165   3.281  0.1271 -0.5705 -1.0727
 5299TIP3    H215904   2.515   2.220   3.177  0.0251  0.5660 -0.5702
 5300TIP3   OH215905   5.931   2.803   2.726 -0.7781 -0.6129  0.6457
 5300TIP3    H115906   5.853   2.752   2.707 -0.5985  0.0323 -2.3486
 5300TIP3    H215907   5.901   2.873   2.784 -2.0356 -1.3364  0.9077
 5301TIP3   OH215908   5.269   1.255   1.250 -0.0777  0.0734 -0.3669
 5301TIP3    H115909   5.357   1.233   1.280  1.1305  2.6831 -1.5807
 5301TIP3    H215910   5.254   1.197   1.175  0.3358 -0.8143  0.2255
 5302TIP3   OH215911   1.205   0.694   3.665  0.0034  0.8942 -0.2241
 5302TIP3    H115912   1.163   0.717   3.582 -0.2670 -0.6293 -0.5225
 5302TIP3    H215913   1.139   0.714   3.731 -0.4903  0.3237 -0.5372
 5303TIP3   OH215914   2.527   0.271   1.010  0.6897  0.2494 -0.1551
 5303TIP3    H115915   2.468   0.346   1.003  0.3750  0.0931  0.7616
 5303TIP3    H215916   2.484   0.211   1.071  1.2000 -0.4387 -0.4483
 5304TIP3   OH215917   0.196   5.902   1.030 -0.0996 -0.3890 -0.2600
 5304TIP3    H115918   0.253   5.892   0.954 -0.7547  0.3459 -0.8564
 5304TIP3    H215919   0.255   5.926   1.101  0.2830  1.1290 -1.0416
 5305TIP3   OH215920   1.318   3.520   0.764  0.0863  0.8441  0.2887
 5305TIP3    H115921   1.329   3.439   0.813 -2.3400  0.3143  0.0678
 5305TIP3    H215922   1.357   3.502   0.678 -1.1238 -0.3956 -0.0241
 5306TIP3   OH215923   4.983   2.870   3.221  0.6982  0.0357 -0.1214
 5306TIP3    H115924   5.019   2.887   3.135 -0.3263 -1.1267 -0.8034
 5306TIP3    H215925   5.028   2.933   3.278  1.9071  0.3381 -1.3497
 5307TIP3   OH215926   0.666   2.093   0.337  0.1119  0.5650  0.0505
 5307TIP3    H115927   0.741   2.152   0.331 -0.5844  1.3934 -0.7383
 5307TIP3    H215928   0.624   2.116   0.420  1.4974 -0.8712  1.2009
 5308TIP3   OH215929   2.854   4.346   0.569  0.1814 -0.2545 -0.0093
 5308TIP3    H115930   2.796   4.369   0.497 -0.9200  0.5952  1.0919
 5308TIP3    H215931   2.870   4.430   0.614 -1.0072 -1.0370  2.0216
 5309TIP3   OH215932   6.235   1.332   4.701 -0.3700  0.1917 -0.3667
 5309TIP3    H115933   6.216   1.252   4.652 -2.0010  0.7564 -0.7167
 5309TIP3    H215934   6.328   1.326   4.721 -0.1031 -1.0145 -1.7947
 5310TIP3   OH215935   0.905   0.063   3.556  0.2204  0.1227  1.7465
 5310TIP3    H115936   0.898   0.155   3.530  2.2548 -0.3843 -1.1066
 5310TIP3    H215937   0.816   0.029   3.550 -0.2960  1.5132  1.1242
 5311TIP3   OH215938   2.452   4.015   2.728 -0.9450 -0.2767  0.7470
 5311TIP3    H115939   2.535   3.968   2.725 -0.2992  0.8689  0.2070
 5311TIP3    H215940   2.444   4.044   2.819 -0.8372 -0.5379  0.8398
 5312TIP3   OH215941   4.078   0.704   1.076 -0.4063 -0.1840  0.0420
 5312TIP3    H115942   4.145   0.719   1.009 -0.5448  0.2560  0.0013
 5312TIP3    H215943   4.128   0.697   1.158 -0.2260 -0.8539 -0.1193
 5313TIP3   OH215944   4.455   2.342   4.433 -0.1014  0.1522  0.0385
 5313TIP3    H115945   4.496   2.399   4.368 -0.6254  1.6762  0.9938
 5313TIP3    H215946   4.372   2.384   4.453 -0.0357 -0.3799  1.5553
 5314TIP3   OH215947   4.712   4.748   4.542 -0.2972 -0.0446 -0.2219
 5314TIP3    H115948   4.784   4.753   4.605 -0.5749 -0.7171  0.1747
 5314TIP3    H215949   4.633   4.756   4.596 -0.5351 -0.3133 -0.5246
 5315TIP3   OH215950   4.664   2.222   2.841  0.4469 -0.3702  0.3587
 5315TIP3    H115951   4.581   2.194   2.804  0.1231  0.9266  0.0401
 5315TIP3    H215952   4.719   2.241   2.765  0.4028  0.5233  0.5323
 5316TIP3   OH215953   3.137   1.606   1.289 -0.2055  0.5299 -0.2543
 5316TIP3    H115954   3.093   1.526   1.261 -1.4670  1.2934 -0.5242
 5316TIP3    H215955   3.230   1.581   1.296  0.1065 -0.0032 -4.1725
 5317TIP3   OH215956   4.868   3.698   0.556 -0.0934  0.7113 -0.4570
 5317TIP3    H115957   4.780   3.665   0.538  0.0383  0.0113  0.1750
 5317TIP3    H215958   4.876   3.698   0.651  0.5113  0.9941 -0.4968
 5318TIP3   OH215959   5.328   2.987   2.118  0.1238  0.7138 -0.2963
 5318TIP3    H115960   5.389   3.060   2.132  0.7871  0.3502 -1.2358
 5318TIP3    H215961   5.347   2.956   2.030 -0.8720  0.0605 -0.2992
 5319TIP3   OH215962   4.621   5.085   4.676 -0.2340  0.6456  0.3391
 5319TIP3    H115963   4.709   5.079   4.640  0.0557  2.5057  0.6428
 5319TIP3    H215964   4.565   5.045   4.608  0.8100 -0.6397  0.1868
 5320TIP3   OH215965   1.673   3.032   3.471 -0.8335  0.1787  0.7176
 5320TIP3    H115966   1.717   3.064   3.392 -0.3906 -1.7090  0.1296
 5320TIP3    H215967   1.580   3.043   3.453 -0.7574 -0.6794 -0.3177
 5321TIP3   OH215968   5.613   5.619   3.574  0.2055  0.2438  0.4550
 5321TIP3    H115969   5.554   5.636   3.500  0.0129  1.5981  0.8900
 5321TIP3    H215970   5.638   5.706   3.605  1.4387 -0.3125  1.0792
 5322TIP3   OH215971   5.420   3.133   2.604 -0.0717 -0.2678  0.1388
 5322TIP3    H115972   5.372   3.090   2.533  1.5896 -0.3200 -1.0057
 5322TIP3    H215973   5.495   3.076   2.620  1.6708  1.6851 -0.7572
 5323TIP3   OH215974   0.903   1.535   3.407  0.1239 -0.0313  0.5421
 5323TIP3    H115975   0.970   1.481   3.447 -1.3180 -0.5227  2.4404
 5323TIP3    H215976   0.820   1.501   3.441 -0.8918  3.3701  1.9621
 5324TIP3   OH215977   0.351   1.498   0.401  0.6698 -0.1354 -0.8037
 5324TIP3    H115978   0.401   1.558   0.345  1.1167 -0.1323 -0.4097
 5324TIP3    H215979   0.323   1.552   0.475  0.8884 -0.3573 -0.5555
 5325TIP3   OH215980   3.337   2.910   0.086  0.1202  0.2629  0.0859
 5325TIP3    H115981   3.327   2.996   0.045 -1.5508  1.1613  2.1705
 5325TIP3    H215982   3.405   2.923   0.152  0.7917 -0.4000 -0.4596
 5326TIP3   OH215983   4.519   5.101   3.653  0.0998  0.7247  0.2419
 5326TIP3    H115984   4.443   5.042   3.655 -0.0639  0.9525  0.8465
 5326TIP3    H215985   4.482   5.187   3.631  0.0420  1.0387  1.5349
 5327TIP3   OH215986   3.056   2.435   1.003 -0.3118 -0.2393 -0.4211
 5327TIP3    H115987   3.038   2.356   1.055  0.9828  0.5176  1.2988
 5327TIP3    H215988   3.141   2.417   0.962  0.0130  0.2619  0.0209
 5328TIP3   OH215989   1.715   5.779   1.990  0.0705 -0.0314 -0.3424
 5328TIP3    H115990   1.746   5.828   1.914 -1.2792  1.1013 -0.2005
 5328TIP3    H215991   1.635   5.735   1.960 -1.0454  1.2369  0.6483
 5329TIP3   OH215992   2.468   4.661   0.528  0.4892  0.3000  0.7125
 5329TIP3    H115993   2.490   4.750   0.555  0.0922  1.1204 -1.4811
 5329TIP3    H215994   2.377   4.648   0.557 -0.0148  1.2423 -0.4037
 5330TIP3   OH215995   1.267   1.254   4.187  1.0061 -0.3276 -0.0568
 5330TIP3    H115996   1.291   1.319   4.253 -0.3667  1.3211 -1.0693
 5330TIP3    H215997   1.317   1.280   4.109  0.2896 -0.3325 -0.5305
 5331TIP3   OH215998   0.282   4.162   0.867  0.2400  0.0226 -0.6159
 5331TIP3    H115999   0.254   4.089   0.922 -0.1000  1.3544  1.0384
 5331TIP3    H216000   0.266   4.132   0.777 -0.4413 -1.6943  0.0449
 5332TIP3   OH216001   2.538   1.563   4.323  0.1983  0.6789 -0.3609
 5332TIP3    H116002   2.590   1.584   4.400  0.2528 -0.1950 -0.1511
 5332TIP3    H216003   2.454   1.606   4.338 -1.2504 -2.5804  2.0783
 5333TIP3   OH216004   5.570   0.279   1.389 -0.1762 -0.2673  0.3593
 5333TIP3    H116005   5.638   0.344   1.377  0.8723 -0.9195  2.2413
 5333TIP3    H216006   5.488   0.325   1.373  0.4192  1.9751  2.9892
 5334TIP3   OH216007   0.318   0.200   1.161 -0.1452  0.3524  0.0902
 5334TIP3    H116008   0.271   0.116   1.163  0.4034  0.0511  0.6768
 5334TIP3    H216009   0.335   0.219   1.253 -0.1597  1.0544 -0.0525
 5335TIP3   OH216010  -0.014   5.555   3.562  0.2821 -0.0605 -0.3744
 5335TIP3    H116011  -0.038   5.572   3.653 -1.0024 -2.3248 -0.2205
 5335TIP3    H216012   0.054   5.488   3.567 -0.2520 -0.6697 -1.0769
 5336TIP3   OH216013   3.709   0.770   3.516  0.3428 -0.1654 -0.4334
 5336TIP3    H116014   3.647   0.704   3.486 -0.8871  1.6641 -2.1834
 5336TIP3    H216015   3.660   0.852   3.512  1.2525  0.7294  3.3443
 5337TIP3   OH216016   3.434   3.699   2.842  0.2130 -0.3374 -0.2280
 5337TIP3    H116017   3.471   3.733   2.760  0.4320 -1.6213 -0.6842
 5337TIP3    H216018   3.499   3.721   2.909 -0.8320  2.4430 -0.0052
 5338TIP3   OH216019   5.161   2.125   0.790  0.1158 -0.3702 -0.0023
 5338TIP3    H116020   5.083   2.103   0.739 -0.6899  3.1662 -0.5096
 5338TIP3    H216021   5.230   2.134   0.725  0.0904 -0.0103  0.0189
 5339TIP3   OH216022   1.933   0.976   2.342 -0.6841 -0.4268 -0.6378
 5339TIP3    H116023   2.023   0.956   2.317 -0.2413  0.8806 -0.1535
 5339TIP3    H216024   1.892   0.890   2.353  0.9285 -1.0699  0.7274
 5340TIP3   OH216025   5.632   4.680   1.375  0.0838  0.4541  0.2236
 5340TIP3    H116026   5.585   4.610   1.331 -1.6590  0.4844  1.9068
 5340TIP3    H216027   5.649   4.646   1.463  2.1253  0.9506  0.0826
 5341TIP3   OH216028   3.516   4.011   1.571  0.5810  0.2428  0.5039
 5341TIP3    H116029   3.566   3.972   1.499 -1.7359 -1.4097 -0.3418
 5341TIP3    H216030   3.440   4.050   1.528 -0.8928 -0.8252  1.9915
 5342TIP3   OH216031   2.601   2.802   0.485 -0.0317  0.4475  0.1857
 5342TIP3    H116032   2.591   2.840   0.572  0.9652  0.0189  0.4959
 5342TIP3    H216033   2.680   2.842   0.450 -1.1777  1.6976 -1.1197
 5343TIP3   OH216034   4.693   4.346   4.891  0.5387  0.5981  0.6419
 5343TIP3    H116035   4.653   4.358   4.805  0.1218  1.1989  0.9198
 5343TIP3    H216036   4.645   4.272   4.929  2.7699 -1.8033 -0.8570
 5344TIP3   OH216037   0.907   3.999   0.145  0.1697  0.1570 -0.3525
 5344TIP3    H116038   0.884   3.907   0.154 -1.2993  0.5739  0.7067
 5344TIP3    H216039   0.955   4.020   0.225 -1.2509  0.7322  0.4067
 5345TIP3   OH216040   5.159   4.703   1.875 -0.3756  0.2149 -0.1096
 5345TIP3    H116041   5.089   4.711   1.810 -0.4258  0.8803  0.0259
 5345TIP3    H216042   5.239   4.721   1.827 -0.3360 -0.0620 -0.1533
 5346TIP3   OH216043   4.890   1.402   2.228  0.1775  0.7689  0.1063
 5346TIP3    H116044   4.903   1.495   2.251  1.2208  0.5864  0.3105
 5346TIP3    H216045   4.957   1.356   2.279 -0.4324 -0.1176  0.1167
 5347TIP3   OH216046   3.999   2.456   2.375 -0.1105  0.5866  0.2432
 5347TIP3    H116047   4.087   2.479   2.348 -0.2443 -0.4542 -1.1834
 5347TIP3    H216048   3.943   2.524   2.338  0.0392  1.0941  0.9185
 5348TIP3   OH216049   1.865   3.927   4.377 -0.2615 -0.0982 -0.1218
 5348TIP3    H116050   1.824   3.842   4.361 -0.1005 -0.5832  1.8104
 5348TIP3    H216051   1.795   3.980   4.416 -0.0452  0.2721 -0.2377
 5349TIP3   OH216052   5.374   1.125   0.794  0.3614 -0.8074 -0.5074
 5349TIP3    H116053   5.449   1.117   0.735  1.1375 -0.1742  0.3671
 5349TIP3    H216054   5.299   1.132   0.736  1.0031 -1.1522 -1.4062
 5350TIP3   OH216055   0.722   1.537   3.209  0.5152 -0.4310  0.3237
 5350TIP3    H116056   0.745   1.587   3.131  2.7517 -0.4838  0.8999
 5350TIP3    H216057   0.800   1.539   3.263 -0.2637 -2.2249  1.6144
 5351TIP3   OH216058   3.762   2.857   1.589  0.0867 -0.3263 -0.3850
 5351TIP3    H116059   3.700   2.832   1.657 -1.2932  1.8289 -0.7703
 5351TIP3    H216060   3.844   2.873   1.637 -0.0605 -1.5795  0.3457
 5352TIP3   OH216061   3.410   3.043   4.208 -0.1714  0.3288  0.3700
 5352TIP3    H116062   3.341   2.976   4.212  0.8212 -0.8029 -0.7150
 5352TIP3    H216063   3.362   3.125   4.200 -1.4263 -0.2445  1.4712
 5353TIP3   OH216064   1.594   5.854   2.655 -0.5609 -0.1368  0.0646
 5353TIP3    H116065   1.548   5.866   2.738  0.7016  1.1482  0.6226
 5353TIP3    H216066   1.602   5.942   2.618  0.3448 -0.4762 -0.6016
 5354TIP3   OH216067   1.185   0.780   1.775  0.2299 -0.3030  0.4405
 5354TIP3    H116068   1.229   0.841   1.835  0.2910 -1.4518  1.5922
 5354TIP3    H216069   1.249   0.710   1.761  0.4064  0.1774 -1.3876
 5355TIP3   OH216070   0.361   0.697   0.285 -0.1302 -0.2217  0.3333
 5355TIP3    H116071   0.423   0.655   0.345 -0.6160  0.5488  1.4122
 5355TIP3    H216072   0.275   0.667   0.316 -0.3978  0.3604  0.1578
 5356TIP3   OH216073   3.105   4.603   0.072  0.7241 -0.2315 -0.2462
 5356TIP3    H116074   3.181   4.596   0.129  0.8035 -0.7574 -0.4174
 5356TIP3    H216075   3.128   4.554  -0.006  0.2449 -0.3183 -0.3378
 5357TIP3   OH216076   5.297   4.976   5.139 -0.3126  0.1853  0.7179
 5357TIP3    H116077   5.352   4.900   5.154  1.0150  1.1752  1.0085
 5357TIP3    H216078   5.327   5.041   5.202  1.0536  2.2124 -1.8051
 5358TIP3   OH216079   1.862   5.127   0.936  0.6230 -0.2733  0.0102
 5358TIP3    H116080   1.802   5.186   0.890  0.5722  0.2354  0.7158
 5358TIP3    H216081   1.947   5.172   0.933  0.8471 -0.7307 -0.5024
 5359TIP3   OH216082   5.410   0.598   3.086  0.2161  0.1683  0.2367
 5359TIP3    H116083   5.499   0.568   3.071  0.3141  1.1000 -1.2376
 5359TIP3    H216084   5.420   0.679   3.136  0.1023 -0.4326  1.2739
 5360TIP3   OH216085   5.285   5.556   3.657  0.1881 -0.5356  0.3072
 5360TIP3    H116086   5.192   5.538   3.643  0.0848 -0.4815  0.9194
 5360TIP3    H216087   5.298   5.644   3.622  0.2036 -0.8779 -0.5870
 5361TIP3   OH216088   6.140   1.480   0.024  0.0512 -0.3931 -0.1391
 5361TIP3    H116089   6.096   1.515   0.101 -0.1876  0.6005 -0.7078
 5361TIP3    H216090   6.070   1.444  -0.030  0.2827 -1.6735  0.3829
 5362TIP3   OH216091   4.263   1.677   0.579  0.7373  0.1442 -0.6399
 5362TIP3    H116092   4.340   1.702   0.630  0.6835  0.2350 -0.6022
 5362TIP3    H216093   4.290   1.690   0.488  0.5337  0.8746 -0.6047
 5363TIP3   OH216094   0.137   1.234   2.358  0.6009  0.1881 -0.0747
 5363TIP3    H116095   0.056   1.226   2.407 -0.2261  1.7736 -1.1030
 5363TIP3    H216096   0.153   1.145   2.324 -0.6021 -0.1735  0.2641
 5364TIP3   OH216097   3.353   4.072   4.691  0.9650  0.2460  0.0519
 5364TIP3    H116098   3.356   4.134   4.619  0.0473 -0.1106 -0.3003
 5364TIP3    H216099   3.272   4.092   4.738  0.3161 -1.0920 -0.4499
 5365TIP3   OH216100   4.501   1.614   3.809  0.3384  0.3822 -0.0001
 5365TIP3    H116101   4.594   1.591   3.806  0.3683  0.5175 -0.1619
 5365TIP3    H216102   4.462   1.550   3.868  0.4459  0.0141 -0.3247
 5366TIP3   OH216103   5.191   5.751   5.073 -0.5804 -0.2725 -0.2404
 5366TIP3    H116104   5.102   5.715   5.068 -0.4387 -0.4551 -2.8590
 5366TIP3    H216105   5.180   5.835   5.118 -1.9086 -0.7176  0.3347
 5367TIP3   OH216106   1.184   5.224   2.849  0.8047 -0.6973  0.1495
 5367TIP3    H116107   1.232   5.275   2.915  0.4866 -0.4047  0.1550
 5367TIP3    H216108   1.115   5.181   2.899  0.8543 -0.8536  0.0837
 5368TIP3   OH216109   3.147   0.496   2.643  0.3154 -0.2804 -0.1418
 5368TIP3    H116110   3.202   0.568   2.612 -2.2350  1.7147 -0.3424
 5368TIP3    H216111   3.159   0.496   2.738 -1.4989  2.2089  0.1992
 5369TIP3   OH216112   1.658   3.395   1.527 -0.2955  0.1961 -0.0330
 5369TIP3    H116113   1.668   3.441   1.611 -0.3246 -0.0473  0.1045
 5369TIP3    H216114   1.615   3.459   1.470 -0.6605  0.2211  0.2657
 5370TIP3   OH216115   2.757   2.616   2.482 -0.6953 -0.0634  0.4108
 5370TIP3    H116116   2.816   2.662   2.422  0.3017  0.1984  1.5454
 5370TIP3    H216117   2.687   2.582   2.426  1.2934 -1.6709 -1.2092
 5371TIP3   OH216118   3.659   0.032   1.619  0.1438 -0.1734 -0.4219
 5371TIP3    H116119   3.582  -0.013   1.584  0.9269 -1.4229 -0.6209
 5371TIP3    H216120   3.638   0.048   1.711 -1.2168  1.5129 -0.9743
 5372TIP3   OH216121   4.836   1.472   1.117 -0.8220 -0.2023 -0.3090
 5372TIP3    H116122   4.897   1.546   1.121 -0.3829 -0.3587 -2.5899
 5372TIP3    H216123   4.880   1.403   1.166 -0.0322  0.2809 -0.3100
 5373TIP3   OH216124   5.048   1.739   0.951  0.2809 -0.1016  0.1554
 5373TIP3    H116125   4.967   1.786   0.970  0.0503 -0.3145 -0.2752
 5373TIP3    H216126   5.032   1.696   0.867 -0.1469 -2.3375  1.2994
 5374TIP3   OH216127   5.164   3.585   2.408  0.1966  0.2166  0.0019
 5374TIP3    H116128   5.245   3.625   2.441  0.2500  0.3993 -0.3439
 5374TIP3    H216129   5.137   3.525   2.477  1.0169 -0.3874 -0.1826
 5375TIP3   OH216130   5.948   1.355   3.027  0.0842 -0.1394  0.3675
 5375TIP3    H116131   6.008   1.415   3.071 -1.0790  1.2306  0.1262
 5375TIP3    H216132   5.974   1.359   2.935  1.2017 -1.4699  0.5813
 5376TIP3   OH216133   1.550   4.931   4.951 -0.0834  0.3249 -0.4208
 5376TIP3    H116134   1.473   4.961   4.903 -1.1105  1.9537  2.0287
 5376TIP3    H216135   1.544   4.977   5.035  2.6392 -0.8686  0.5075
 5377TIP3   OH216136   0.723   4.945   3.013  0.5107 -0.1508  0.0728
 5377TIP3    H116137   0.701   4.855   2.990 -2.2934  0.1862  1.0185
 5377TIP3    H216138   0.729   4.945   3.109 -2.1722  1.0534  0.3469
 5378TIP3   OH216139   0.615   0.827   3.237  0.1507 -0.3767 -0.1234
 5378TIP3    H116140   0.591   0.884   3.164  0.6820  2.6382  1.8799
 5378TIP3    H216141   0.533   0.813   3.285  0.3499  0.3465  0.4411
 5379TIP3   OH216142   4.636   2.068   1.237 -0.3447 -0.3686 -0.2506
 5379TIP3    H116143   4.554   2.098   1.198 -0.4289  0.4907  0.5516
 5379TIP3    H216144   4.629   2.094   1.329 -0.0408 -2.1112  0.2913
 5380TIP3   OH216145   0.339   5.412   2.900  0.1110  0.5945 -0.3578
 5380TIP3    H116146   0.374   5.356   2.969  1.3464  0.9168 -0.6906
 5380TIP3    H216147   0.403   5.405   2.829  0.3851  2.5308 -0.3481
 5381TIP3   OH216148   2.090   3.401   3.350  0.5686  0.4626  0.0717
 5381TIP3    H116149   2.073   3.471   3.414  0.8699  0.1292  0.5212
 5381TIP3    H216150   2.129   3.446   3.275 -1.0762  1.0732 -0.4688
 5382TIP3   OH216151   2.369  -0.007   1.489 -0.0311  0.1725  0.3664
 5382TIP3    H116152   2.282   0.020   1.518 -0.1066 -0.6869  0.9787
 5382TIP3    H216153   2.429   0.055   1.531 -0.3050  0.3663  0.4700
 5383TIP3   OH216154   2.333   0.838   2.065 -0.4264 -0.5593  0.3748
 5383TIP3    H116155   2.307   0.803   1.980  0.7710  0.8096 -0.6166
 5383TIP3    H216156   2.383   0.767   2.106 -1.1901 -1.3022  0.0392
 5384TIP3   OH216157   1.498   0.464   2.295  0.0100 -0.0665 -0.3812
 5384TIP3    H116158   1.417   0.414   2.293 -0.2156  0.3187 -1.2668
 5384TIP3    H216159   1.542   0.435   2.375 -1.3916  0.3557  0.5752
 5385TIP3   OH216160   1.427   3.118   3.696  0.3499 -0.0504 -0.2766
 5385TIP3    H116161   1.384   3.044   3.653  0.2098 -0.2379  0.1790
 5385TIP3    H216162   1.374   3.134   3.774 -0.4591  1.4509 -1.0833
 5386TIP3   OH216163   2.722   4.107   4.328 -0.3667 -0.2766  0.1339
 5386TIP3    H116164   2.766   4.118   4.244 -0.9484 -0.3722 -0.1872
 5386TIP3    H216165   2.672   4.026   4.318  1.7460 -1.8648  1.5324
 5387TIP3   OH216166   4.510   0.161   4.727 -0.6536  0.1997 -0.4508
 5387TIP3    H116167   4.557   0.084   4.697 -2.5583 -0.8887 -0.8420
 5387TIP3    H216168   4.505   0.218   4.650  0.2793  0.4712 -0.3141
 5388TIP3   OH216169   1.525   3.138   4.847  0.1003 -0.3565  0.3773
 5388TIP3    H116170   1.488   3.075   4.786  0.3945 -0.6239  0.4744
 5388TIP3    H216171   1.471   3.129   4.926 -0.1702 -0.1336  0.2193
 5389TIP3   OH216172   1.928   1.157   1.306 -0.6310  0.5512  0.1978
 5389TIP3    H116173   1.931   1.145   1.401  1.0660 -2.1128 -0.0572
 5389TIP3    H216174   2.013   1.194   1.284 -0.0544 -1.0401 -0.4213
 5390TIP3   OH216175   3.273   4.234   0.223  0.2158  0.3936  0.1939
 5390TIP3    H116176   3.326   4.314   0.225 -0.1121  0.5957  1.3460
 5390TIP3    H216177   3.260   4.217   0.129 -0.1989  2.0194 -0.0875
 5391TIP3   OH216178   2.637   3.599   3.371  0.1558  0.0298 -0.4955
 5391TIP3    H116179   2.698   3.526   3.381  0.1371  0.0384 -0.3177
 5391TIP3    H216180   2.606   3.616   3.460  1.2527  1.1947 -0.2975
 5392TIP3   OH216181   5.032   3.541   0.941  0.7507  0.1359  0.0762
 5392TIP3    H116182   5.070   3.588   0.867  1.9633 -0.7157  0.1173
 5392TIP3    H216183   5.091   3.467   0.955  0.0420 -0.2286  1.3211
 5393TIP3   OH216184   1.217   4.831   0.866 -0.1534  0.6238  0.0960
 5393TIP3    H116185   1.218   4.863   0.776  1.7346  1.2535  0.3013
 5393TIP3    H216186   1.204   4.736   0.857 -0.5547  0.7472 -0.7910
 5394TIP3   OH216187   5.365   1.329   0.524 -0.2275  0.3982 -0.2837
 5394TIP3    H116188   5.294   1.273   0.553 -2.0718  1.6950 -2.0420
 5394TIP3    H216189   5.437   1.269   0.503 -0.8602 -0.9611  1.2565
 5395TIP3   OH216190   1.226   4.500   1.988 -0.7046 -0.1049 -0.2392
 5395TIP3    H116191   1.279   4.533   1.915  1.1391 -1.4506  0.4002
 5395TIP3    H216192   1.251   4.408   1.996 -2.2322 -0.4556  0.9497
 5396TIP3   OH216193   2.384   3.696   1.599  0.2990  0.4496  0.1376
 5396TIP3    H116194   2.320   3.627   1.585  0.1104  1.0223 -2.3076
 5396TIP3    H216195   2.332   3.776   1.608  0.5717  0.8899 -1.6740
 5397TIP3   OH216196   3.368   5.127   1.963  0.3398  0.1004 -0.4378
 5397TIP3    H116197   3.285   5.081   1.964 -0.4328  1.4400  0.4822
 5397TIP3    H216198   3.403   5.114   2.051  1.6723 -1.3677 -1.1321
 5398TIP3   OH216199   4.177   1.374   1.348 -0.7286 -0.3486  0.2828
 5398TIP3    H116200   4.138   1.295   1.311 -0.8609  0.0530 -0.4762
 5398TIP3    H216201   4.254   1.344   1.394 -0.3203 -0.8396 -0.6880
 5399TIP3   OH216202   5.340   5.816   2.304 -1.0223 -0.3050  0.2012
 5399TIP3    H116203   5.268   5.878   2.310 -0.3897  0.3295  1.7331
 5399TIP3    H216204   5.391   5.845   2.229 -2.7233 -1.2203 -1.3932
 5400TIP3   OH216205   1.504   0.341   5.046 -0.2761  0.0656  0.6494
 5400TIP3    H116206   1.456   0.263   5.017  1.5161 -0.5107 -0.9741
 5400TIP3    H216207   1.446   0.382   5.111 -3.8118  0.4010 -2.3506
 5401TIP3   OH216208   0.819   3.798   5.013  0.0490  0.1501 -0.4375
 5401TIP3    H116209   0.885   3.730   5.005 -1.5400 -1.4383 -0.4809
 5401TIP3    H216210   0.789   3.814   4.924 -1.5574 -1.1607 -0.1759
 5402TIP3   OH216211   2.081   3.033   2.911 -0.5287 -0.9623  0.4161
 5402TIP3    H116212   2.040   2.984   2.839 -2.6312  1.5071 -0.2431
 5402TIP3    H216213   2.022   3.018   2.985 -0.5763 -0.3545  0.5022
 5403TIP3   OH216214   3.375   3.970   4.981 -0.0558 -0.1167 -0.1119
 5403TIP3    H116215   3.421   4.054   4.986 -0.9808  0.5135 -1.5396
 5403TIP3    H216216   3.383   3.944   4.889 -1.8921 -0.3647 -0.2257
 5404TIP3   OH216217   0.006   1.841   1.966 -0.7068  0.0095  0.1182
 5404TIP3    H116218   0.053   1.895   2.029  0.8592 -1.1137 -0.0028
 5404TIP3    H216219  -0.025   1.766   2.017 -3.6387  1.3309  0.4727
 5405TIP3   OH216220   0.966   3.631   4.595 -0.2381 -0.4798  0.0511
 5405TIP3    H116221   0.932   3.562   4.652  0.4719 -0.1846  0.8582
 5405TIP3    H216222   0.928   3.712   4.629 -0.0727 -0.3386 -0.0944
 5406TIP3   OH216223   4.908   0.422   0.586  0.1038  0.1539 -0.2862
 5406TIP3    H116224   4.909   0.328   0.607  0.5770  0.4172  0.9598
 5406TIP3    H216225   4.881   0.464   0.668  1.1902  1.1878 -0.4436
 5407TIP3   OH216226   1.853   2.433   2.559  0.6977  0.1841 -0.0135
 5407TIP3    H116227   1.783   2.453   2.496  1.9447 -0.9507 -1.8520
 5407TIP3    H216228   1.933   2.432   2.507  2.0537  0.8658  1.9296
 5408TIP3   OH216229   2.081   2.999   4.586 -0.3081  0.3174  0.1562
 5408TIP3    H116230   2.130   3.068   4.630 -0.9946  1.4667 -0.8342
 5408TIP3    H216231   2.098   3.012   4.493 -1.4114 -0.0846 -0.1196
 5409TIP3   OH216232   6.112   3.965   5.022  0.6632 -0.2425  0.1685
 5409TIP3    H116233   6.074   4.004   4.943  2.4961  0.2919 -0.5013
 5409TIP3    H216234   6.167   4.034   5.059  1.3765 -1.1249  0.8093
 5410TIP3   OH216235   3.727   4.692   1.359  0.2507 -0.4951  0.1666
 5410TIP3    H116236   3.783   4.679   1.282 -0.1631 -1.4512  0.0085
 5410TIP3    H216237   3.750   4.779   1.391  1.3302 -0.5919 -0.2951
 5411TIP3   OH216238   4.896   3.218   0.319 -0.0065 -0.0329  0.3940
 5411TIP3    H116239   4.830   3.254   0.260 -0.2097 -0.7904  0.1474
 5411TIP3    H216240   4.873   3.254   0.405  0.2805  1.0545  0.0182
 5412TIP3   OH216241   6.141   1.680   4.839 -0.0897 -0.2998  0.4636
 5412TIP3    H116242   6.113   1.767   4.869  0.5040 -0.0277  0.2497
 5412TIP3    H216243   6.193   1.698   4.761  2.4946 -0.5649  2.0162
 5413TIP3   OH216244   2.374   1.753   2.368  0.6199 -0.0765 -0.6409
 5413TIP3    H116245   2.451   1.805   2.348 -0.6415  2.1684 -0.0692
 5413TIP3    H216246   2.322   1.809   2.426 -0.9869 -1.8901 -0.2137
 5414TIP3   OH216247   5.688   0.997   4.523 -0.0232  0.4891  0.3188
 5414TIP3    H116248   5.656   0.964   4.439 -0.1924  0.2557  0.4734
 5414TIP3    H216249   5.765   0.944   4.542 -0.1007  0.4089  0.4072
 5415TIP3   OH216250   3.047   0.136   2.009  0.4575  0.0168  0.0399
 5415TIP3    H116251   3.103   0.079   2.062  2.0292  0.1639 -1.4119
 5415TIP3    H216252   2.991   0.076   1.961 -1.3339 -0.1167  2.1185
 5416TIP3   OH216253   5.822   1.493   5.150 -0.1854  0.0265 -0.3714
 5416TIP3    H116254   5.832   1.586   5.168  1.4282  0.1006 -1.4316
 5416TIP3    H216255   5.883   1.475   5.079 -0.7550 -1.7683 -0.4739
 5417TIP3   OH216256   1.667   1.491   1.278 -0.2573  0.3983 -0.3958
 5417TIP3    H116257   1.638   1.400   1.270 -0.4038  0.3169  0.9677
 5417TIP3    H216258   1.762   1.487   1.267 -0.2943  0.1318 -0.6439
 5418TIP3   OH216259   1.137   0.301   3.246 -0.2077  0.9451  0.0997
 5418TIP3    H116260   1.069   0.360   3.278 -0.0992  2.0303 -1.5411
 5418TIP3    H216261   1.136   0.313   3.151  0.9925 -0.4389 -0.1210
 5419TIP3   OH216262   0.060   3.172   4.996 -0.1829  0.5901 -0.1909
 5419TIP3    H116263   0.007   3.189   5.074 -2.1829  2.5269 -1.8555
 5419TIP3    H216264   0.113   3.251   4.985 -0.1645  0.4792 -0.9518
 5420TIP3   OH216265   2.172   5.513   5.042 -0.3490  0.2035  0.2039
 5420TIP3    H116266   2.160   5.431   4.995  0.9231  0.2877 -0.3214
 5420TIP3    H216267   2.174   5.580   4.974  1.3511  0.3462  0.3337
 5421TIP3   OH216268   3.936   3.967   4.797 -0.3243  0.6780 -0.1997
 5421TIP3    H116269   3.968   3.973   4.887  0.8920  0.8394 -0.6167
 5421TIP3    H216270   3.866   3.902   4.801  0.0827  0.2664  0.7673
 5422TIP3   OH216271   3.193   4.566   0.789  0.1739  0.3191  0.0460
 5422TIP3    H116272   3.244   4.645   0.773  1.2956 -0.3460  0.2896
 5422TIP3    H216273   3.196   4.554   0.884 -0.4680  0.2943  0.0676
 5423TIP3   OH216274   2.092   5.091   3.168  0.3758 -0.3048  0.2536
 5423TIP3    H116275   2.162   5.027   3.177  0.2181 -0.5897 -0.4562
 5423TIP3    H216276   2.131   5.174   3.194  1.4093 -0.2089 -1.4475
 5424TIP3   OH216277   5.743   0.126   3.494  0.0309 -0.2669  0.5536
 5424TIP3    H116278   5.753   0.033   3.472 -0.9404 -0.6925  1.8017
 5424TIP3    H216279   5.705   0.165   3.415  0.3337 -0.9515  0.0591
 5425TIP3   OH216280   3.617   3.505   0.403  0.1535  0.2586 -0.3355
 5425TIP3    H116281   3.688   3.482   0.343  1.0304  0.7055  0.5046
 5425TIP3    H216282   3.609   3.429   0.461 -0.8282 -0.2565 -1.1141
 5426TIP3   OH216283   2.471   5.002   3.415  0.2255  0.0595 -0.1727
 5426TIP3    H116284   2.457   5.090   3.450  0.8153 -0.3693  1.2157
 5426TIP3    H216285   2.384   4.972   3.388 -0.5011 -0.0384  2.0890
 5427TIP3   OH216286   2.343   2.585   1.965 -0.3180  0.6700 -0.1148
 5427TIP3    H116287   2.331   2.629   1.881  0.9181 -0.5226 -0.9741
 5427TIP3    H216288   2.435   2.602   1.988  0.3652 -1.7765 -0.7443
 5428TIP3   OH216289   6.144   1.990   4.817 -0.3535  0.1150 -0.2618
 5428TIP3    H116290   6.172   2.069   4.863  1.3915 -1.3291  1.3308
 5428TIP3    H216291   6.058   1.970   4.853 -0.6773  1.0848 -0.4541
 5429TIP3   OH216292   2.692   3.306   3.104 -0.5374 -0.0628  0.0897
 5429TIP3    H116293   2.601   3.335   3.109 -0.7519 -0.8640  1.0768
 5429TIP3    H216294   2.696   3.251   3.026 -0.9017 -0.0286  0.0458
 5430TIP3   OH216295   1.733   4.629   1.086  0.1422 -0.4675 -0.1771
 5430TIP3    H116296   1.650   4.658   1.124  0.2452  0.1496 -0.4125
 5430TIP3    H216297   1.708   4.583   1.006  0.1409  1.8837 -1.5906
 5431TIP3   OH216298   0.593   0.161   2.889  0.6371 -0.4160 -0.1756
 5431TIP3    H116299   0.598   0.202   2.975  0.8107 -2.3235  0.7617
 5431TIP3    H216300   0.682   0.169   2.853  1.8415 -3.4271  1.7328
 5432TIP3   OH216301   5.391   0.802   1.180  0.1913  0.7593 -0.3727
 5432TIP3    H116302   5.302   0.818   1.210  0.2292  2.9933 -1.2801
 5432TIP3    H216303   5.382   0.780   1.087  0.4181 -1.8685  0.1454
 5433TIP3   OH216304   6.235   1.258   1.682 -0.2914 -0.2629  0.4612
 5433TIP3    H116305   6.291   1.192   1.721 -0.2059  0.2439  1.2133
 5433TIP3    H216306   6.274   1.341   1.707 -0.5098  0.0841 -0.3065
 5434TIP3   OH216307   4.709   4.224   3.441 -0.2490  0.0988 -0.2720
 5434TIP3    H116308   4.798   4.221   3.476 -0.7997 -0.5523  1.1865
 5434TIP3    H216309   4.676   4.309   3.469  0.2335  0.7669 -1.6905
 5435TIP3   OH216310   4.836   2.866   2.915 -0.1835 -0.2056 -0.0044
 5435TIP3    H116311   4.932   2.873   2.912 -0.1979  0.2052  0.3652
 5435TIP3    H216312   4.811   2.847   2.825  0.3216 -1.3955  0.0939
 5436TIP3   OH216313   5.626   4.109   2.182 -0.5284  0.7559 -0.4689
 5436TIP3    H116314   5.558   4.058   2.138 -1.4309  1.1989  0.3660
 5436TIP3    H216315   5.643   4.182   2.123 -0.7336  0.6048 -0.7178
 5437TIP3   OH216316   3.745   5.661   2.905  0.1339  0.1744 -0.2118
 5437TIP3    H116317   3.672   5.643   2.965 -0.6353 -1.7515 -1.6427
 5437TIP3    H216318   3.823   5.662   2.962 -0.9005  1.6982  1.2542
 5438TIP3   OH216319   0.615   4.720   4.411  0.1274  1.4387 -1.0002
 5438TIP3    H116320   0.585   4.766   4.333 -0.9129 -0.8702 -2.0807
 5438TIP3    H216321   0.633   4.631   4.380 -0.2888  0.4552  1.3801
 5439TIP3   OH216322   4.262   0.889   4.778  0.1277 -0.0430 -0.7468
 5439TIP3    H116323   4.351   0.869   4.748  0.2496 -1.1515  0.2575
 5439TIP3    H216324   4.210   0.814   4.750 -0.4735  0.5435 -1.2229
 5440TIP3   OH216325   2.860   5.451   3.577  0.6962 -0.0645 -0.5003
 5440TIP3    H116326   2.803   5.452   3.654  0.0645  1.2756 -0.9587
 5440TIP3    H216327   2.826   5.520   3.521  2.7430  0.7591 -0.8246
 5441TIP3   OH216328   0.042   1.154   4.943 -0.0711 -0.0503  0.2250
 5441TIP3    H116329   0.000   1.217   5.002  0.3507 -0.9587  1.5417
 5441TIP3    H216330   0.088   1.209   4.879  1.1272  1.0368  1.9235
 5442TIP3   OH216331   1.181   4.669   1.421  0.3636  0.2577 -0.1474
 5442TIP3    H116332   1.169   4.755   1.381 -0.4025  0.3719  0.3305
 5442TIP3    H216333   1.252   4.682   1.484 -0.4318  0.7793  0.6464
 5443TIP3   OH216334   2.275   2.257   2.357 -0.0476  0.1870 -0.2009
 5443TIP3    H116335   2.283   2.280   2.264  0.8413 -1.8771 -0.6946
 5443TIP3    H216336   2.334   2.318   2.402 -0.2610  1.0146 -1.0016
 5444TIP3   OH216337   2.547   3.732   0.848  0.4214  0.5141  0.8163
 5444TIP3    H116338   2.493   3.786   0.791  1.0423  0.5552  0.2579
 5444TIP3    H216339   2.636   3.743   0.815  0.4562 -1.7372 -0.0690
 5445TIP3   OH216340   5.168   5.273   1.900  0.1905  0.7812 -0.1446
 5445TIP3    H116341   5.195   5.285   1.991 -1.0595  0.7739  0.2543
 5445TIP3    H216342   5.207   5.190   1.873  0.2419  0.5886  0.5222
 5446TIP3   OH216343   1.847   4.975   4.546  0.0821 -0.2327 -0.3170
 5446TIP3    H116344   1.857   5.068   4.565 -1.1799 -0.0147 -0.6155
 5446TIP3    H216345   1.755   4.956   4.566  0.2056 -1.3057 -0.6922
 5447TIP3   OH216346   5.637   5.311   2.814  0.2141 -0.3402 -0.6202
 5447TIP3    H116347   5.654   5.333   2.906  0.9932  1.0603 -1.0693
 5447TIP3    H216348   5.565   5.368   2.788  0.3711 -0.3274 -1.0389
 5448TIP3   OH216349   2.182   3.038   4.346  0.3319  0.0199  0.0875
 5448TIP3    H116350   2.273   3.068   4.355  0.2983  0.4667 -0.9989
 5448TIP3    H216351   2.189   2.953   4.303  0.2756 -0.4086  0.8947
 5449TIP3   OH216352   5.710   5.346   1.675 -0.3016  0.1708  0.1128
 5449TIP3    H116353   5.748   5.341   1.587 -1.0676  1.2660 -0.3063
 5449TIP3    H216354   5.670   5.260   1.689 -1.9848  0.6230 -1.4888
 5450TIP3   OH216355   6.162   1.713   2.489 -0.7319 -0.0188  0.1747
 5450TIP3    H116356   6.138   1.734   2.580 -2.1403 -0.8899  0.0385
 5450TIP3    H216357   6.227   1.644   2.497 -0.4373  0.2967  0.5317
 5451TIP3   OH216358   4.839   3.225   0.579 -0.2025  0.6027  0.3101
 5451TIP3    H116359   4.747   3.199   0.573 -0.1045  0.5180 -1.1821
 5451TIP3    H216360   4.838   3.304   0.634 -1.0430  0.0680  1.0793
 5452TIP3   OH216361   5.979   0.274   1.468 -0.0775 -0.1678  0.0290
 5452TIP3    H116362   5.934   0.263   1.551 -0.0493  2.2270  0.4289
 5452TIP3    H216363   6.068   0.243   1.485 -0.7740 -2.2600  0.0540
 5453TIP3   OH216364   2.297   2.080   1.768 -0.0671  0.0491 -0.7767
 5453TIP3    H116365   2.339   2.050   1.688 -0.5444 -2.0236 -0.2997
 5453TIP3    H216366   2.359   2.061   1.838 -0.9564 -1.2262 -0.2964
 5454TIP3   OH216367   1.485   0.636   1.556  0.0584 -0.0208 -0.1637
 5454TIP3    H116368   1.541   0.593   1.492 -0.4837 -1.6315  0.3762
 5454TIP3    H216369   1.508   0.728   1.551  0.7737 -0.2662 -1.8994
 5455TIP3   OH216370   1.348   4.273   4.769 -0.1126 -0.0119  0.5099
 5455TIP3    H116371   1.274   4.319   4.809  1.4170  2.3265  0.8491
 5455TIP3    H216372   1.323   4.263   4.677 -1.2183 -0.0672  0.8009
 5456TIP3   OH216373   4.842   0.303   3.180 -0.2829 -0.2746 -0.1709
 5456TIP3    H116374   4.845   0.266   3.268  1.2509 -3.2432 -1.3398
 5456TIP3    H216375   4.771   0.256   3.137 -0.1708  0.2119 -0.9136
 5457TIP3   OH216376   2.008   4.707   3.413  0.4482 -0.8393 -0.1694
 5457TIP3    H116377   1.969   4.663   3.488 -1.2463  0.3997 -0.2659
 5457TIP3    H216378   2.010   4.641   3.344 -0.5081 -1.2340  0.1651
 5458TIP3   OH216379   2.714   5.778   5.139 -0.3577  0.2705 -0.7544
 5458TIP3    H116380   2.778   5.712   5.165 -0.9753  0.1981  0.6890
 5458TIP3    H216381   2.635   5.728   5.117 -1.4090  0.5082  2.0434
 5459TIP3   OH216382   2.539   5.338   4.019 -0.1925 -0.0855  0.0829
 5459TIP3    H116383   2.476   5.382   4.077  0.6986  0.4129  0.7033
 5459TIP3    H216384   2.613   5.318   4.076  0.3065 -0.4579 -0.6884
 5460TIP3   OH216385   1.920   3.026   3.346 -0.5006 -0.1781  0.5969
 5460TIP3    H116386   1.911   2.964   3.273 -1.3034 -2.0908  2.2331
 5460TIP3    H216387   2.012   3.022   3.369 -0.5672 -0.8747  0.7649
 5461TIP3   OH216388   0.302   0.115   3.937 -0.2900 -0.6450 -0.2491
 5461TIP3    H116389   0.371   0.151   3.992  0.3578  1.6972 -2.3658
 5461TIP3    H216390   0.222   0.129   3.987  0.4157  0.0178  0.7269
 5462TIP3   OH216391   0.229   3.243   4.275 -0.1927  0.0560 -0.1371
 5462TIP3    H116392   0.228   3.312   4.210 -1.4774 -1.8319 -2.2696
 5462TIP3    H216393   0.139   3.239   4.308 -0.5223 -1.4251 -1.0834
 5463TIP3   OH216394   4.615   4.755   2.346  0.5176 -0.0526  0.2252
 5463TIP3    H116395   4.585   4.839   2.311  1.3976  0.2088  0.0636
 5463TIP3    H216396   4.642   4.774   2.436 -2.8967 -0.9712  1.5774
 5464TIP3   OH216397   0.836   4.230   0.517 -0.5746  0.3652 -0.0734
 5464TIP3    H116398   0.845   4.134   0.515  1.0573  0.4971 -1.0498
 5464TIP3    H216399   0.774   4.247   0.588  0.6813 -1.3243  1.5264
 5465TIP3   OH216400   3.102   2.921   0.425 -0.0529 -0.3666 -0.0479
 5465TIP3    H116401   3.124   3.002   0.378  1.7050 -1.1653 -0.6818
 5465TIP3    H216402   3.013   2.936   0.456  1.1075  2.9884  2.3472
 5466TIP3   OH216403   4.341   2.853   2.131 -0.2146  0.0374 -0.3274
 5466TIP3    H116404   4.337   2.931   2.075 -1.3369 -0.8257 -1.5110
 5466TIP3    H216405   4.383   2.786   2.077  0.6752 -0.2375  0.6528
 5467TIP3   OH216406   4.526   4.825   5.005 -0.2814 -0.5072  0.5734
 5467TIP3    H116407   4.448   4.867   5.043  0.8262  1.5044  0.7659
 5467TIP3    H216408   4.492   4.747   4.960 -2.5354  0.7247 -0.0259
 5468TIP3   OH216409   3.774   3.093   3.816 -0.2938 -0.1479 -0.3439
 5468TIP3    H116410   3.717   3.156   3.771  0.3349 -0.0765 -1.0709
 5468TIP3    H216411   3.749   3.008   3.781 -1.1271 -0.3217  0.6225
 5469TIP3   OH216412   3.412   0.781   1.296 -0.1623 -0.3506  0.2329
 5469TIP3    H116413   3.496   0.823   1.313 -0.0297 -1.2318  1.9471
 5469TIP3    H216414   3.418   0.751   1.205  1.7122 -1.1290  0.5734
 5470TIP3   OH216415   2.267   2.210   3.630 -0.0171  0.2957 -0.1863
 5470TIP3    H116416   2.359   2.197   3.651 -0.0303  1.5525  0.7231
 5470TIP3    H216417   2.265   2.223   3.536  0.4608 -1.8587 -0.5614
 5471TIP3   OH216418   3.385   1.635   3.486  0.0179 -0.1675  0.2863
 5471TIP3    H116419   3.386   1.593   3.400  1.4323 -0.4083  0.3949
 5471TIP3    H216420   3.317   1.702   3.479 -1.3008 -1.5197 -0.3442
 5472TIP3   OH216421   1.778   4.443   4.239  0.1990  0.2169  0.2410
 5472TIP3    H116422   1.806   4.534   4.236 -0.9537  0.5733 -0.3277
 5472TIP3    H216423   1.818   4.408   4.318  0.7889  1.1701  0.3809
 5473TIP3   OH216424   5.001   4.936   1.287 -0.2697  0.2433 -0.4530
 5473TIP3    H116425   4.998   4.980   1.202  1.5629  0.5883 -0.3722
 5473TIP3    H216426   5.088   4.957   1.323 -0.8323 -0.2377  1.3238
 5474TIP3   OH216427   2.995   1.352   0.319  0.1998 -0.4840  0.0774
 5474TIP3    H116428   3.077   1.388   0.286  0.5124 -0.7180  0.5776
 5474TIP3    H216429   2.976   1.278   0.261  0.0212 -0.0588 -0.4092
 5475TIP3   OH216430   3.065   3.786   3.097 -0.9261  0.4271  0.0212
 5475TIP3    H116431   3.106   3.804   3.013 -1.3403 -0.2306 -0.3382
 5475TIP3    H216432   3.129   3.815   3.162  0.1978 -0.7033 -0.5155
 5476TIP3   OH216433   3.563   1.904   3.517  0.1159 -0.2292 -0.2120
 5476TIP3    H116434   3.629   1.845   3.480  0.6754 -0.6105  1.3176
 5476TIP3    H216435   3.498   1.913   3.448  0.6108 -1.7066 -0.9228
 5477TIP3   OH216436   0.411   2.592   1.216 -0.1892 -0.2927  0.1898
 5477TIP3    H116437   0.357   2.651   1.163  0.1991 -0.4751 -0.4141
 5477TIP3    H216438   0.426   2.640   1.298  0.0493  0.4164 -0.2618
 5478TIP3   OH216439   4.297   5.233   4.755  0.0345 -0.1104 -0.8482
 5478TIP3    H116440   4.254   5.318   4.748  0.4846  0.1546 -0.4172
 5478TIP3    H216441   4.261   5.182   4.682  1.6773  1.2880 -2.7462
 5479TIP3   OH216442   2.013   0.119   0.504  0.3597  0.3856 -0.0738
 5479TIP3    H116443   2.014   0.117   0.600  0.7983  0.7758 -0.0666
 5479TIP3    H216444   1.923   0.141   0.482  0.0145 -0.6723  0.2243
 5480TIP3   OH216445   3.982   3.649   0.692  1.1672  0.2754 -0.0101
 5480TIP3    H116446   3.914   3.585   0.711  0.3744  1.3728  0.9149
 5480TIP3    H216447   3.992   3.645   0.596 -0.2016  0.1217 -0.1628
 5481TIP3   OH216448   3.071   5.150   0.403 -0.1340 -0.2015 -0.4453
 5481TIP3    H116449   3.010   5.182   0.469  0.9716  0.3205  0.3468
 5481TIP3    H216450   3.098   5.064   0.436 -1.0867 -0.8339 -1.2442
 5482TIP3   OH216451   4.308   4.223   2.552  0.2941 -0.3208 -0.0624
 5482TIP3    H116452   4.283   4.135   2.523 -1.0292 -0.1851  0.6100
 5482TIP3    H216453   4.234   4.279   2.527  0.9958  0.5594 -0.2270
 5483TIP3   OH216454   0.533   5.784   4.739 -0.0582  0.7826  0.3746
 5483TIP3    H116455   0.457   5.792   4.681 -1.6613 -1.6579  1.9495
 5483TIP3    H216456   0.496   5.757   4.823  2.4568  1.0977  1.6722
 5484TIP3   OH216457   2.569   5.942   0.344  0.3874  0.0839 -0.3237
 5484TIP3    H116458   2.516   5.893   0.407  0.2261  0.2820 -0.3013
 5484TIP3    H216459   2.660   5.918   0.365  0.2712 -0.9119 -0.9145
 5485TIP3   OH216460   3.563   5.540   2.495 -0.1816 -0.2423 -0.3530
 5485TIP3    H116461   3.541   5.610   2.434  0.5852 -0.1239 -0.5103
 5485TIP3    H216462   3.592   5.586   2.574  3.1608 -0.2398 -1.4197
 5486TIP3   OH216463   5.841   4.237   4.542  0.4346 -0.1176 -0.4597
 5486TIP3    H116464   5.902   4.235   4.468 -0.9258  1.1178 -1.6916
 5486TIP3    H216465   5.816   4.145   4.554 -0.0451 -0.2530 -2.2021
 5487TIP3   OH216466   3.938   1.837   0.072 -0.1719 -0.2906 -0.0840
 5487TIP3    H116467   4.028   1.809   0.057 -0.1908 -1.1670  1.2761
 5487TIP3    H216468   3.927   1.913   0.015  1.9838  0.9149  0.9879
 5488TIP3   OH216469   5.062   0.565   2.295 -0.6799  0.7331  0.5738
 5488TIP3    H116470   4.976   0.606   2.303 -0.6016  1.0584 -0.2056
 5488TIP3    H216471   5.044   0.476   2.267 -0.8386  0.2768  2.0356
 5489TIP3   OH216472   5.547   1.593   3.795  0.0015  0.0204 -0.6575
 5489TIP3    H116473   5.638   1.614   3.778  0.1267 -0.2326 -0.3065
 5489TIP3    H216474   5.521   1.535   3.724  0.7048 -1.5620  0.3211
 5490TIP3   OH216475   2.911   0.932   0.655 -0.6077  0.5388  0.5494
 5490TIP3    H116476   2.968   0.867   0.615  0.9402  1.7964  0.6224
 5490TIP3    H216477   2.829   0.886   0.670 -0.0437 -0.9658 -0.7426
 5491TIP3   OH216478   3.845   4.616   0.570 -0.4084  0.1941  0.2594
 5491TIP3    H116479   3.769   4.674   0.573 -0.5971  0.0209 -0.7899
 5491TIP3    H216480   3.916   4.668   0.607 -1.3560 -0.1915  2.7957
 5492TIP3   OH216481   2.493   3.032   0.107  0.3423  0.3329  0.1809
 5492TIP3    H116482   2.436   3.105   0.083  1.1877  0.7346 -0.6402
 5492TIP3    H216483   2.437   2.955   0.098 -0.9311  0.9165  2.2281
 5493TIP3   OH216484   1.627   0.745   4.475 -0.2708 -0.0915  0.0235
 5493TIP3    H116485   1.669   0.660   4.482 -1.4461 -0.7111 -0.1894
 5493TIP3    H216486   1.534   0.725   4.460 -0.8111  1.2133  1.3361
 5494TIP3   OH216487   2.858   0.188   5.113  0.8323 -0.0430 -0.1538
 5494TIP3    H116488   2.930   0.202   5.052  2.4955 -0.8110  1.5242
 5494TIP3    H216489   2.809   0.114   5.076  0.9595  0.4057 -1.2539
 5495TIP3   OH216490   6.125   4.008   2.180 -0.3391 -0.0022  0.0774
 5495TIP3    H116491   6.188   4.009   2.108 -1.4377 -0.7142 -0.9533
 5495TIP3    H216492   6.101   3.916   2.189 -1.7286  0.3161 -0.0538
 5496TIP3   OH216493   2.049   2.946   2.659 -0.3784  0.5985  0.3538
 5496TIP3    H116494   2.016   2.860   2.634 -0.1547  0.0964  1.6644
 5496TIP3    H216495   2.053   2.995   2.578 -0.8253 -0.5257 -0.3736
 5497TIP3   OH216496   6.257   2.324   0.210  0.1970 -0.0192 -0.1592
 5497TIP3    H116497   6.203   2.288   0.140 -1.2634 -0.6413  1.2155
 5497TIP3    H216498   6.236   2.417   0.212  0.1911 -0.0139 -0.5092
 5498TIP3   OH216499   0.791   5.977   0.544 -0.5639 -0.4301  0.6595
 5498TIP3    H116500   0.700   5.952   0.529 -0.7430  0.5399  0.0314
 5498TIP3    H216501   0.842   5.907   0.504 -1.0462 -0.3106 -0.1941
 5499TIP3   OH216502   3.137   0.796   1.410  0.0441 -0.2869 -0.6974
 5499TIP3    H116503   3.146   0.705   1.440 -2.3717 -1.2613 -2.5679
 5499TIP3    H216504   3.223   0.817   1.372  1.2437 -1.0557  1.4519
 5500TIP3   OH216505   1.297   5.804   4.736  0.0772  0.7849 -0.8871
 5500TIP3    H116506   1.337   5.756   4.664  0.9513  0.8818 -0.4685
 5500TIP3    H216507   1.326   5.759   4.815 -1.1366  0.4827 -0.5820
 5501TIP3   OH216508   3.708   3.631   4.968  0.2405  0.0110 -0.4265
 5501TIP3    H116509   3.740   3.671   5.049 -0.7009 -0.1277  0.0309
 5501TIP3    H216510   3.760   3.551   4.959  0.6048  0.2116 -0.1531
 5502TIP3   OH216511   5.075   4.924   4.623 -0.3419 -0.4999  0.2798
 5502TIP3    H116512   5.062   4.848   4.680 -1.3142 -1.1319 -0.7290
 5502TIP3    H216513   4.986   4.951   4.599  0.0330 -0.0372 -0.6441
 5503TIP3   OH216514   5.839   5.377   2.426 -0.4770 -0.2054  0.0682
 5503TIP3    H116515   5.837   5.334   2.511  1.5217  0.5758  0.5662
 5503TIP3    H216516   5.747   5.396   2.406 -1.1815 -2.3922  0.9770
 5504TIP3   OH216517   5.165   2.299   0.466  0.1146 -0.4071 -0.9459
 5504TIP3    H116518   5.161   2.330   0.557 -2.3459 -1.9734 -0.4355
 5504TIP3    H216519   5.198   2.374   0.417 -1.3416  1.5248  0.8369
 5505TIP3   OH216520   3.394   5.866   4.750 -0.1758  0.2899 -0.2586
 5505TIP3    H116521   3.469   5.822   4.788 -0.5453 -1.1145 -1.0927
 5505TIP3    H216522   3.413   5.869   4.656 -2.1887 -2.3006 -0.8460
 5506TIP3   OH216523   4.488   3.938   1.005  0.0693  0.0670 -0.3520
 5506TIP3    H116524   4.479   3.928   1.100  0.6668 -1.5408 -0.4321
 5506TIP3    H216525   4.554   4.006   0.994  1.1916 -0.8698  0.4210
 5507TIP3   OH216526   1.935   2.848   1.945 -0.0452  0.1150 -0.0310
 5507TIP3    H116527   1.986   2.805   1.877 -0.5047  0.4718 -0.6046
 5507TIP3    H216528   1.850   2.805   1.943 -0.3097  0.6332 -0.2018
 5508TIP3   OH216529   0.600   5.122   1.627  0.4585  0.0693 -0.0835
 5508TIP3    H116530   0.596   5.216   1.612  3.4165  0.1793 -0.9579
 5508TIP3    H216531   0.633   5.086   1.544  1.1911 -1.4689  0.8247
 5509TIP3   OH216532   5.722   0.641   3.022  0.2147 -0.2826 -0.3793
 5509TIP3    H116533   5.721   0.580   2.947 -0.0974 -0.2511 -0.4030
 5509TIP3    H216534   5.812   0.640   3.052  0.1302 -1.0612 -0.1380
 5510TIP3   OH216535   5.382   3.097   0.918  0.4590  0.0345 -0.5213
 5510TIP3    H116536   5.474   3.080   0.901  0.7111  1.5157 -0.7453
 5510TIP3    H216537   5.338   3.081   0.834  0.9465  2.0913 -1.2346
 5511TIP3   OH216538   1.549   4.053   2.959  0.0551  0.5744 -0.3458
 5511TIP3    H116539   1.495   3.998   3.016 -0.0837  1.1846  0.1322
 5511TIP3    H216540   1.541   4.141   2.997 -0.2482  1.0418 -1.4712
 5512TIP3   OH216541   0.713   5.089   2.331  0.1282 -0.1305 -0.4122
 5512TIP3    H116542   0.651   5.080   2.260 -0.9312  1.1726  0.3145
 5512TIP3    H216543   0.661   5.117   2.406  1.5323  0.6821  0.3086
 5513TIP3   OH216544   3.935   4.895   1.139  0.0444 -0.4968 -0.3619
 5513TIP3    H116545   3.947   4.801   1.150  0.7466 -0.3608  0.1115
 5513TIP3    H216546   4.021   4.927   1.111  0.0373  0.1256  0.3100
 5514TIP3   OH216547   3.558   0.630   3.343 -0.1026  0.5913 -0.0546
 5514TIP3    H116548   3.533   0.549   3.388  0.3347  0.2976 -0.3410
 5514TIP3    H216549   3.565   0.606   3.251  0.5997  0.8167 -0.0668
 5515TIP3   OH216550   5.369   1.722   3.956 -1.0000  0.0303 -0.4299
 5515TIP3    H116551   5.324   1.654   4.006 -0.8601 -0.2843 -0.7269
 5515TIP3    H216552   5.425   1.673   3.894  0.0242  0.4051  0.1708
 5516TIP3   OH216553   5.060   5.764   0.628  0.0118 -0.3499 -0.2053
 5516TIP3    H116554   5.062   5.721   0.542  0.0962 -0.8820  0.0595
 5516TIP3    H216555   4.968   5.788   0.640  0.0700  0.1025 -0.6230
 5517TIP3   OH216556   2.486   0.825   2.941  0.2302  0.5206  0.5113
 5517TIP3    H116557   2.518   0.915   2.943  0.7035  0.3472  1.1371
 5517TIP3    H216558   2.562   0.771   2.965 -0.5538  0.1239  2.2940
 5518TIP3   OH216559   1.137   4.869   3.528  0.4769  0.3239  0.0042
 5518TIP3    H116560   1.119   4.937   3.593  0.8518 -0.1104  0.5786
 5518TIP3    H216561   1.134   4.787   3.578 -1.6196 -0.2596 -0.9734
 5519TIP3   OH216562   3.714   1.988   2.175  0.7200 -0.5122  0.3571
 5519TIP3    H116563   3.663   1.909   2.195 -0.1388  0.0122  0.2974
 5519TIP3    H216564   3.692   2.008   2.084  1.2394 -0.4216  0.2500
 5520TIP3   OH216565   6.131   2.219   0.741  0.1044  0.5977  0.2530
 5520TIP3    H116566   6.127   2.314   0.739 -0.3129  0.5948  0.6707
 5520TIP3    H216567   6.040   2.191   0.747  0.2732  0.2054  1.1092
 5521TIP3   OH216568   3.978   4.262   4.482  0.2156 -0.4611  0.1325
 5521TIP3    H116569   3.933   4.341   4.449 -0.8221 -0.2539  1.8879
 5521TIP3    H216570   3.907   4.207   4.514  1.1253 -0.4467  2.3518
 5522TIP3   OH216571   4.703   5.032   5.179 -0.1661  0.9034  0.5484
 5522TIP3    H116572   4.731   5.048   5.089 -0.2321  4.4103  1.0363
 5522TIP3    H216573   4.647   4.954   5.173  0.8604  0.2616 -2.1819
 5523TIP3   OH216574   2.257   0.150   2.468 -0.0357 -0.0697 -0.0686
 5523TIP3    H116575   2.351   0.152   2.453 -0.0818 -0.4753 -0.4266
 5523TIP3    H216576   2.220   0.203   2.398 -0.1196 -0.4259 -0.2927
 5524TIP3   OH216577   1.283   5.168   4.000  0.3474 -0.5442 -0.4005
 5524TIP3    H116578   1.198   5.200   4.032  0.2536 -0.7553 -0.4402
 5524TIP3    H216579   1.280   5.181   3.905  1.6171  2.5214 -0.1400
 5525TIP3   OH216580   1.463   2.263   0.920  0.1988 -0.1491 -0.0911
 5525TIP3    H116581   1.464   2.358   0.931 -0.6302 -0.1151 -0.2424
 5525TIP3    H216582   1.528   2.246   0.852 -0.5031  0.4348 -0.9331
 5526TIP3   OH216583   4.363   2.309   2.574 -0.2054 -0.6490 -0.5162
 5526TIP3    H116584   4.426   2.357   2.520  0.7884 -1.2876  0.0568
 5526TIP3    H216585   4.302   2.377   2.604  0.2204 -0.0137 -1.0330
 5527TIP3   OH216586   2.258   0.700   2.456  0.3287  0.4282 -0.1839
 5527TIP3    H116587   2.275   0.767   2.522  0.8178 -0.0768  0.2127
 5527TIP3    H216588   2.205   0.744   2.390  0.4486  1.1387  0.1865
 5528TIP3   OH216589   2.248   4.780   2.323  0.2043  0.2487  0.5286
 5528TIP3    H116590   2.154   4.779   2.308 -0.0774 -1.7271  2.0337
 5528TIP3    H216591   2.274   4.871   2.307 -1.5798  0.4495 -1.8203
 5529TIP3   OH216592   2.557   5.243   2.178  0.2383  0.6797 -0.2805
 5529TIP3    H116593   2.606   5.241   2.095 -0.4621  0.7282 -0.7000
 5529TIP3    H216594   2.577   5.328   2.216  1.6850  0.1265  0.2995
 5530TIP3   OH216595   1.294   5.220   2.342 -0.2121 -0.6115 -0.0201
 5530TIP3    H116596   1.247   5.303   2.344 -0.4215 -0.7154 -0.5458
 5530TIP3    H216597   1.315   5.202   2.434  3.5466  2.1029 -0.1376
 5531TIP3   OH216598   0.986   5.194   3.693 -0.0638  0.4718  0.0524
 5531TIP3    H116599   1.019   5.124   3.749 -0.1523  0.0914 -0.3722
 5531TIP3    H216600   0.924   5.151   3.634 -1.0082  1.1020  0.5599
 5532TIP3   OH216601   2.203   1.398   5.178 -0.0988  0.0773  0.2025
 5532TIP3    H116602   2.154   1.352   5.110  2.4848 -1.7696 -0.5500
 5532TIP3    H216603   2.201   1.339   5.253  2.9781 -1.3150 -0.6676
 5533TIP3   OH216604   0.797   1.654   2.936 -0.2935  0.1896  0.3294
 5533TIP3    H116605   0.869   1.611   2.890 -0.7892  0.2052 -0.4920
 5533TIP3    H216606   0.720   1.636   2.882 -0.7293  1.0271  0.6452
 5534TIP3   OH216607   1.401   5.337   0.755  0.2612 -0.6033 -0.2409
 5534TIP3    H116608   1.393   5.309   0.663 -2.0216  0.3215 -0.3841
 5534TIP3    H216609   1.358   5.267   0.804  1.8304 -1.2910  0.1977
 5535TIP3   OH216610   5.041   4.953   0.650  0.2931 -0.8890 -0.1490
 5535TIP3    H116611   5.102   5.022   0.679  1.1028 -1.1084 -1.2282
 5535TIP3    H216612   5.046   4.886   0.718 -0.6558  0.1814  1.0172
 5536TIP3   OH216613   3.948   3.632   1.076  0.4647 -0.3278  0.0429
 5536TIP3    H116614   3.952   3.560   1.140 -0.6477  0.7838  1.4415
 5536TIP3    H216615   4.015   3.693   1.105  0.4935 -0.1816 -0.3343
 5537TIP3   OH216616   1.463   2.096   4.340  0.2412 -0.2614  0.0249
 5537TIP3    H116617   1.554   2.082   4.367 -0.1571 -0.1922  1.5108
 5537TIP3    H216618   1.436   2.012   4.304  0.5587 -0.6453  0.6561
 5538TIP3   OH216619   1.547   2.713   2.704  0.1137 -0.3759 -0.2809
 5538TIP3    H116620   1.564   2.762   2.624  3.4457  0.7865  0.9617
 5538TIP3    H216621   1.495   2.772   2.758 -1.8140 -1.0170 -1.3599
 5539TIP3   OH216622   6.198   1.210   3.426 -0.0876 -0.1535  0.2600
 5539TIP3    H116623   6.118   1.261   3.436 -0.6762 -1.1481  0.8218
 5539TIP3    H216624   6.175   1.141   3.364  0.9517  0.7276 -1.1776
 5540TIP3   OH216625   3.855   1.903   3.233  0.3822 -0.1125  0.1062
 5540TIP3    H116626   3.897   1.903   3.319 -0.0136  0.8649  0.3085
 5540TIP3    H216627   3.838   1.995   3.214 -0.9319 -0.4264 -0.3335
 5541TIP3   OH216628   3.797   1.559   3.951  0.3975  0.0143  0.0582
 5541TIP3    H116629   3.842   1.570   3.867  0.5981  0.0060  0.1629
 5541TIP3    H216630   3.706   1.578   3.933  0.7832  2.3822  0.3533
 5542TIP3   OH216631   4.400   1.907   3.375  0.1591  0.0851 -0.1533
 5542TIP3    H116632   4.338   1.913   3.302 -0.2474  0.5330  0.2230
 5542TIP3    H216633   4.378   1.825   3.419 -0.1385  0.2228 -0.0465
 5543TIP3   OH216634   4.842   2.230   3.229  0.0996 -0.1459 -0.0024
 5543TIP3    H116635   4.837   2.155   3.288 -0.6679  1.2732  1.8150
 5543TIP3    H216636   4.782   2.294   3.265  1.8304  1.9596 -0.6065
 5544TIP3   OH216637   1.706   5.109   4.290  0.4334  0.2293  0.4043
 5544TIP3    H116638   1.768   5.133   4.359 -0.6028  2.2649  0.7086
 5544TIP3    H216639   1.690   5.190   4.242 -1.3768 -0.4008 -0.1545
 5545TIP3   OH216640   0.801   1.901   4.209 -0.3149 -0.1896  0.3681
 5545TIP3    H116641   0.769   1.895   4.299 -0.3710  1.1581  0.4633
 5545TIP3    H216642   0.857   1.979   4.208  0.1695 -0.5288 -0.6246
 5546TIP3   OH216643   2.372   3.499   2.154 -0.1052 -0.7160  0.1321
 5546TIP3    H116644   2.369   3.413   2.111  0.1907  0.8285 -3.2582
 5546TIP3    H216645   2.282   3.531   2.149 -0.2104 -0.7441  1.3765
 5547TIP3   OH216646   0.093   3.593   1.128 -0.1531 -0.1493 -0.1259
 5547TIP3    H116647   0.170   3.612   1.075  1.3090 -0.3182  1.8428
 5547TIP3    H216648   0.099   3.499   1.145  0.1409  0.1171  1.3737
 5548TIP3   OH216649   4.909   0.791   4.654 -0.4229 -0.4875 -0.2128
 5548TIP3    H116650   4.858   0.864   4.618 -1.4057 -0.4647  1.1586
 5548TIP3    H216651   4.898   0.720   4.590 -2.6787 -0.6647  0.2917
 5549TIP3   OH216652   1.359   0.338   4.045 -0.5149  0.3681 -0.3806
 5549TIP3    H116653   1.401   0.259   4.009 -0.8449  0.8618 -1.8905
 5549TIP3    H216654   1.310   0.306   4.121 -0.2880 -0.8122 -0.7091
 5550TIP3   OH216655   0.715   4.010   1.502  0.1139 -0.3938  0.0346
 5550TIP3    H116656   0.699   3.926   1.545 -1.4428  0.6690  1.6752
 5550TIP3    H216657   0.629   4.036   1.467 -0.3440  2.1043  2.6515
 5551TIP3   OH216658   1.931   4.674   1.809 -0.2896  0.8881  0.0712
 5551TIP3    H116659   2.000   4.608   1.797 -1.2431  0.0443 -1.0640
 5551TIP3    H216660   1.974   4.746   1.855  0.6270 -0.7789  1.9536
 5552TIP3   OH216661   0.221   4.027   4.388 -0.1208 -0.2237  0.3234
 5552TIP3    H116662   0.271   4.101   4.355 -0.4817 -0.0666  0.1247
 5552TIP3    H216663   0.180   4.060   4.468 -0.4124 -0.1582  0.1475
 5553TIP3   OH216664   5.293   4.689   4.610  0.8811 -0.1531 -0.0610
 5553TIP3    H116665   5.239   4.658   4.683  0.0135  0.8773 -0.2448
 5553TIP3    H216666   5.319   4.778   4.634  0.5392  0.2262 -1.0100
 5554TIP3   OH216667   1.118   2.352   0.651  0.0501  0.2712  0.0334
 5554TIP3    H116668   1.157   2.391   0.573 -0.8373  0.2047 -0.4555
 5554TIP3    H216669   1.081   2.269   0.620  1.4642 -0.7479  0.9515
 5555TIP3   OH216670   5.803   2.645   3.273 -0.0891  0.3205 -0.3530
 5555TIP3    H116671   5.813   2.733   3.309 -0.7166 -0.0802  0.8852
 5555TIP3    H216672   5.834   2.587   3.343 -0.0531 -0.4534 -0.9943
 5556TIP3   OH216673   5.083   3.402   4.556 -0.5308 -0.3311  0.0559
 5556TIP3    H116674   5.153   3.342   4.530 -0.1775  0.5918 -1.1786
 5556TIP3    H216675   5.014   3.345   4.588  0.0813 -1.3557 -0.4024
 5557TIP3   OH216676   3.930   5.607   2.370 -0.7542  0.1517  0.4501
 5557TIP3    H116677   3.856   5.584   2.314 -1.0145 -0.9530  1.2306
 5557TIP3    H216678   3.897   5.678   2.425 -1.3908 -0.6642  1.1270
 5558TIP3   OH216679   1.624   0.581   4.089 -0.2353 -0.2204  0.0068
 5558TIP3    H116680   1.536   0.619   4.098  0.2315  0.5094  2.0133
 5558TIP3    H216681   1.681   0.642   4.135  1.6346  0.1319 -2.5950
 5559TIP3   OH216682   2.446   1.267   3.973  0.2688  0.5317 -0.2571
 5559TIP3    H116683   2.412   1.241   3.888 -0.8698  1.6495 -0.1606
 5559TIP3    H216684   2.477   1.357   3.960  2.2869 -0.0756 -0.0723
 5560TIP3   OH216685   6.327   2.032   0.633 -0.2733 -0.0732 -0.5137
 5560TIP3    H116686   6.328   2.035   0.538 -0.4540 -1.3411 -0.5681
 5560TIP3    H216687   6.334   2.124   0.660  2.3261  0.1730 -1.7245
 5561TIP3   OH216688   0.714   0.492   4.915  0.2123  0.1075 -0.5944
 5561TIP3    H116689   0.625   0.463   4.937  0.9069 -2.0739 -0.3558
 5561TIP3    H216690   0.706   0.586   4.899 -1.6862  0.4721  1.8712
 5562TIP3   OH216691   2.265   5.737   0.297 -0.0630  0.1412 -0.0279
 5562TIP3    H116692   2.190   5.703   0.248  1.3396 -1.5042 -1.1800
 5562TIP3    H216693   2.330   5.758   0.229  0.4952  1.6733  0.9270
 5563TIP3   OH216694   0.260   2.232   4.269 -0.1055  0.5421 -0.6367
 5563TIP3    H116695   0.274   2.276   4.185 -2.7963  3.1830  0.1124
 5563TIP3    H216696   0.259   2.303   4.333 -0.9544 -1.0567  1.2156
 5564TIP3   OH216697   0.443   4.961   2.965 -0.2377 -0.0590  0.0914
 5564TIP3    H116698   0.533   4.994   2.958 -0.6999  1.4238  0.6688
 5564TIP3    H216699   0.427   4.956   3.059  0.0604 -2.8021  0.0672
 5565TIP3   OH216700   3.359   1.744   3.770  0.3072  0.5967 -0.4631
 5565TIP3    H116701   3.271   1.707   3.765 -0.2716  1.5681  1.4772
 5565TIP3    H216702   3.377   1.776   3.681 -0.4908 -1.2927 -1.3539
 5566TIP3   OH216703   0.834   5.505   3.212  0.2772  0.4378 -0.4182
 5566TIP3    H116704   0.858   5.413   3.199 -1.7234 -0.2120  0.1129
 5566TIP3    H216705   0.745   5.512   3.177  0.8624  2.5261 -1.6824
 5567TIP3   OH216706   6.002   4.271   2.830  0.0845  0.3102  0.0582
 5567TIP3    H116707   5.933   4.206   2.842  0.8009 -0.5115 -0.2250
 5567TIP3    H216708   5.974   4.323   2.755 -0.5511  0.4242  0.3664
 5568TIP3   OH216709   2.701   4.199   3.189  0.7980  0.3162  0.1400
 5568TIP3    H116710   2.607   4.188   3.197  0.9632 -0.2071  1.6824
 5568TIP3    H216711   2.735   4.110   3.179  1.1645  0.4601  0.0756
 5569TIP3   OH216712   6.061   4.461   3.749  0.0736  0.1465 -0.2521
 5569TIP3    H116713   6.036   4.446   3.841 -0.0636 -0.6937 -0.4189
 5569TIP3    H216714   6.013   4.540   3.724 -0.3244  0.0663  0.2355
 5570TIP3   OH216715   0.936   4.163   1.435 -0.1615  0.0915 -0.0331
 5570TIP3    H116716   0.936   4.140   1.342  0.0532 -1.9395  0.4213
 5570TIP3    H216717   0.868   4.108   1.474 -0.4053  1.0712  0.9911
 5571TIP3   OH216718   3.974   2.376   4.908  0.8703 -0.4097  0.5311
 5571TIP3    H116719   4.065   2.349   4.921  1.0905  0.2654  0.4057
 5571TIP3    H216720   3.935   2.305   4.857  1.8422  0.1820 -1.1102
 5572TIP3   OH216721   4.772   2.450   3.796  0.4293 -0.6885  0.0722
 5572TIP3    H116722   4.805   2.536   3.772 -1.0091  0.7355  2.7113
 5572TIP3    H216723   4.841   2.389   3.769  2.8269  1.5858  0.7051
 5573TIP3   OH216724   1.598   5.480   3.440  0.5223 -0.2134  0.1385
 5573TIP3    H116725   1.586   5.521   3.354  1.5805 -0.8989 -0.3546
 5573TIP3    H216726   1.678   5.520   3.474 -1.3571  2.1961  2.1228
 5574TIP3   OH216727   6.049   2.145   2.027 -0.4584 -0.0214  0.0884
 5574TIP3    H116728   6.118   2.160   1.961 -1.5689 -1.3680 -1.4661
 5574TIP3    H216729   6.047   2.226   2.078  0.1138  1.3178 -1.8740
 5575TIP3   OH216730   5.517   3.957   4.454 -0.2325 -0.0650 -0.5046
 5575TIP3    H116731   5.522   4.014   4.377  1.3173 -0.7803 -0.9615
 5575TIP3    H216732   5.597   3.905   4.452 -0.4620 -0.5711  1.2428
 5576TIP3   OH216733   3.313   4.437   1.302 -0.5162 -0.8645  0.1070
 5576TIP3    H116734   3.274   4.487   1.374 -0.3065 -0.2877 -0.1834
 5576TIP3    H216735   3.300   4.345   1.328 -0.1545 -0.6609  1.0307
 5577TIP3   OH216736   4.215   5.764   0.124  0.2729  0.0645  0.7265
 5577TIP3    H116737   4.146   5.809   0.173  0.6389 -0.3876  1.6918
 5577TIP3    H216738   4.179   5.751   0.037 -1.2884 -1.0986  1.4957
 5578TIP3   OH216739   3.798   4.654   2.153 -0.0773 -0.1254  0.2109
 5578TIP3    H116740   3.716   4.663   2.105  1.9318  2.7671 -3.2079
 5578TIP3    H216741   3.845   4.585   2.106 -0.2578 -1.3988  1.8177
 5579TIP3   OH216742   1.226   0.403   3.478 -0.0882  0.2320 -0.3288
 5579TIP3    H116743   1.212   0.331   3.416  0.2968  0.4917 -0.7218
 5579TIP3    H216744   1.298   0.374   3.534  1.3303  1.0319 -1.6459
 5580TIP3   OH216745   3.736   1.887   3.898 -0.1698  0.8914 -0.0133
 5580TIP3    H116746   3.698   1.960   3.947 -1.5868  0.2070 -0.0161
 5580TIP3    H216747   3.662   1.850   3.849  0.9166  0.6950 -1.6062
 5581TIP3   OH216748   3.652   5.494   3.419  0.1525 -0.2758  0.6880
 5581TIP3    H116749   3.728   5.537   3.457  0.4226  1.1157 -1.2615
 5581TIP3    H216750   3.667   5.400   3.435  1.7602  0.0399  1.2101
 5582TIP3   OH216751   4.864   0.886   3.639  0.0601  0.0851 -0.3216
 5582TIP3    H116752   4.858   0.826   3.713  1.1368 -1.7750 -1.6528
 5582TIP3    H216753   4.949   0.929   3.650  0.4459 -0.5691 -0.7515
 5583TIP3   OH216754   2.475   1.468   2.247 -0.0375 -0.3543  0.7337
 5583TIP3    H116755   2.435   1.479   2.334 -0.7770 -1.5248  0.5541
 5583TIP3    H216756   2.403   1.440   2.191  0.7563 -1.1800  0.0999
 5584TIP3   OH216757   3.581   1.414   1.763  0.3799  0.3596 -0.1653
 5584TIP3    H116758   3.652   1.467   1.727  0.1054  2.2105  1.8342
 5584TIP3    H216759   3.501   1.457   1.733  0.1324 -0.0177 -0.0547
 5585TIP3   OH216760   1.382   4.404   1.752 -0.6709 -0.1317  0.1702
 5585TIP3    H116761   1.421   4.483   1.715  1.6874 -0.4907  1.7145
 5585TIP3    H216762   1.398   4.336   1.686  0.3075 -0.0172  0.2774
 5586TIP3   OH216763   3.651   2.067   4.108 -0.1008 -0.2903 -0.1421
 5586TIP3    H116764   3.581   2.032   4.162 -0.9729  1.3631 -0.1439
 5586TIP3    H216765   3.720   2.091   4.170 -0.0817 -0.6741 -0.0128
 5587TIP3   OH216766   4.113   5.424   1.146 -0.6109  0.1193  0.5660
 5587TIP3    H116767   4.115   5.406   1.052 -1.7939 -0.8956  0.7059
 5587TIP3    H216768   4.025   5.396   1.174 -0.1402  0.0194  2.0460
 5588TIP3   OH216769   1.216   5.845   2.686  0.1388 -0.2158  0.5088
 5588TIP3    H116770   1.142   5.840   2.746  0.6055 -0.9357  1.0425
 5588TIP3    H216771   1.248   5.755   2.679  0.5908 -0.0133 -0.1873
 5589TIP3   OH216772   3.892   4.361   1.302 -0.1982 -0.2939  0.8714
 5589TIP3    H116773   3.977   4.339   1.264 -0.3828  1.1341 -0.4776
 5589TIP3    H216774   3.830   4.300   1.262 -0.2609  0.6702 -0.5735
 5590TIP3   OH216775   2.395   2.131   2.678  0.3564 -0.5141 -0.1123
 5590TIP3    H116776   2.437   2.053   2.715  0.2984 -1.4417 -1.9167
 5590TIP3    H216777   2.464   2.174   2.628  0.0304 -0.1496 -0.2524
 5591TIP3   OH216778   6.038   1.857   2.045  0.1450 -0.2860 -0.2784
 5591TIP3    H116779   6.049   1.950   2.063  0.6902 -0.1399 -1.2841
 5591TIP3    H216780   6.069   1.846   1.955  0.2898 -1.4761 -0.1040
 5592TIP3   OH216781   0.092   2.404   4.065 -0.5064  0.1694 -0.5432
 5592TIP3    H116782   0.068   2.488   4.026 -1.5202  0.3655  0.4618
 5592TIP3    H216783   0.144   2.360   3.997  2.1739  2.5745 -0.2126
 5593TIP3   OH216784   0.059   5.359   2.869 -0.0493 -0.4778  0.1322
 5593TIP3    H116785   0.077   5.265   2.878 -0.1574 -0.4908  0.2073
 5593TIP3    H216786   0.144   5.397   2.849 -0.4112 -0.9733 -2.8527
 5594TIP3   OH216787   4.590   2.077   3.501  0.3313 -0.1448 -0.3711
 5594TIP3    H116788   4.523   2.014   3.473  1.2080 -1.0736 -0.4382
 5594TIP3    H216789   4.610   2.052   3.591 -0.5427  1.1433  0.2034
 5595TIP3   OH216790   5.338   0.710   4.032 -0.1465 -0.3964 -0.1244
 5595TIP3    H116791   5.351   0.619   4.006 -1.5747 -0.6627  0.0065
 5595TIP3    H216792   5.362   0.760   3.954 -0.6156 -0.9742 -0.6543
 5596TIP3   OH216793   1.006   1.596   2.500 -0.0116 -0.0489  0.0350
 5596TIP3    H116794   1.094   1.612   2.532  0.8848 -1.1009 -1.7691
 5596TIP3    H216795   1.015   1.585   2.406 -2.1854  0.5186 -0.3098
 5597TIP3   OH216796   5.701   1.691   3.201 -0.0591 -0.0946  0.2932
 5597TIP3    H116797   5.634   1.726   3.141 -0.2487  0.6254  0.8973
 5597TIP3    H216798   5.692   1.596   3.194  0.5835 -0.0611 -1.5347
 5598TIP3   OH216799   1.135   0.030   3.301  0.3275 -0.0005 -0.3670
 5598TIP3    H116800   1.124   0.117   3.262 -1.5210  0.6612  1.4370
 5598TIP3    H216801   1.060  -0.020   3.271  0.1651 -0.2302  0.4005
 5599TIP3   OH216802   5.480   3.602   2.270 -0.6015  0.2007  0.7987
 5599TIP3    H116803   5.525   3.635   2.348 -0.8437 -0.3157  1.1701
 5599TIP3    H216804   5.504   3.509   2.267 -0.6532  0.2049  0.2994
 5600TIP3   OH216805   0.503   4.648   3.268 -0.4734  0.2142 -0.0540
 5600TIP3    H116806   0.505   4.558   3.236 -0.0142  0.0486  0.4276
 5600TIP3    H216807   0.452   4.644   3.349  3.2806 -0.4930  2.5044
 5601TIP3   OH216808   4.990   2.246   1.675  0.3429  0.3196 -0.2319
 5601TIP3    H116809   5.056   2.197   1.626  0.0271  0.6611 -1.0307
 5601TIP3    H216810   5.018   2.338   1.666 -1.2997  0.6986 -2.3565
 5602TIP3   OH216811   5.974   1.470   1.287 -1.1737  0.1976 -0.2756
 5602TIP3    H116812   6.031   1.444   1.359 -0.5215  1.0201 -0.4834
 5602TIP3    H216813   5.910   1.529   1.328 -0.3530  1.2650 -0.4782
 5603TIP3   OH216814   5.266   4.155   0.295  0.0375  0.3693  0.0369
 5603TIP3    H116815   5.207   4.230   0.286 -1.1233 -0.6180 -0.8112
 5603TIP3    H216816   5.214   4.080   0.268  1.7769 -0.5141 -1.0326
 5604TIP3   OH216817   2.273   1.367   2.956  0.5585 -0.7179  0.0236
 5604TIP3    H116818   2.257   1.435   3.022  0.8451 -1.3310  0.7425
 5604TIP3    H216819   2.195   1.312   2.958  1.5283 -2.1399  1.6077
 5605TIP3   OH216820   3.599   4.384   1.450 -0.1326 -0.0014  0.1742
 5605TIP3    H116821   3.647   4.389   1.533 -3.2730 -1.0001  2.2395
 5605TIP3    H216822   3.623   4.299   1.413  0.1650 -0.2057  0.8314
 5606TIP3   OH216823   0.507   0.761   2.911  0.3727  0.0027  0.6576
 5606TIP3    H116824   0.465   0.831   2.861 -2.3774  0.5218  3.4066
 5606TIP3    H216825   0.585   0.802   2.949  1.1376  0.2767 -1.1191
 5607TIP3   OH216826   0.965   2.161   0.542  0.0905  0.2071  0.0311
 5607TIP3    H116827   0.916   2.233   0.502  0.0920  1.0919  1.5537
 5607TIP3    H216828   0.976   2.098   0.471 -0.7099  1.2893 -1.1085
 5608TIP3   OH216829   4.845   5.494   3.686  0.1734  0.0904  0.1480
 5608TIP3    H116830   4.906   5.567   3.696  0.8368 -0.2783 -1.1035
 5608TIP3    H216831   4.880   5.425   3.743 -0.7740  0.8836  1.8025
 5609TIP3   OH216832   6.032   1.050   5.062  0.1016  0.3172 -0.3347
 5609TIP3    H116833   5.984   0.999   5.127 -1.6787 -0.4894 -2.1388
 5609TIP3    H216834   6.108   0.996   5.040 -0.8562 -0.8121 -0.9924
 5610TIP3   OH216835   3.776   1.356   3.719  0.5187 -0.2128 -0.4150
 5610TIP3    H116836   3.817   1.440   3.700 -0.3287  0.8134  1.9720
 5610TIP3    H216837   3.684   1.368   3.696  0.6336 -0.9695 -1.3437
 5611TIP3   OH216838   4.753   3.039   4.691  0.2381  0.0578 -0.2205
 5611TIP3    H116839   4.695   3.084   4.630 -0.1034 -0.5030 -0.3113
 5611TIP3    H216840   4.710   3.047   4.776 -1.2512 -2.4209 -0.6346
 5612TIP3   OH216841   0.729   5.803   3.519 -0.0676  0.5546 -0.0265
 5612TIP3    H116842   0.698   5.894   3.526  0.0224  0.7035 -1.2572
 5612TIP3    H216843   0.804   5.809   3.460  0.6586 -0.1741  0.8041
 5613TIP3   OH216844   0.968   0.202   1.408  0.0961  0.1168 -0.1510
 5613TIP3    H116845   0.903   0.248   1.354  1.3151 -0.4387 -2.1951
 5613TIP3    H216846   1.052   0.232   1.376  0.9157  0.4232  2.0983
 5614TIP3   OH216847   1.009   2.305   1.565  0.2819  0.2960 -0.6476
 5614TIP3    H116848   0.932   2.258   1.531 -0.1214 -0.2238  0.8955
 5614TIP3    H216849   1.000   2.394   1.530 -0.9532  0.2025 -0.6234
 5615TIP3   OH216850   0.501   4.915   4.262  0.2534  0.4352 -0.0881
 5615TIP3    H116851   0.559   4.915   4.186 -1.8428  1.2638 -1.7671
 5615TIP3    H216852   0.496   5.006   4.289 -1.1950  0.5636 -0.7324
 5616TIP3   OH216853   3.538   4.894   0.271 -0.0499  0.1713  0.1184
 5616TIP3    H116854   3.483   4.818   0.290  0.5378 -0.2539  0.1726
 5616TIP3    H216855   3.480   4.956   0.228 -0.7601  0.0593  0.8950
 5617TIP3   OH216856   2.311   4.051   1.622 -0.4763  0.0584  0.0703
 5617TIP3    H116857   2.230   4.044   1.671  0.2060  1.6527  1.5141
 5617TIP3    H216858   2.361   4.119   1.667  1.0225  0.2019 -1.6865
 5618TIP3   OH216859   6.349   0.645   2.143 -0.4481 -0.8812 -0.0069
 5618TIP3    H116860   6.274   0.589   2.123 -1.3751  0.7582 -1.5097
 5618TIP3    H216861   6.321   0.696   2.219 -1.1137  0.0538 -0.8406
 5619TIP3   OH216862   2.069   1.202   2.189  0.5194  0.2986 -0.0463
 5619TIP3    H116863   2.099   1.204   2.280  1.8374 -1.1609 -0.4061
 5619TIP3    H216864   1.979   1.171   2.194  0.5268  0.3851  0.7590
 5620TIP3   OH216865   5.339   5.468   3.268  0.1281  0.4202 -0.7558
 5620TIP3    H116866   5.375   5.556   3.274 -0.7330  0.8488 -1.5074
 5620TIP3    H216867   5.405   5.411   3.307  1.0253  1.3127 -0.9464
 5621TIP3   OH216868   4.999   5.670   1.581 -0.4377  0.6340  0.0124
 5621TIP3    H116869   5.027   5.757   1.552 -1.6114  0.9259 -0.2716
 5621TIP3    H216870   4.906   5.666   1.561 -0.3698 -0.7608 -0.1340
 5622TIP3   OH216871   4.500   3.465   4.725  0.4785 -0.1090 -0.1224
 5622TIP3    H116872   4.407   3.453   4.705  0.7336  1.1659 -2.4103
 5622TIP3    H216873   4.501   3.523   4.801 -0.5935 -0.3339  0.0790
 5623TIP3   OH216874   3.419   0.747   4.514  0.0960 -0.1652  0.4676
 5623TIP3    H116875   3.467   0.698   4.581 -0.2511  1.8468  2.3157
 5623TIP3    H216876   3.486   0.777   4.453  0.7800 -0.0912  1.2361
 5624TIP3   OH216877   6.000   3.969   4.781 -0.0829  0.4399 -0.4872
 5624TIP3    H116878   5.942   3.992   4.709  0.1042  0.8983 -0.4940
 5624TIP3    H216879   6.010   3.874   4.775 -0.4674  0.4174 -0.7597
 5625TIP3   OH216880   3.683   5.798   4.789  0.4587 -0.8204  0.5638
 5625TIP3    H116881   3.757   5.748   4.823  1.3853 -0.1359 -0.4102
 5625TIP3    H216882   3.722   5.873   4.744 -0.8275 -0.3612  0.1506
 5626TIP3   OH216883   0.715   5.377   3.578  0.0669 -0.2144  0.0696
 5626TIP3    H116884   0.738   5.354   3.669 -2.3212  1.4209  1.2056
 5626TIP3    H216885   0.791   5.426   3.546  1.6289 -2.1685  0.5673
 5627TIP3   OH216886   1.236   0.074   4.082  0.0266  0.2871 -0.4136
 5627TIP3    H116887   1.178   0.099   4.011 -0.7067 -0.4102 -0.0715
 5627TIP3    H216888   1.285  -0.001   4.048  0.1433  0.3589 -0.4064
 5628TIP3   OH216889   3.599   1.028   1.812 -0.6475  0.1718  0.1112
 5628TIP3    H116890   3.674   0.971   1.791 -0.9188 -0.1857  0.1033
 5628TIP3    H216891   3.563   1.052   1.727 -0.2145  0.7890  0.0978
 5629TIP3   OH216892   2.317   4.256   0.075 -0.5662  0.0763  0.2832
 5629TIP3    H116893   2.260   4.286   0.005 -1.2956  0.5206  1.0410
 5629TIP3    H216894   2.352   4.172   0.044 -0.2524  0.6464 -0.9277
 5630TIP3   OH216895   5.288   1.836   1.563  0.1246  0.5392 -0.2522
 5630TIP3    H116896   5.379   1.848   1.539  0.5064 -0.9739  0.3137
 5630TIP3    H216897   5.278   1.741   1.571 -0.4119  0.7792  3.6770
 5631TIP3   OH216898   1.162   3.997   1.295  0.3770  0.4904  0.0655
 5631TIP3    H116899   1.252   4.001   1.329  0.3557  1.4090  0.0355
 5631TIP3    H216900   1.174   3.996   1.200  0.3327  3.3457 -0.0565
 5632TIP3   OH216901   2.653   5.455   3.755 -0.3070 -0.4769  0.2885
 5632TIP3    H116902   2.620   5.396   3.823 -0.5801  0.0229  0.6013
 5632TIP3    H216903   2.577   5.511   3.734  0.1110  0.1644  0.4421
 5633TIP3   OH216904   1.731   1.439   1.691  0.0894  0.3025  0.3826
 5633TIP3    H116905   1.775   1.502   1.748  1.5125  1.5459 -1.9324
 5633TIP3    H216906   1.792   1.365   1.686 -0.2764 -0.0345  0.8739
 5634TIP3   OH216907   1.733   1.431   3.735  0.0996 -0.7093  0.0964
 5634TIP3    H116908   1.732   1.346   3.690  1.3553  0.0064 -1.3932
 5634TIP3    H216909   1.825   1.443   3.761 -0.2873 -0.3176  1.3499
 5635TIP3   OH216910   3.180   0.548   4.998 -0.3640 -0.2317 -0.4243
 5635TIP3    H116911   3.091   0.563   4.967 -0.9572 -2.3010  0.1756
 5635TIP3    H216912   3.181   0.457   5.028  1.9504 -0.2542 -0.3911
 5636TIP3   OH216913   5.732   4.034   0.657  0.2558  0.3280 -0.1005
 5636TIP3    H116914   5.710   4.100   0.591 -2.3673  0.6172  0.9713
 5636TIP3    H216915   5.652   3.984   0.669  1.3319 -1.1502  1.2808
 5637TIP3   OH216916   3.128   5.196   5.012  0.0178 -0.1908 -0.2070
 5637TIP3    H116917   3.033   5.194   5.002 -0.2946 -0.5565  2.2221
 5637TIP3    H216918   3.160   5.125   4.956 -1.2412 -0.8162 -0.1642
 5638TIP3   OH216919   3.479   1.967   0.903 -0.5717 -0.0092 -0.1174
 5638TIP3    H116920   3.425   1.905   0.952 -1.3898  0.6144 -0.2075
 5638TIP3    H216921   3.448   2.053   0.930  0.1997  0.3681 -0.3817
 5639TIP3   OH216922   2.461   2.385   4.577  0.0066 -0.3626  0.5975
 5639TIP3    H116923   2.505   2.432   4.648 -0.1513 -1.2013  1.2631
 5639TIP3    H216924   2.507   2.301   4.572  0.4771 -0.0543 -0.7724
 5640TIP3   OH216925   1.809   5.044   0.107  0.5296 -0.3886  0.4037
 5640TIP3    H116926   1.819   4.956   0.070 -0.5593  0.5993 -2.5286
 5640TIP3    H216927   1.840   5.103   0.037 -1.4916  1.6433  1.0971
 5641TIP3   OH216928  -0.012   3.588   3.248 -0.0898 -0.0249  0.7661
 5641TIP3    H116929  -0.023   3.497   3.275  0.0371 -0.7034 -1.2813
 5641TIP3    H216930   0.080   3.607   3.261  0.0714 -0.5089  0.3745
 5642TIP3   OH216931   2.931   0.631   0.839 -0.2582  0.5088  0.1235
 5642TIP3    H116932   2.890   0.664   0.759  1.8916  1.8033 -0.5307
 5642TIP3    H216933   2.969   0.547   0.812 -1.1995 -0.0005  0.3447
 5643TIP3   OH216934   1.537   0.948   1.672  0.4150 -0.1121  0.0799
 5643TIP3    H116935   1.520   0.898   1.752 -0.3093  0.7307  0.4717
 5643TIP3    H216936   1.457   0.999   1.658  0.3345 -0.6384 -1.4856
 5644TIP3   OH216937   5.150   3.786   0.818  0.4782 -0.3484 -0.5346
 5644TIP3    H116938   5.173   3.774   0.726  0.1198 -0.5970 -0.5915
 5644TIP3    H216939   5.229   3.761   0.866 -0.3296 -3.3284 -0.6164
 5645TIP3   OH216940   6.342   3.165   1.704 -0.1564  0.4713  0.9415
 5645TIP3    H116941   6.413   3.179   1.641 -1.3860  0.9378 -0.3970
 5645TIP3    H216942   6.281   3.106   1.660 -0.6982  0.1996  1.9987
 5646TIP3   OH216943   3.967   3.200   2.105 -0.0462 -0.5373  0.5514
 5646TIP3    H116944   3.919   3.238   2.178  2.1355  0.2438  1.6760
 5646TIP3    H216945   4.009   3.122   2.141  0.8759 -0.2669  0.0842
 5647TIP3   OH216946   0.897   2.962   3.184  0.1321  0.1140  0.1561
 5647TIP3    H116947   0.947   2.994   3.109  0.3580  1.6417  0.9115
 5647TIP3    H216948   0.814   2.934   3.148  0.5404  0.0579 -0.7707
 5648TIP3   OH216949   0.068   3.941   0.137  0.1253  0.0879  0.1731
 5648TIP3    H116950   0.121   4.017   0.111  0.3128 -0.1813 -0.2457
 5648TIP3    H216951   0.054   3.893   0.056 -1.4271  0.5551  0.1381
 5649TIP3   OH216952   3.554   3.004   0.298  0.2691  0.2151  0.0445
 5649TIP3    H116953   3.634   3.037   0.258 -0.9207  1.1463 -1.6907
 5649TIP3    H216954   3.506   3.083   0.324 -0.3317 -0.3149  0.5870
 5650TIP3   OH216955   3.017   4.108   0.280 -0.0102 -0.3039 -0.0361
 5650TIP3    H116956   2.943   4.168   0.296 -1.3193 -2.0000  0.5901
 5650TIP3    H216957   3.095   4.162   0.295 -1.1370  1.0990  1.1438
 5651TIP3   OH216958   3.883   0.187   1.196  0.2465 -0.1045 -1.1551
 5651TIP3    H116959   3.964   0.222   1.159 -0.2402  1.5520 -0.7497
 5651TIP3    H216960   3.816   0.252   1.174 -0.3043  0.3747  1.4962
 5652TIP3   OH216961   1.730   1.170   3.966 -0.0818 -0.0858  0.3542
 5652TIP3    H116962   1.744   1.244   3.907  0.9841  0.3346  1.0878
 5652TIP3    H216963   1.677   1.108   3.916  1.2145  0.0171 -1.2521
 5653TIP3   OH216964   4.497   3.317   3.753 -0.0967  0.4799  0.1487
 5653TIP3    H116965   4.506   3.405   3.716  0.4575  0.6040  0.5580
 5653TIP3    H216966   4.525   3.259   3.682 -2.6563  0.4637 -0.9366
 5654TIP3   OH216967   0.068   5.740   1.471  0.4656 -0.4987 -0.0306
 5654TIP3    H116968   0.145   5.795   1.487 -0.3603  1.2751 -1.7528
 5654TIP3    H216969   0.042   5.760   1.381 -3.6362  1.1423  1.3072
 5655TIP3   OH216970   6.065   1.117   1.535  0.4124 -0.3688 -0.4746
 5655TIP3    H116971   6.116   1.160   1.605 -0.9803 -0.6725  0.7821
 5655TIP3    H216972   6.119   1.127   1.457  2.4177 -0.7328  0.7947
 5656TIP3   OH216973   2.529   0.031   1.986 -0.0102 -0.5463  0.4018
 5656TIP3    H116974   2.599   0.065   2.041  0.2856  3.3420 -1.9818
 5656TIP3    H216975   2.448   0.052   2.032  0.2380 -2.0579  1.6151
 5657TIP3   OH216976   0.104   4.272   4.559 -0.1143  0.0689  0.5348
 5657TIP3    H116977   0.176   4.329   4.585 -0.4104  1.2314 -0.9869
 5657TIP3    H216978   0.065   4.242   4.641 -0.4879  2.7937  1.4527
 5658TIP3   OH216979   0.738   3.320   4.836 -0.7193 -0.1753 -0.5748
 5658TIP3    H116980   0.667   3.378   4.864 -2.7538 -1.6904 -2.2348
 5658TIP3    H216981   0.694   3.254   4.782  2.1027 -0.6837 -2.4342
 5659TIP3   OH216982   4.984   5.138   1.089 -0.2622  0.3821 -0.2868
 5659TIP3    H116983   5.047   5.210   1.094  0.0441  0.5105 -3.7580
 5659TIP3    H216984   4.898   5.180   1.095 -0.1589  0.3752  2.7949
 5660TIP3   OH216985   5.460   5.003   1.192 -0.1482 -0.0732 -0.5531
 5660TIP3    H116986   5.403   5.076   1.168 -0.0769  0.6658  1.3116
 5660TIP3    H216987   5.427   4.975   1.278  1.3252 -0.6450 -0.1548
 5661TIP3   OH216988   2.726   0.208   2.194 -0.3962 -0.5010  0.1715
 5661TIP3    H116989   2.768   0.237   2.113  0.7609 -0.6927  0.6790
 5661TIP3    H216990   2.786   0.236   2.263 -0.8487 -1.2702  0.8903
 5662TIP3   OH216991   5.247   2.141   1.518  0.2165  0.0461  0.2043
 5662TIP3    H116992   5.269   2.116   1.607 -1.0086  1.1595  0.8453
 5662TIP3    H216993   5.269   2.234   1.513  2.6114 -0.4923 -1.4499
 5663TIP3   OH216994   4.807   1.912   3.896  0.1380  1.0419 -0.0340
 5663TIP3    H116995   4.770   1.895   3.810  1.5649 -0.9292 -0.3534
 5663TIP3    H216996   4.756   1.857   3.955  2.0271 -1.3368 -0.4129
 5664TIP3   OH216997   3.394   4.829   4.070 -0.0738  0.1629 -1.1173
 5664TIP3    H116998   3.392   4.831   4.165  0.2923 -1.6041 -1.0288
 5664TIP3    H216999   3.454   4.757   4.049 -0.8642 -0.0955 -2.6681
 5665TIP3   OH217000   0.903   2.583   5.111 -0.5744  0.1963 -0.5206
 5665TIP3    H117001   0.824   2.529   5.114 -0.0975 -0.5660 -1.3852
 5665TIP3    H217002   0.901   2.623   5.024  1.1890 -1.7280 -1.5407
 5666TIP3   OH217003   0.694   2.866   4.927  0.2307  0.0070 -0.5890
 5666TIP3    H117004   0.680   2.853   5.021  0.0637  0.1067 -0.5999
 5666TIP3    H217005   0.682   2.960   4.913 -1.1906 -0.2040 -0.9429
 5667TIP3   OH217006   4.338   5.368   2.673 -0.2383  0.5407  0.5746
 5667TIP3    H117007   4.283   5.295   2.644  1.3712 -0.7581  0.6306
 5667TIP3    H217008   4.317   5.439   2.613 -0.0510 -0.7678 -1.1570
 5668TIP3   OH217009   2.904   1.472   3.696  0.0942  0.3693  0.5949
 5668TIP3    H117010   2.830   1.431   3.740 -0.1627  0.7237  0.4926
 5668TIP3    H217011   2.865   1.536   3.637  0.4427  0.0332 -0.0131
 5669TIP3   OH217012   5.796   3.553   0.819 -0.9772  0.0536 -0.2373
 5669TIP3    H117013   5.716   3.541   0.870 -0.0173 -2.3612  0.8038
 5669TIP3    H217014   5.855   3.601   0.877 -0.1890 -1.9480  0.6882
 5670TIP3   OH217015   3.024   4.083   0.883  0.2416 -0.2307 -0.0709
 5670TIP3    H117016   3.029   4.047   0.795 -1.1526  0.4088 -0.4286
 5670TIP3    H217017   2.974   4.018   0.933 -0.4178  0.1910 -0.1773
 5671TIP3   OH217018   4.572   2.197   4.648 -0.0960  0.0485 -0.4200
 5671TIP3    H117019   4.567   2.271   4.587 -0.9855  0.1316 -0.2634
 5671TIP3    H217020   4.664   2.191   4.671 -0.0542  1.3614 -0.1492
 5672TIP3   OH217021   4.995   4.875   0.911  0.4601 -0.4806 -0.0846
 5672TIP3    H117022   5.000   4.964   0.946 -1.4306 -0.1331 -0.5646
 5672TIP3    H217023   4.902   4.852   0.920  0.7734 -2.0742 -0.7618
 5673TIP3   OH217024   3.367   2.885   4.514  0.4335 -0.1863  0.0525
 5673TIP3    H117025   3.417   2.866   4.593  0.2761 -0.2308  0.1423
 5673TIP3    H217026   3.323   2.968   4.533  1.2448  0.3581 -0.4013
 5674TIP3   OH217027   5.893   4.169   3.410 -0.1522 -0.1894  0.3038
 5674TIP3    H117028   5.958   4.131   3.469  1.7503  0.2713 -1.3482
 5674TIP3    H217029   5.925   4.258   3.394 -0.2098 -0.5011 -1.8511
 5675TIP3   OH217030   3.362   1.996   4.236 -0.0975 -0.1304 -0.0900
 5675TIP3    H117031   3.345   2.090   4.246  0.6166 -0.0631  0.6993
 5675TIP3    H217032   3.276   1.956   4.237 -0.4651  0.5877 -1.3555
 5676TIP3   OH217033   1.155   2.159   2.879 -0.7888  0.8235  0.1687
 5676TIP3    H117034   1.069   2.117   2.876 -0.5357  0.3468 -0.6191
 5676TIP3    H217035   1.188   2.153   2.789  0.8514 -0.6511  0.8027
 5677TIP3   OH217036   4.799   5.389   2.452 -0.0480 -0.7664 -0.3056
 5677TIP3    H117037   4.801   5.450   2.378  1.4954 -0.7176 -0.2556
 5677TIP3    H217038   4.827   5.441   2.527  0.6889 -1.3689 -0.1438
 5678TIP3   OH217039   5.549   4.313   0.696  0.1941 -0.1725  0.1648
 5678TIP3    H117040   5.632   4.318   0.742  0.9519  0.3837 -1.2126
 5678TIP3    H217041   5.538   4.400   0.656 -1.6087  0.1587  1.2272
 5679TIP3   OH217042   4.729   5.333   0.203  0.2298 -0.1380 -0.2697
 5679TIP3    H117043   4.707   5.248   0.165  0.8477 -1.3274  1.8535
 5679TIP3    H217044   4.669   5.343   0.277  1.5954  0.2134  0.8426
 5680TIP3   OH217045   5.499   0.689   1.545  0.4030 -0.5866 -0.7259
 5680TIP3    H117046   5.570   0.716   1.487 -0.3893 -0.6078 -1.7518
 5680TIP3    H217047   5.542   0.661   1.625  1.3845  2.6655  0.0504
 5681TIP3   OH217048   2.458   0.799   1.568  0.7140  0.4115 -0.0800
 5681TIP3    H117049   2.519   0.861   1.530 -0.8791  2.1940  0.1073
 5681TIP3    H217050   2.512   0.724   1.595  2.2924  0.4044 -2.9563
 5682TIP3   OH217051   0.093   0.378   3.224  0.3302 -0.9965  0.4555
 5682TIP3    H117052   0.133   0.386   3.137 -0.3649 -0.4809  0.1699
 5682TIP3    H217053   0.158   0.332   3.276  0.5627 -1.7679 -0.4782
 5683TIP3   OH217054   2.765   1.246   3.860  0.2466 -0.1452  0.4736
 5683TIP3    H117055   2.764   1.150   3.860 -1.5456 -0.2765  3.6194
 5683TIP3    H217056   2.680   1.270   3.823 -0.4647  0.0469  2.1266
 5684TIP3   OH217057   4.996   0.143   0.639 -0.4924  0.2866  0.1750
 5684TIP3    H117058   5.086   0.140   0.671 -0.0127  0.0137 -1.1183
 5684TIP3    H217059   4.944   0.104   0.708  0.6545 -1.4951  0.0893
 5685TIP3   OH217060   1.877   5.102   2.385 -0.2200  0.0005 -0.2508
 5685TIP3    H117061   1.937   5.168   2.420 -1.5437  0.5210  1.1417
 5685TIP3    H217062   1.822   5.078   2.459  0.2786 -2.7866 -0.6821
 5686TIP3   OH217063   4.693   2.576   4.571 -0.0611 -0.2933  0.1497
 5686TIP3    H117064   4.785   2.576   4.545 -0.4109 -1.3637 -1.2217
 5686TIP3    H217065   4.645   2.571   4.488 -1.3072 -1.5895  0.9064
 5687TIP3   OH217066   2.194   1.777   2.827  0.1767  0.1973 -0.0337
 5687TIP3    H117067   2.235   1.863   2.838  0.0283  0.3220 -0.4280
 5687TIP3    H217068   2.126   1.774   2.894  0.6173  0.1169  0.4154
 5688TIP3   OH217069   1.542   3.213   3.961 -0.3136  0.2259 -0.0537
 5688TIP3    H117070   1.590   3.172   3.890 -0.7696  0.7277 -0.6572
 5688TIP3    H217071   1.575   3.303   3.964  1.2784 -0.3405  1.7915
 5689TIP3   OH217072   5.909   5.198   2.925  0.1458  0.0395  0.3222
 5689TIP3    H117073   5.921   5.262   2.855 -0.3171  0.3805  0.5500
 5689TIP3    H217074   5.836   5.144   2.896  0.5991 -0.4499  0.0859
 5690TIP3   OH217075   2.376   2.552   2.992 -0.2057  0.1067  0.2656
 5690TIP3    H117076   2.449   2.519   2.940  0.6242 -0.8863  1.9901
 5690TIP3    H217077   2.343   2.626   2.942  0.2561 -1.0541 -1.8821
 5691TIP3   OH217078   5.369   0.629   2.701 -0.2399 -0.4640 -0.0702
 5691TIP3    H117079   5.368   0.722   2.726  0.2830 -0.2971 -0.6521
 5691TIP3    H217080   5.288   0.617   2.651 -0.7885 -0.5603  0.8157
 5692TIP3   OH217081   1.828   0.369   3.638 -0.1682  0.0415  0.2288
 5692TIP3    H117082   1.758   0.415   3.684  0.4150  0.5989  0.5726
 5692TIP3    H217083   1.829   0.282   3.679 -1.0215 -0.1616 -0.1658
 5693TIP3   OH217084   0.706   2.866   1.372  0.3323  0.0150  0.3874
 5693TIP3    H117085   0.783   2.833   1.324 -0.2218  1.3216 -1.5430
 5693TIP3    H217086   0.727   2.958   1.390 -0.7061  0.3424 -0.0288
 5694TIP3   OH217087   5.420   1.202   2.896  0.7951  0.0042 -0.0190
 5694TIP3    H117088   5.411   1.179   2.988  1.3101 -0.4110 -0.0705
 5694TIP3    H217089   5.513   1.221   2.884  0.8531 -0.5827 -0.5940
 5695TIP3   OH217090   0.468   4.045   1.383  0.3968  0.0002 -0.9770
 5695TIP3    H117091   0.419   3.975   1.424 -0.5486  0.9736 -0.4015
 5695TIP3    H217092   0.402   4.099   1.340  0.8560  1.6830  0.3269
 5696TIP3   OH217093   6.125   1.876   1.749 -0.4382 -0.3261  0.1492
 5696TIP3    H117094   6.101   1.803   1.692  0.4054 -0.5121  0.0304
 5696TIP3    H217095   6.192   1.841   1.807 -0.5837  0.1416  0.6061
 5697TIP3   OH217096   2.892   3.775   2.212 -0.0660  0.0378 -0.1934
 5697TIP3    H117097   2.840   3.854   2.201  1.1767  0.8171 -0.6939
 5697TIP3    H217098   2.935   3.786   2.297  1.4772  0.7684 -1.0214
 5698TIP3   OH217099   2.987   4.858   2.422 -0.3637 -0.1660 -0.1041
 5698TIP3    H117100   3.073   4.817   2.430 -0.8253 -0.8048  2.4799
 5698TIP3    H217101   3.006   4.950   2.404  0.7212 -0.8229 -2.9772
 5699TIP3   OH217102   0.882   2.513   2.739  1.0011  0.4276  0.1107
 5699TIP3    H117103   0.797   2.509   2.697  0.5147  0.0777  1.0900
 5699TIP3    H217104   0.877   2.590   2.796  1.4108  0.5271  0.0145
 5700TIP3   OH217105   0.330   2.207   3.346 -0.5848 -0.1378  0.3647
 5700TIP3    H117106   0.365   2.236   3.262  0.1194 -0.6903  0.4630
 5700TIP3    H217107   0.390   2.244   3.411 -1.7506  1.2265  0.7090
 5701TIP3   OH217108   3.254   5.034   3.773  0.6969  0.4040 -0.0073
 5701TIP3    H117109   3.326   5.023   3.836  0.7003 -0.9664 -0.2225
 5701TIP3    H217110   3.293   5.013   3.688  0.0750 -0.2611 -0.1357
 5702TIP3   OH217111   0.134   0.769   4.400 -0.2734 -0.2243 -0.4853
 5702TIP3    H117112   0.107   0.850   4.356 -1.0907 -0.8185 -1.1189
 5702TIP3    H217113   0.113   0.700   4.337  0.5183 -0.9234 -0.0029
 5703TIP3   OH217114   5.152   3.584   4.776  0.3591 -0.2698  0.2253
 5703TIP3    H117115   5.068   3.541   4.787  0.7571 -1.3918 -0.8534
 5703TIP3    H217116   5.195   3.535   4.706  1.0119  1.6610 -0.7814
 5704TIP3   OH217117   4.731   5.260   1.090 -0.2521  0.0815 -0.3309
 5704TIP3    H117118   4.732   5.322   1.163  1.0788 -0.5048  0.1747
 5704TIP3    H217119   4.638   5.251   1.068 -0.6770  0.2862  1.2777
 5705TIP3   OH217120   4.679   2.492   2.922  0.5235  0.4461 -0.2233
 5705TIP3    H117121   4.660   2.531   2.837  0.9398  0.3650 -0.3549
 5705TIP3    H217122   4.668   2.398   2.909  0.5008  0.4397 -0.1612
 5706TIP3   OH217123   4.002   5.700   3.465  0.0042 -0.0422 -0.8532
 5706TIP3    H117124   3.938   5.771   3.474 -0.7324 -0.7543 -0.2893
 5706TIP3    H217125   4.050   5.699   3.547  0.3235  0.0957 -1.0378
 5707TIP3   OH217126   5.012   4.605   1.013 -0.1017 -0.0869  0.2892
 5707TIP3    H117127   5.100   4.596   1.050 -0.5045 -2.4007  0.8106
 5707TIP3    H217128   5.017   4.686   0.960  2.1467  0.1520  0.7510
 5708TIP3   OH217129   5.486   5.446   1.409  0.4632 -0.1518 -0.1361
 5708TIP3    H117130   5.471   5.355   1.381 -3.0608  0.7330 -1.7330
 5708TIP3    H217131   5.456   5.448   1.500  0.2996 -0.5271 -0.1798
 5709TIP3   OH217132   1.270   1.734   1.959 -0.3417 -0.0156 -0.3543
 5709TIP3    H117133   1.285   1.688   2.042  2.1166  0.7460 -0.2745
 5709TIP3    H217134   1.175   1.742   1.953 -0.6177  0.6435  2.8153
 5710TIP3   OH217135   4.538   5.339   4.836 -0.7258  0.0769  0.4158
 5710TIP3    H117136   4.502   5.361   4.922  1.2023  2.2784  0.7818
 5710TIP3    H217137   4.480   5.271   4.802 -3.1356  1.0345  2.2984
 5711TIP3   OH217138   2.380   0.540   3.588 -0.4212  0.3203 -0.1599
 5711TIP3    H117139   2.448   0.509   3.647  0.1028 -0.1119 -0.9724
 5711TIP3    H217140   2.300   0.496   3.618 -0.2947  0.6249  0.6325
 5712TIP3   OH217141   0.394   4.770   0.624  0.0923  0.1835 -0.0866
 5712TIP3    H117142   0.387   4.803   0.534  1.1085 -0.2443 -0.3375
 5712TIP3    H217143   0.322   4.812   0.671 -1.1554 -0.4487 -1.3634
 5713TIP3   OH217144   2.588   2.666   2.037  0.2529  0.0176  0.4677
 5713TIP3    H117145   2.641   2.635   2.111  0.8320 -1.8033 -0.6250
 5713TIP3    H217146   2.642   2.733   1.995  0.4067  0.2558  1.0332
 5714TIP3   OH217147   1.757   3.637   3.241 -0.1074 -0.0595  0.1373
 5714TIP3    H117148   1.847   3.664   3.222  0.8291 -2.0982  1.2394
 5714TIP3    H217149   1.744   3.660   3.333 -1.5600  2.1727 -0.5503
 5715TIP3   OH217150   2.889   0.966   4.724  0.2141  0.5827  0.5155
 5715TIP3    H117151   2.980   0.978   4.752 -0.0319 -0.1499  1.7078
 5715TIP3    H217152   2.895   0.952   4.630  1.5366 -1.1218  0.7854
 5716TIP3   OH217153   1.183   0.988   0.579 -0.3071  0.6490  0.5453
 5716TIP3    H117154   1.205   0.956   0.666 -1.9966  0.8308  1.0784
 5716TIP3    H217155   1.103   1.038   0.591  0.0683  1.6797 -0.9347
 5717TIP3   OH217156   1.433   3.169   1.578  0.1754 -0.1751 -0.8953
 5717TIP3    H117157   1.478   3.178   1.494 -0.1111 -0.7670 -1.1190
 5717TIP3    H217158   1.369   3.100   1.563  0.4918 -0.6629 -0.0295
 5718TIP3   OH217159   1.643   4.698   2.176  0.3503  0.5328 -0.1330
 5718TIP3    H117160   1.599   4.621   2.212  2.9857 -1.2245 -0.3891
 5718TIP3    H217161   1.612   4.703   2.085  1.0141 -1.0199 -0.4825
 5719TIP3   OH217162   2.942   5.057   3.405  0.1045 -0.1369  0.2452
 5719TIP3    H117163   2.985   5.029   3.486  0.8619  1.3403  0.3830
 5719TIP3    H217164   2.932   4.977   3.354  2.1724 -0.6873  0.6178
 5720TIP3   OH217165   5.292   3.600   2.015 -0.7928 -0.2390 -0.1998
 5720TIP3    H117166   5.317   3.691   2.004 -0.2648 -0.2254  0.9527
 5720TIP3    H217167   5.318   3.579   2.105  1.0013 -2.1386 -1.0887
 5721TIP3   OH217168   0.968   3.037   2.606  0.2677 -0.1071  0.2650
 5721TIP3    H117169   0.977   3.128   2.577 -1.9210  0.4513  1.1159
 5721TIP3    H217170   1.005   2.986   2.534 -0.9031  1.3654 -1.4925
 5722TIP3   OH217171   3.018   1.909   2.314  0.4579  0.1407 -0.3530
 5722TIP3    H117172   2.947   1.972   2.323 -0.1082 -0.5877  0.5395
 5722TIP3    H217173   3.032   1.901   2.220 -0.9722 -0.0417 -0.5719
 5723TIP3   OH217174   3.789   3.343   2.248 -0.4761  0.0692 -0.1638
 5723TIP3    H117175   3.709   3.343   2.195 -0.1642 -0.8924 -0.6551
 5723TIP3    H217176   3.757   3.346   2.339 -1.0590  0.1742 -0.3670
 5724TIP3   OH217177   3.369   5.197   4.209 -0.6235  0.4770  0.0830
 5724TIP3    H117178   3.398   5.159   4.292  0.2865 -0.5252 -0.6660
 5724TIP3    H217179   3.412   5.283   4.205 -0.4834  0.4277  0.5399
 5725TIP3   OH217180   3.448   3.030   4.956 -0.0766  0.2982  0.6565
 5725TIP3    H117181   3.467   3.088   5.030 -2.1555  2.3954 -0.3204
 5725TIP3    H217182   3.352   3.020   4.959 -0.1329 -0.1040 -1.3443
 5726TIP3   OH217183   2.194   4.677   4.127 -0.1196 -0.5795 -0.0797
 5726TIP3    H117184   2.190   4.583   4.107 -1.2134 -0.9986  1.8506
 5726TIP3    H217185   2.264   4.710   4.070  0.6800 -2.6468 -0.4171
 5727TIP3   OH217186   4.513   0.987   3.882 -0.0195 -0.6303 -0.0889
 5727TIP3    H117187   4.492   0.952   3.796 -0.6557 -0.0465 -0.1800
 5727TIP3    H217188   4.600   1.025   3.872  1.0017 -2.7431  0.1935
 5728TIP3   OH217189   1.009   4.390   0.695  0.4842 -0.4595  0.8023
 5728TIP3    H117190   1.086   4.446   0.683  0.2266 -0.0291  1.1523
 5728TIP3    H217191   0.994   4.351   0.609  0.9379 -0.3448  0.6694
 5729TIP3   OH217192   5.837   1.056   2.999 -0.4607 -0.0277  0.4065
 5729TIP3    H117193   5.810   1.146   3.016  1.9900  0.6516  1.2600
 5729TIP3    H217194   5.796   1.033   2.916  1.6989  3.2849 -1.8463
 5730TIP3   OH217195   0.282   4.780   1.646 -0.4125  0.2531  0.0476
 5730TIP3    H117196   0.368   4.782   1.687 -0.7939 -0.6723  0.9299
 5730TIP3    H217197   0.249   4.692   1.664 -1.1803  0.2945 -1.0465
 5731TIP3   OH217198   5.986   1.385   2.761  0.0788 -0.3714  0.5526
 5731TIP3    H117199   6.033   1.371   2.679  1.6100  0.7839  1.1935
 5731TIP3    H217200   5.931   1.462   2.745 -0.0095 -0.4543  0.4552
 5732TIP3   OH217201   4.325   5.839   3.799  0.8624  0.4435  0.2851
 5732TIP3    H117202   4.361   5.888   3.726  0.7244  2.2173  1.3447
 5732TIP3    H217203   4.375   5.869   3.875 -0.0867 -0.1176  1.1612
 5733TIP3   OH217204   6.191   3.331   2.599  0.5207 -0.2439 -0.2236
 5733TIP3    H117205   6.280   3.349   2.629  0.7856 -0.8333 -0.6415
 5733TIP3    H217206   6.182   3.236   2.606  0.3240 -0.3099 -1.2750
 5734TIP3   OH217207   5.563   0.288   3.743 -0.0139 -0.4568 -0.8545
 5734TIP3    H117208   5.631   0.348   3.712  0.1064 -0.6028 -0.8786
 5734TIP3    H217209   5.519   0.257   3.663 -1.3539  1.0656 -0.7453
 5735TIP3   OH217210   1.301   2.641   2.954 -0.0285 -0.0385  0.4237
 5735TIP3    H117211   1.305   2.725   2.908  0.2420 -0.2226  0.1113
 5735TIP3    H217212   1.391   2.608   2.953 -0.3262 -0.8461 -0.4073
 5736TIP3   OH217213   3.520   5.293   1.331 -0.1972  0.0739 -0.5697
 5736TIP3    H117214   3.538   5.227   1.264 -0.9332 -1.2384  0.4780
 5736TIP3    H217215   3.442   5.260   1.377  0.1588  1.0430  0.7872
 5737TIP3   OH217216   3.372   3.669   2.169 -0.1475 -0.3249  0.0947
 5737TIP3    H117217   3.308   3.728   2.130 -0.8674 -1.3670 -0.3432
 5737TIP3    H217218   3.330   3.636   2.248  1.0379  1.2469  1.4315
 5738TIP3   OH217219   5.870   0.108   5.034  0.2210 -0.3608 -0.2339
 5738TIP3    H117220   5.787   0.064   5.053 -0.7239  1.7851  1.0309
 5738TIP3    H217221   5.935   0.063   5.088 -0.4772 -0.8956  0.1713
 5739TIP3   OH217222   6.342   1.294   0.706 -0.2085 -0.0604 -0.3608
 5739TIP3    H117223   6.373   1.385   0.696 -1.5387  0.4945  0.3466
 5739TIP3    H217224   6.259   1.302   0.752  0.8614 -1.8074  2.0642
 5740TIP3   OH217225   4.746   5.150   1.846 -0.2810 -0.3410 -0.7503
 5740TIP3    H117226   4.787   5.202   1.916 -0.5408  0.4672 -1.1866
 5740TIP3    H217227   4.809   5.151   1.775 -0.3260 -0.5569 -0.7941
 5741TIP3   OH217228   3.131   1.130   4.617 -0.3782  0.6844  0.0081
 5741TIP3    H117229   3.162   1.103   4.531 -0.2324  1.6555 -0.2659
 5741TIP3    H217230   3.206   1.117   4.675  0.0240  1.4286 -0.3202
 5742TIP3   OH217231   1.898   0.112   4.222  0.5614  0.3280 -0.1408
 5742TIP3    H117232   1.805   0.131   4.237  0.1712  0.6303 -2.5269
 5742TIP3    H217233   1.938   0.197   4.207  1.0608  0.1216 -0.0131
 5743TIP3   OH217234   4.124   5.353   0.880 -0.2301  0.3289  0.0017
 5743TIP3    H117235   4.076   5.328   0.802  1.3844  1.8692 -1.5858
 5743TIP3    H217236   4.182   5.278   0.898 -1.2544 -0.4049  0.3045
 5744TIP3   OH217237   3.519   1.598   3.940  0.1645  0.1937  0.3879
 5744TIP3    H117238   3.465   1.629   3.867 -0.4141 -1.0233  0.2704
 5744TIP3    H217239   3.493   1.653   4.014  1.5326  2.1830 -0.5132
 5745TIP3   OH217240   4.220   2.295   1.718  0.2590 -0.1198  0.0706
 5745TIP3    H117241   4.165   2.249   1.781  0.3031 -0.9887 -0.5079
 5745TIP3    H217242   4.288   2.336   1.771 -0.6309  0.5318  0.7402
 5746TIP3   OH217243   1.494   4.526   1.328  0.4306  0.1237 -0.4401
 5746TIP3    H117244   1.419   4.468   1.317  1.0599 -0.7786 -0.0995
 5746TIP3    H217245   1.489   4.556   1.418  0.2574  0.3831 -0.5357
 5747TIP3   OH217246   2.034   2.006   1.418  0.2474 -0.4069  0.3501
 5747TIP3    H117247   1.971   1.957   1.471 -1.6302  2.9460  1.5639
 5747TIP3    H217248   2.056   1.947   1.346 -4.2597 -1.9518 -0.1114
 5748TIP3   OH217249   0.150   2.680   2.531  0.2327  0.7779 -0.2782
 5748TIP3    H117250   0.152   2.585   2.522  1.7266  0.6216  1.1644
 5748TIP3    H217251   0.144   2.713   2.442  0.5529 -0.6558 -0.8544
 5749TIP3   OH217252   1.996   5.347   2.470 -0.1321 -0.1303 -0.0999
 5749TIP3    H117253   1.981   5.394   2.553 -0.7808  1.8788 -1.2920
 5749TIP3    H217254   2.091   5.347   2.460 -0.0584 -0.2205  0.5515
 5750TIP3   OH217255   5.908   4.673   3.675 -0.2266  0.6020  0.5176
 5750TIP3    H117256   5.891   4.629   3.592  0.8425 -1.5764  1.3657
 5750TIP3    H217257   5.830   4.725   3.692 -0.3116  1.3974 -1.9984
 5751TIP3   OH217258   5.151   5.946   4.125 -0.3822  0.7529 -0.1060
 5751TIP3    H117259   5.068   5.913   4.160 -0.3495  0.6235 -0.1520
 5751TIP3    H217260   5.125   6.010   4.058 -0.4522 -0.2675 -1.0819
 5752TIP3   OH217261   3.199   2.333   1.858 -0.0207  0.4511  0.4579
 5752TIP3    H117262   3.126   2.300   1.910  1.6594 -0.6876  2.2601
 5752TIP3    H217263   3.202   2.275   1.782 -1.0150  0.5595  0.3214
 5753TIP3   OH217264   0.725   4.928   1.463 -0.2835 -0.1577  0.3747
 5753TIP3    H117265   0.754   4.945   1.373  0.2993 -1.9979  0.1742
 5753TIP3    H217266   0.805   4.908   1.511 -0.8320 -2.0001  0.6044
 5754TIP3   OH217267   1.655   0.116   1.866 -0.7102  0.2907  0.2692
 5754TIP3    H117268   1.688   0.073   1.787 -0.5994  0.3002  0.3113
 5754TIP3    H217269   1.577   0.066   1.890  0.2420 -0.8016  1.1859
 5755TIP3   OH217270   4.655   5.373   4.534  0.2371 -0.3311 -0.3040
 5755TIP3    H117271   4.735   5.422   4.556  1.1804 -1.3516 -1.3606
 5755TIP3    H217272   4.652   5.303   4.599 -0.0687 -0.0126  0.0288
 5756TIP3   OH217273   5.297   5.255   4.726 -0.0377  0.0739  0.3832
 5756TIP3    H117274   5.371   5.292   4.775  0.3860 -0.6090  0.2805
 5756TIP3    H217275   5.258   5.330   4.681  0.9780  0.3587 -0.0554
 5757TIP3   OH217276   4.200   2.774   4.251  0.1689 -0.0096  0.5326
 5757TIP3    H117277   4.199   2.737   4.339 -1.7720 -0.8157  0.2418
 5757TIP3    H217278   4.205   2.697   4.193 -1.0429  0.3253 -0.0528
 5758TIP3   OH217279   6.192   0.580   2.640 -0.1416 -0.0498  0.5099
 5758TIP3    H117280   6.218   0.609   2.727 -0.5452  0.7031  0.3850
 5758TIP3    H217281   6.115   0.525   2.655  0.3690 -0.7306  0.7060
 5759TIP3   OH217282   6.232   1.027   3.964  0.1767  0.4635  0.7602
 5759TIP3    H117283   6.296   0.962   3.938 -0.0225 -0.0853  1.6023
 5759TIP3    H217284   6.281   1.109   3.967  0.7421  0.1228  0.9941
 5760TIP3   OH217285   5.508   3.842   2.884  0.1927  0.3261  0.1965
 5760TIP3    H117286   5.539   3.910   2.824 -0.1167 -0.2045 -0.5743
 5760TIP3    H217287   5.415   3.835   2.867 -0.2341  1.3081  1.9104
 5761TIP3   OH217288   3.022   0.300   0.244  0.3147  0.5533  0.0011
 5761TIP3    H117289   3.085   0.261   0.304  0.3404  1.4457  0.5699
 5761TIP3    H217290   3.064   0.295   0.158  0.5204 -0.2004  0.1340
 5762TIP3   OH217291   2.991   4.336   2.551  0.0011 -0.2021  0.1189
 5762TIP3    H117292   2.953   4.253   2.523 -1.2005 -0.4504  2.2026
 5762TIP3    H217293   2.951   4.401   2.493 -0.4920 -0.8987 -0.3473
 5763TIP3   OH217294   1.907   0.159   4.606  0.3263 -0.0715 -0.4657
 5763TIP3    H117295   1.915   0.246   4.644 -0.2674 -0.0398 -0.4000
 5763TIP3    H217296   1.813   0.148   4.591  0.2894 -1.0764  0.3996
 5764TIP3   OH217297   5.205   3.600   1.576  0.2738 -0.3374  0.5371
 5764TIP3    H117298   5.158   3.682   1.593 -1.1467 -0.7369 -1.1173
 5764TIP3    H217299   5.286   3.628   1.532 -1.6677  0.2108 -3.1128
 5765TIP3   OH217300   2.855   4.938   2.683  0.1330  0.3721 -0.1407
 5765TIP3    H117301   2.932   4.971   2.637 -0.5295  1.7552 -0.3286
 5765TIP3    H217302   2.822   4.867   2.628  0.4980  0.6790 -0.7642
 5766TIP3   OH217303   3.162   0.015   1.352 -0.0112  0.3379 -0.3619
 5766TIP3    H117304   3.253   0.043   1.345 -0.6437  2.4304 -0.9904
 5766TIP3    H217305   3.143  -0.025   1.267  0.6877 -1.4026  0.2698
 5767TIP3   OH217306   4.295   4.338   2.813 -0.5522 -0.2757 -0.2352
 5767TIP3    H117307   4.317   4.309   2.724 -0.1260  0.7863 -0.4929
 5767TIP3    H217308   4.201   4.355   2.810 -0.5660 -0.3885 -0.4452
 5768TIP3   OH217309   2.920   3.574   3.223 -0.2220 -0.0748 -0.3465
 5768TIP3    H117310   2.964   3.648   3.182 -0.7109 -0.0530 -0.8406
 5768TIP3    H217311   2.914   3.508   3.154  0.7051 -0.7940  0.2455
 5769TIP3   OH217312   0.416   1.292   1.668 -0.0725  0.1389 -0.0016
 5769TIP3    H117313   0.506   1.316   1.689 -0.4694  2.0834 -0.3482
 5769TIP3    H217314   0.364   1.334   1.737 -0.7493 -0.6046 -0.0557
 5770TIP3   OH217315   3.760   0.364   3.860  0.3309 -0.0182 -0.2777
 5770TIP3    H117316   3.668   0.383   3.878  0.2320  2.0276 -2.4623
 5770TIP3    H217317   3.788   0.309   3.933 -1.8060  1.7220  2.0187
 5771TIP3   OH217318   5.576   2.413   2.628  0.4556  0.4025 -0.6974
 5771TIP3    H117319   5.616   2.326   2.619 -0.4432  0.0363 -1.3386
 5771TIP3    H217320   5.545   2.416   2.718  1.8311  0.6693 -0.2030
 5772TIP3   OH217321   0.482   2.225   2.599 -0.1846  0.9470 -0.2201
 5772TIP3    H117322   0.540   2.223   2.523 -0.9936  0.5850 -0.8476
 5772TIP3    H217323   0.529   2.176   2.666  1.7351  3.5343  0.4515
 5773TIP3   OH217324   1.680   3.040   0.431  0.4539  0.4778  0.1379
 5773TIP3    H117325   1.664   3.052   0.337 -0.8426  1.2575  0.4454
 5773TIP3    H217326   1.594   3.031   0.469  0.9779  0.1181  1.2662
 5774TIP3   OH217327   4.408   3.982   2.174  0.3460  0.1836 -0.3240
 5774TIP3    H117328   4.420   3.894   2.138  0.7975 -0.1838  0.6885
 5774TIP3    H217329   4.494   4.007   2.206 -0.1882  0.1567  1.2140
 5775TIP3   OH217330   5.502   2.271   3.955 -0.2647  0.1680 -0.1561
 5775TIP3    H117331   5.424   2.271   3.901 -0.4784 -3.8272 -0.1627
 5775TIP3    H217332   5.575   2.270   3.893 -0.3263  0.5569 -0.2344
 5776TIP3   OH217333   6.194   2.664   3.550 -0.1787 -0.3821 -0.2939
 5776TIP3    H117334   6.147   2.706   3.622  1.2517  2.1342 -0.7239
 5776TIP3    H217335   6.124   2.632   3.492 -1.3682  0.7028  0.4826
 5777TIP3   OH217336   5.274   0.141   3.347  0.6276  0.0436 -0.4780
 5777TIP3    H117337   5.281   0.230   3.311  0.7248  0.0382 -0.4726
 5777TIP3    H217338   5.226   0.092   3.280  1.2965 -0.1060 -0.8569
 5778TIP3   OH217339   1.712   5.745   2.275 -0.7267 -0.0240  0.5491
 5778TIP3    H117340   1.729   5.776   2.186  0.1155  2.2372  1.4369
 5778TIP3    H217341   1.758   5.661   2.280 -0.6068 -0.0790 -1.0695
 5779TIP3   OH217342   2.884   5.426   2.905  0.3021  0.5007 -0.1859
 5779TIP3    H117343   2.804   5.387   2.939  1.3590 -0.0907  1.7661
 5779TIP3    H217344   2.887   5.397   2.813  0.4668 -3.2248  0.8119
 5780TIP3   OH217345   1.960   1.065   0.278  0.0962 -0.0821  0.3167
 5780TIP3    H117346   2.002   1.138   0.235  1.1630  0.0464  1.5157
 5780TIP3    H217347   2.014   1.048   0.355  1.0788 -3.4221 -0.9345
 5781TIP3   OH217348   4.884   0.580   1.057  0.4029 -0.7737  0.1547
 5781TIP3    H117349   4.962   0.611   1.103  0.5246  1.3193 -1.2951
 5781TIP3    H217350   4.858   0.500   1.103  1.5307  0.2101  2.6666
 5782TIP3   OH217351   3.351   5.117   2.248  0.4464  0.0060 -0.0999
 5782TIP3    H117352   3.412   5.049   2.275 -0.4212 -0.4396  0.8185
 5782TIP3    H217353   3.275   5.104   2.305  0.2871  1.7791  0.1335
 5783TIP3   OH217354   4.654   2.574   3.389 -0.1186 -0.1517 -0.1603
 5783TIP3    H117355   4.629   2.568   3.482 -0.0742  0.5916 -0.0930
 5783TIP3    H217356   4.571   2.576   3.342 -0.1632 -2.5311 -0.3122
 5784TIP3   OH217357   4.356   1.669   3.527  0.0683  0.1229 -0.0798
 5784TIP3    H117358   4.376   1.652   3.619  0.4015  1.2029  0.0656
 5784TIP3    H217359   4.391   1.594   3.480  0.7267 -0.0022  0.5936
 5785TIP3   OH217360   1.988   1.711   0.541 -0.1653  0.0815 -0.9785
 5785TIP3    H117361   1.932   1.636   0.520  1.5724 -0.8827 -2.4610
 5785TIP3    H217362   2.068   1.672   0.576 -0.2212  1.4179  0.7930
 5786TIP3   OH217363   4.321   4.972   0.420  0.2534  0.3908  0.0320
 5786TIP3    H117364   4.406   5.001   0.455  0.5804  0.7606 -1.0363
 5786TIP3    H217365   4.329   4.876   0.417  0.9395  0.4590 -0.7860
 5787TIP3   OH217366   2.038   5.809   4.256 -0.4550  0.1061 -0.0571
 5787TIP3    H117367   1.953   5.787   4.293 -0.7991  0.3195 -0.7111
 5787TIP3    H217368   2.018   5.863   4.180  0.3171  1.6774  0.8092
 5788TIP3   OH217369   4.318   2.961   3.138  0.5182 -0.0138 -0.1738
 5788TIP3    H117370   4.309   2.885   3.196 -0.2948 -0.0224 -0.2907
 5788TIP3    H217371   4.351   2.925   3.056 -2.2510 -0.7104 -1.1036
 5789TIP3   OH217372   0.074   5.600   0.476  0.0940  0.8886 -0.1199
 5789TIP3    H117373   0.020   5.666   0.435  0.6177  0.1660 -2.0988
 5789TIP3    H217374   0.013   5.530   0.501 -0.0930  0.7773 -0.8688
 5790TIP3   OH217375   1.434   4.557   0.330  0.0717 -0.1084 -0.0343
 5790TIP3    H117376   1.372   4.561   0.257 -0.5944  0.6714  0.5464
 5790TIP3    H217377   1.390   4.606   0.400  0.6719 -0.8903  0.9041
 5791TIP3   OH217378   2.887   4.926   0.714 -0.1572  0.1245  0.1230
 5791TIP3    H117379   2.906   4.833   0.714 -1.4647 -0.1665 -0.3426
 5791TIP3    H217380   2.881   4.949   0.807  2.0218  0.1903  0.2997
 5792TIP3   OH217381   5.511   1.708   0.843 -0.1048  0.0321 -0.3157
 5792TIP3    H117382   5.461   1.704   0.761 -0.2116 -1.2883 -0.2078
 5792TIP3    H217383   5.499   1.797   0.874 -0.3608  0.4489 -1.5611
 5793TIP3   OH217384   2.638   1.026   2.097  0.2732  0.0300  0.1235
 5793TIP3    H117385   2.638   1.032   2.193  0.0075 -0.6673  0.1720
 5793TIP3    H217386   2.722   0.984   2.075 -0.2741 -1.1211  0.1529
 5794TIP3   OH217387   0.156   5.045   1.580 -0.1668  1.0685  0.0870
 5794TIP3    H117388   0.214   4.971   1.565 -0.5524  0.7714  0.0596
 5794TIP3    H217389   0.216   5.118   1.598  0.4169  1.5655 -3.1772
 5795TIP3   OH217390   5.725   2.044   4.768 -0.3154  0.7376  0.3029
 5795TIP3    H117391   5.652   2.093   4.805 -1.7042 -1.4497  0.6794
 5795TIP3    H217392   5.702   2.033   4.675 -0.2807  0.3865  0.3331
 5796TIP3   OH217393   5.180   2.232   2.356 -0.0503 -0.5596 -0.0776
 5796TIP3    H117394   5.159   2.289   2.430  0.8309 -0.4584  0.1063
 5796TIP3    H217395   5.272   2.250   2.337 -0.4548 -0.0448 -1.6836
 5797TIP3   OH217396   4.871   0.199   2.049  0.4070  0.2531 -0.0627
 5797TIP3    H117397   4.834   0.271   1.998  0.6431  1.3796  1.2916
 5797TIP3    H217398   4.959   0.229   2.071  0.9598 -0.9958 -0.4984
 5798TIP3   OH217399   4.370   3.066   3.779 -0.1365  0.2962 -0.0633
 5798TIP3    H117400   4.438   3.132   3.768  1.2748 -1.2406 -1.1363
 5798TIP3    H217401   4.329   3.059   3.693 -0.9350  0.4463  0.2949
 5799TIP3   OH217402   0.767   3.317   4.067  0.0883  0.2407 -0.6518
 5799TIP3    H117403   0.698   3.371   4.105 -1.3383 -0.4740 -2.0989
 5799TIP3    H217404   0.728   3.230   4.060  2.1578 -0.9508  1.1571
 5800TIP3   OH217405   0.830   1.586   4.868 -0.5398 -0.3488 -0.0972
 5800TIP3    H117406   0.905   1.535   4.896  1.0745  1.4736 -0.8569
 5800TIP3    H217407   0.767   1.579   4.940  0.7328 -1.1622  0.9740
 5801TIP3   OH217408   2.076   2.452   1.845 -0.0576  0.0512  0.1042
 5801TIP3    H117409   2.166   2.423   1.831  0.1292  0.8988 -0.5432
 5801TIP3    H217410   2.063   2.443   1.939  0.3930 -0.9448  0.0826
 5802TIP3   OH217411   6.245   0.902   4.970 -0.2398 -0.7775 -0.0955
 5802TIP3    H117412   6.328   0.949   4.975 -0.3209 -0.7432  1.4965
 5802TIP3    H217413   6.258   0.825   5.025 -1.3499 -0.6143  0.4195
 5803TIP3   OH217414   1.404   2.239   5.033 -0.4461 -0.2321  0.0254
 5803TIP3    H117415   1.318   2.265   5.066 -0.3079  1.0917 -0.5806
 5803TIP3    H217416   1.406   2.144   5.042 -1.2291 -0.1174  1.8232
 5804TIP3   OH217417   5.488   2.863   4.478 -0.3348  0.4823 -0.8151
 5804TIP3    H117418   5.562   2.855   4.538 -0.6992  1.7618 -0.1646
 5804TIP3    H217419   5.421   2.909   4.529 -0.2758  2.5582 -2.4904
 5805TIP3   OH217420   4.107   3.632   3.741 -0.6509  0.5571  0.4050
 5805TIP3    H117421   4.193   3.672   3.736 -0.9403  1.3467  1.3292
 5805TIP3    H217422   4.106   3.567   3.670  0.6503  0.6060  0.3151
 5806TIP3   OH217423   4.640   3.822   0.116 -0.2817  0.2948  0.1075
 5806TIP3    H117424   4.570   3.887   0.123  0.6585  1.1927  1.8739
 5806TIP3    H217425   4.662   3.820   0.023 -0.9514  1.8363 -0.1115
 5807TIP3   OH217426   1.681   1.802   0.634 -0.3195 -0.0894  0.1572
 5807TIP3    H117427   1.664   1.738   0.565  0.4299 -0.1428  0.0167
 5807TIP3    H217428   1.596   1.843   0.650 -0.0282  1.8860 -2.7277
 5808TIP3   OH217429   5.583   3.073   1.644 -0.1145  0.4011 -0.4308
 5808TIP3    H117430   5.489   3.057   1.650 -0.1170 -0.4301 -1.9706
 5808TIP3    H217431   5.605   3.052   1.553  1.9246 -1.4796  0.4010
 5809TIP3   OH217432   4.362   3.257   4.372 -0.7022  0.3000 -0.0502
 5809TIP3    H117433   4.320   3.342   4.367 -0.3070  0.4286 -1.9494
 5809TIP3    H217434   4.294   3.195   4.346 -0.4471  0.2470 -0.6062
 5810TIP3   OH217435   4.976   3.189   3.005 -0.0656 -0.5681 -0.3680
 5810TIP3    H117436   5.010   3.163   2.920  0.8399 -2.8128  0.5994
 5810TIP3    H217437   4.892   3.144   3.013 -0.0264 -0.5800  0.0328
 5811TIP3   OH217438   1.372   5.849   3.229  0.4807  0.0753  0.4469
 5811TIP3    H117439   1.369   5.944   3.246 -1.0154  0.3733 -1.1437
 5811TIP3    H217440   1.292   5.832   3.180  1.9592 -1.5621 -1.5553
 5812TIP3   OH217441   2.490   5.798   1.409  0.2217 -0.1160 -0.7494
 5812TIP3    H117442   2.565   5.740   1.406 -0.4461 -1.0410 -0.1333
 5812TIP3    H217443   2.448   5.779   1.493 -0.3430  0.8435 -0.7900
 5813TIP3   OH217444   0.908   0.457   3.253 -0.0537  0.1087  0.1795
 5813TIP3    H117445   0.903   0.458   3.158 -0.4770  0.1681  0.2012
 5813TIP3    H217446   0.873   0.541   3.280 -1.0511 -0.3700  0.4322
 5814TIP3   OH217447   4.663   2.885   1.572  0.6187  0.2083  0.8613
 5814TIP3    H117448   4.615   2.965   1.594  0.4640  0.8307 -1.5187
 5814TIP3    H217449   4.598   2.828   1.530  1.2733 -0.1911  0.3675
 5815TIP3   OH217450   2.524   1.907   2.775 -0.0464  0.1831 -0.1519
 5815TIP3    H117451   2.475   1.915   2.857 -0.7863 -2.5378 -0.2378
 5815TIP3    H217452   2.608   1.869   2.801 -1.0304 -2.6370 -0.7391
 5816TIP3   OH217453   4.214   1.731   2.252  0.5438  0.0077 -0.3297
 5816TIP3    H117454   4.287   1.696   2.304 -0.2488  0.1468  0.9196
 5816TIP3    H217455   4.209   1.823   2.278 -0.1409 -0.0313 -0.3159
 5817TIP3   OH217456   1.775   0.419   2.132 -0.1747  0.1659  0.5277
 5817TIP3    H117457   1.689   0.425   2.091 -0.6581 -1.9279  1.1289
 5817TIP3    H217458   1.808   0.332   2.107  1.3466  0.5367  1.1074
 5818TIP3   OH217459   4.543   5.405   4.293  0.3495 -0.4600 -0.3606
 5818TIP3    H117460   4.580   5.393   4.380 -1.6115 -3.2762  0.2143
 5818TIP3    H217461   4.593   5.346   4.237 -0.9145 -1.6650 -0.2711
 5819TIP3   OH217462   2.739   3.081   3.509 -0.0738  0.3063 -0.3155
 5819TIP3    H117463   2.742   2.994   3.468 -1.0775  0.2318 -0.2776
 5819TIP3    H217464   2.715   3.063   3.600 -1.0715  0.6464 -0.4896
 5820TIP3   OH217465   5.216   3.353   4.218  0.7039 -0.3685 -0.0142
 5820TIP3    H117466   5.155   3.285   4.188  0.8177 -0.8138  0.7179
 5820TIP3    H217467   5.254   3.389   4.139 -0.3126 -0.2735 -0.4808
 5821TIP3   OH217468   1.951   5.901   3.337 -0.1038 -0.3150  0.0211
 5821TIP3    H117469   2.039   5.874   3.313 -0.2057 -0.6962  0.0601
 5821TIP3    H217470   1.956   5.921   3.430 -0.0673 -0.3752  0.0318
 5822TIP3   OH217471   0.452   3.328   3.078 -0.1792 -0.1774  0.3834
 5822TIP3    H117472   0.523   3.385   3.048 -0.9604 -0.0057 -1.2560
 5822TIP3    H217473   0.401   3.310   2.999 -2.6326  0.6366  1.6793
 5823TIP3   OH217474   3.284   4.129   2.308  0.3181  0.3688  0.3748
 5823TIP3    H117475   3.280   4.181   2.388  2.4125  0.1401  0.6659
 5823TIP3    H217476   3.279   4.039   2.338  1.2684  0.2765  0.2895
 5824TIP3   OH217477   4.069   2.322   0.613 -0.4599 -0.2014 -0.6588
 5824TIP3    H117478   4.153   2.277   0.612 -0.7674 -0.7757 -0.7988
 5824TIP3    H217479   4.004   2.252   0.614 -0.9371  0.2137  0.8658
 5825TIP3   OH217480   5.539   3.981   2.549  0.1188  0.2847 -0.1419
 5825TIP3    H117481   5.600   4.039   2.594 -1.1294  1.5334  0.0124
 5825TIP3    H217482   5.526   4.020   2.463 -0.3987  0.0076 -0.1989
 5826TIP3   OH217483   1.994   2.092   4.277  0.7011  0.1574  0.2157
 5826TIP3    H117484   2.085   2.120   4.271  1.1659 -1.3481 -0.1612
 5826TIP3    H217485   1.994   2.026   4.346  0.1428 -0.7264 -0.6122
 5827TIP3   OH217486   2.425   2.668   1.283 -0.0155  0.2041 -0.4838
 5827TIP3    H117487   2.504   2.717   1.306  0.1790  0.3763 -1.4778
 5827TIP3    H217488   2.454   2.578   1.274  0.3881  0.4892 -2.3050
 5828TIP3   OH217489   2.051   5.422   2.061  0.0795  0.1690  0.0361
 5828TIP3    H117490   1.971   5.370   2.076  0.3122  0.0384  0.8874
 5828TIP3    H217491   2.067   5.414   1.967 -0.4423 -0.5007 -0.0069
 5829TIP3   OH217492   2.497   4.526   3.334 -0.6911  0.2948  0.1704
 5829TIP3    H117493   2.497   4.521   3.430 -0.7876 -1.1170  0.1141
 5829TIP3    H217494   2.586   4.503   3.309 -0.2963  1.9366 -0.0593
 5830TIP3   OH217495   2.022   2.740   3.405 -0.0605 -0.3565  0.4483
 5830TIP3    H117496   1.998   2.658   3.448 -0.0078 -0.2515  0.6795
 5830TIP3    H217497   1.985   2.732   3.317  1.2312 -1.2627 -0.0450
 5831TIP3   OH217498   0.277   2.408   2.203 -0.1219 -1.0106  0.2155
 5831TIP3    H117499   0.214   2.413   2.130 -1.6648  0.1502  1.5503
 5831TIP3    H217500   0.350   2.358   2.167 -0.1613  0.7102 -2.5995
 5832TIP3   OH217501   5.548   4.719   4.501  0.0418  0.1789  0.2875
 5832TIP3    H117502   5.552   4.804   4.545  0.0829  0.6892 -0.6591
 5832TIP3    H217503   5.468   4.679   4.533  1.1209 -0.4046  2.4147
 5833TIP3   OH217504   1.473   0.803   3.632  0.2585  0.2966 -0.6218
 5833TIP3    H117505   1.384   0.782   3.661 -0.2356  0.8987 -1.6424
 5833TIP3    H217506   1.462   0.833   3.542  1.4031  1.1207 -0.5028
 5834TIP3   OH217507   0.571   0.055   1.728  0.3860  0.2545 -0.1437
 5834TIP3    H117508   0.544   0.117   1.797 -2.3812 -0.2376 -0.6739
 5834TIP3    H217509   0.489   0.024   1.691  1.6966 -2.9203 -0.6746
 5835TIP3   OH217510   1.315   4.709   4.084  0.2097 -0.0960  0.2201
 5835TIP3    H117511   1.285   4.642   4.145  2.0299  0.4377  1.7983
 5835TIP3    H217512   1.320   4.789   4.137 -0.9575  1.1245 -1.3712
 5836TIP3   OH217513   3.183   0.823   2.137  0.2146  0.6395 -0.0394
 5836TIP3    H117514   3.231   0.763   2.080 -2.3044 -0.0939 -1.5629
 5836TIP3    H217515   3.183   0.781   2.222  4.0006  1.7168  0.6711
 5837TIP3   OH217516   5.315   1.835   3.529 -0.0707  0.6085 -0.6748
 5837TIP3    H117517   5.303   1.872   3.441  0.3506  1.2486 -0.4748
 5837TIP3    H217518   5.403   1.800   3.528 -1.1166 -2.2716 -1.5010
 5838TIP3   OH217519   2.886   0.956   4.449 -0.8543  0.2670  0.0406
 5838TIP3    H117520   2.959   0.969   4.388 -1.4188 -2.0737 -1.2645
 5838TIP3    H217521   2.822   1.023   4.424  0.7060  2.2862  1.1322
 5839TIP3   OH217522   4.822   1.805   3.584 -0.5239  0.0084 -0.3976
 5839TIP3    H117523   4.730   1.814   3.607 -0.7857 -0.6612 -1.1388
 5839TIP3    H217524   4.840   1.878   3.525 -0.1850  0.9791  0.8634
 5840TIP3   OH217525   2.104   5.825   1.103 -0.4550 -0.6390 -0.0292
 5840TIP3    H117526   2.108   5.746   1.049 -0.0698 -0.7974  0.2330
 5840TIP3    H217527   2.108   5.794   1.193  1.1584 -0.2557  0.0738
 5841TIP3   OH217528   5.148   0.903   2.370 -0.4302  0.7048  0.1272
 5841TIP3    H117529   5.089   0.898   2.445  0.4182  1.6879  0.8881
 5841TIP3    H217530   5.090   0.919   2.295 -1.1609  1.3069  0.8002
 5842TIP3   OH217531   2.135   1.676   2.606 -1.1464 -0.1172  0.2199
 5842TIP3    H117532   2.156   1.714   2.692 -0.1098 -0.6726  0.2296
 5842TIP3    H217533   2.131   1.752   2.547  1.5574  0.0385  0.1105
 5843TIP3   OH217534   2.544   2.366   2.784 -0.1778  0.3848 -0.1152
 5843TIP3    H117535   2.548   2.334   2.874  2.1166 -1.7457 -0.8513
 5843TIP3    H217536   2.633   2.397   2.766 -0.6674  1.0365 -1.5905
 5844TIP3   OH217537   6.111   0.794   4.709  0.7448 -0.1936 -0.7474
 5844TIP3    H117538   6.141   0.733   4.777  2.4406 -0.9146 -2.0709
 5844TIP3    H217539   6.075   0.868   4.757  1.6194 -0.8123  0.9342
 5845TIP3   OH217540   1.956   1.527   4.663  0.3553 -0.0792 -0.1124
 5845TIP3    H117541   2.013   1.573   4.602  0.5339  1.0686  0.8863
 5845TIP3    H217542   1.949   1.585   4.739 -1.2201 -0.7092  0.2739
 5846TIP3   OH217543   1.943   0.368   4.769 -0.4165 -0.4097  0.1343
 5846TIP3    H117544   1.982   0.426   4.835 -0.6361  1.3936 -1.2626
 5846TIP3    H217545   1.849   0.388   4.772 -0.3697  0.0296 -1.0399
 5847TIP3   OH217546   5.236   4.631   2.272  0.5524  0.8915  0.1504
 5847TIP3    H117547   5.286   4.565   2.321  1.5844  1.8915  0.4849
 5847TIP3    H217548   5.222   4.702   2.334 -2.1629  0.2967  0.3697
 5848TIP3   OH217549   1.917   5.394   3.311 -0.2862 -0.6593 -0.1612
 5848TIP3    H117550   1.913   5.480   3.353  0.1708 -0.4773 -0.4773
 5848TIP3    H217551   1.893   5.333   3.380 -2.4537 -0.1586 -0.4184
 5849TIP3   OH217552   0.471   0.646   0.669 -0.2710 -0.0763 -0.2987
 5849TIP3    H117553   0.385   0.679   0.644 -0.4638  0.4384  0.9729
 5849TIP3    H217554   0.486   0.681   0.757  0.2803 -1.9694  0.4148
 5850TIP3   OH217555   3.900   0.486   1.798  0.5228  0.0282  0.6309
 5850TIP3    H117556   3.819   0.436   1.788  0.8255 -0.6330  1.3589
 5850TIP3    H217557   3.912   0.529   1.713  0.1765 -1.0353  0.0232
 5851TIP3   OH217558   5.632   5.000   0.186  0.0630 -0.2141 -0.3730
 5851TIP3    H117559   5.647   4.931   0.251  0.2521 -0.2233 -0.4243
 5851TIP3    H217560   5.704   5.062   0.201 -1.1527  0.9459  0.9318
 5852TIP3   OH217561   2.223   1.595   0.644 -0.3468 -0.3718  0.6258
 5852TIP3    H117562   2.275   1.542   0.704  0.7673  1.5788  1.4783
 5852TIP3    H217563   2.278   1.605   0.566 -0.9919 -1.2932  0.0302
 5853TIP3   OH217564   4.486   2.662   1.452  0.6441  0.2820 -0.1207
 5853TIP3    H117565   4.443   2.626   1.375  1.6103  1.5348 -1.2893
 5853TIP3    H217566   4.510   2.585   1.504  0.7523 -0.6460 -1.4853
 5854TIP3   OH217567   2.889   1.442   4.039 -0.1355 -1.1912 -0.3913
 5854TIP3    H117568   2.849   1.359   4.066 -1.7561 -0.3570 -0.1066
 5854TIP3    H217569   2.952   1.461   4.108  0.2243 -2.1662 -0.4388
 5855TIP3   OH217570   6.049   4.390   3.467  0.3888  0.0001  0.1126
 5855TIP3    H117571   6.042   4.408   3.561  1.0951  0.6137  0.0556
 5855TIP3    H217572   6.143   4.397   3.448  0.5280 -2.1397 -0.2603
 5856TIP3   OH217573   1.188   1.779   0.291 -0.1024  0.0712  0.0541
 5856TIP3    H117574   1.277   1.768   0.260 -0.0028 -1.7431  0.9027
 5856TIP3    H217575   1.133   1.740   0.223 -0.1999  0.2733  0.0130
 5857TIP3   OH217576   1.771   0.900   3.354  0.4759 -0.1408  0.3918
 5857TIP3    H117577   1.823   0.915   3.433  1.1338  0.4067 -0.1311
 5857TIP3    H217578   1.753   0.988   3.320 -2.4842 -0.1772  1.6108
 5858TIP3   OH217579   1.866   4.723   3.879 -0.7021  0.5871 -0.0549
 5858TIP3    H117580   1.831   4.642   3.915  1.2041 -0.6329 -0.8046
 5858TIP3    H217581   1.898   4.771   3.956  0.6276 -0.6479  0.2165
 5859TIP3   OH217582   1.839   0.289   2.389 -0.1766 -0.2774 -0.2348
 5859TIP3    H117583   1.819   0.350   2.318 -0.2214  0.1649  0.1531
 5859TIP3    H217584   1.759   0.286   2.441  0.1362  0.0400  0.2613
 5860TIP3   OH217585   3.902   0.419   0.361 -0.0291 -0.4542 -0.2359
 5860TIP3    H117586   3.947   0.365   0.425  0.4338 -0.5130 -0.6085
 5860TIP3    H217587   3.811   0.389   0.364  0.3860 -1.8635 -1.0690
 5861TIP3   OH217588   3.499   1.763   4.157  0.3663  0.1512  0.0688
 5861TIP3    H117589   3.563   1.748   4.227  0.1740 -0.3213  0.1435
 5861TIP3    H217590   3.447   1.837   4.188 -0.1165 -0.4464  0.7126
 5862TIP3   OH217591   3.415   4.406   2.978  0.9804  0.2363  0.5683
 5862TIP3    H117592   3.391   4.413   3.071 -1.3161  1.0721 -0.0303
 5862TIP3    H217593   3.377   4.323   2.949  1.1134  0.3001  0.2053
 5863TIP3   OH217594   5.945   4.215   0.404 -0.6939 -0.2961  0.1045
 5863TIP3    H117595   6.012   4.166   0.357 -1.0927 -0.5210 -0.2442
 5863TIP3    H217596   5.862   4.181   0.369 -1.0167 -0.8410  1.3316
 5864TIP3   OH217597   4.774   0.384   3.728  0.2515  0.1796 -0.0804
 5864TIP3    H117598   4.768   0.310   3.668  1.1567  1.1228 -1.3732
 5864TIP3    H217599   4.854   0.367   3.779  0.5391  0.3147 -0.4763
 5865TIP3   OH217600   2.825   3.848   3.532 -0.8543  0.1532 -0.0899
 5865TIP3    H117601   2.741   3.808   3.557 -0.7120 -0.2745 -0.2708
 5865TIP3    H217602   2.857   3.791   3.462 -0.2757  0.1444  0.1777
 5866TIP3   OH217603   1.276   1.627   2.226 -0.0117  0.0328  0.1533
 5866TIP3    H117604   1.185   1.599   2.214 -0.8213  1.2075  2.7974
 5866TIP3    H217605   1.292   1.614   2.320  2.0555  1.2463  0.0161
 5867TIP3   OH217606   1.793   3.811   4.770  0.3671 -0.5893  0.3244
 5867TIP3    H117607   1.886   3.832   4.770  0.1560  0.3761  0.4300
 5867TIP3    H217608   1.777   3.772   4.856  0.5463 -0.1759  0.5467
 5868TIP3   OH217609   2.332   3.870   5.058 -0.1355 -0.1396 -0.1466
 5868TIP3    H117610   2.270   3.819   5.110  1.3429 -0.9460  0.9415
 5868TIP3    H217611   2.279   3.936   5.014 -1.6633 -0.4194  1.1842
 5869TIP3   OH217612   2.456   2.475   3.393 -0.3050 -0.8792  0.3421
 5869TIP3    H117613   2.526   2.470   3.459 -1.2666 -1.3832  1.3584
 5869TIP3    H217614   2.478   2.406   3.331  0.2048 -0.9126  0.5498
 5870TIP3   OH217615   3.751   0.056   2.268  0.2860  0.1858  0.2486
 5870TIP3    H117616   3.775  -0.036   2.265 -1.6047 -0.3239 -0.1856
 5870TIP3    H217617   3.769   0.088   2.179 -1.4144 -0.4335 -0.3573
 5871TIP3   OH217618   2.619   0.268   3.425  0.0511 -0.4727  0.0428
 5871TIP3    H117619   2.527   0.286   3.406 -0.0860 -1.2451 -0.0411
 5871TIP3    H217620   2.652   0.350   3.461 -0.8327 -0.3858  0.6804
 5872TIP3   OH217621   0.100   4.842   4.455  0.0513  0.7006 -0.4034
 5872TIP3    H117622   0.061   4.757   4.437 -0.4356  1.0836 -1.1831
 5872TIP3    H217623   0.136   4.834   4.544  0.5566 -0.5094 -0.7020
 5873TIP3   OH217624   3.852   0.889   1.762 -0.2388  0.2188 -0.1215
 5873TIP3    H117625   3.849   0.909   1.855 -4.3482  0.4324 -0.0880
 5873TIP3    H217626   3.846   0.794   1.757  0.7251  0.1515 -0.2187
 5874TIP3   OH217627   4.937   3.900   3.062  0.8352 -0.4781 -0.2086
 5874TIP3    H117628   4.860   3.852   3.030  1.1088 -0.7696 -0.4317
 5874TIP3    H217629   4.965   3.954   2.987  1.5782 -1.2882 -0.5302
 5875TIP3   OH217630   2.128   4.483   0.302  0.4337 -0.4463 -0.4093
 5875TIP3    H117631   2.149   4.392   0.325 -3.7446 -1.6021 -0.3161
 5875TIP3    H217632   2.143   4.532   0.383  0.2522 -1.5776  0.3303
 5876TIP3   OH217633   5.812   3.083   0.742  0.2378 -0.2885 -0.4093
 5876TIP3    H117634   5.840   2.992   0.737 -0.1969 -0.5868  1.7147
 5876TIP3    H217635   5.853   3.117   0.821 -0.7809  0.9207 -0.3554
 5877TIP3   OH217636   6.187   3.008   4.537 -0.7395 -0.2973 -0.6501
 5877TIP3    H117637   6.267   3.000   4.590 -0.3623  0.4767 -1.0811
 5877TIP3    H217638   6.132   2.936   4.567 -0.3860 -0.1084  0.5317
 5878TIP3   OH217639   0.329   3.013   3.981 -0.2052  0.2875  0.5715
 5878TIP3    H117640   0.333   3.106   4.001 -0.4164 -0.0327  2.1989
 5878TIP3    H217641   0.345   3.008   3.886 -0.0921  1.9507  0.4821
 5879TIP3   OH217642   5.633   3.974   1.463  0.6261 -0.5629  0.4563
 5879TIP3    H117643   5.575   4.009   1.531  0.5290 -0.6466  0.4171
 5879TIP3    H217644   5.697   4.044   1.449  1.3768 -1.0227  1.4852
 5880TIP3   OH217645   0.145   0.449   2.888  0.0129  0.3636 -0.0739
 5880TIP3    H117646   0.236   0.475   2.873  0.9441 -1.6672  1.4633
 5880TIP3    H217647   0.136   0.367   2.840 -0.1479 -0.7648  1.7625
 5881TIP3   OH217648   3.267   3.842   1.989 -0.5451 -0.5831  0.1922
 5881TIP3    H117649   3.285   3.928   2.027 -1.5447 -0.3446  0.1515
 5881TIP3    H217650   3.325   3.837   1.913 -2.7512  1.4612 -1.7989
 5882TIP3   OH217651   6.300   4.676   4.916 -0.2169  0.3036  0.4323
 5882TIP3    H117652   6.303   4.723   4.999 -3.3569 -1.0838  1.5051
 5882TIP3    H217653   6.237   4.724   4.862  1.7803  1.1898 -1.2513
 5883TIP3   OH217654   0.640   5.545   3.931  0.8076  0.2584  0.5339
 5883TIP3    H117655   0.575   5.523   3.998 -1.4949 -1.7362 -2.1408
 5883TIP3    H217656   0.686   5.463   3.915  0.7948  0.4967 -0.8241
 5884TIP3   OH217657   3.566   5.654   5.079  0.3519 -0.3301 -0.1405
 5884TIP3    H117658   3.657   5.651   5.050  1.5243  1.2085  3.0003
 5884TIP3    H217659   3.545   5.747   5.082 -0.3318 -0.5057  1.8539
 5885TIP3   OH217660   4.373   0.967   0.501  0.1224 -0.0230 -0.0876
 5885TIP3    H117661   4.345   1.004   0.585 -0.9554 -0.3101 -0.3008
 5885TIP3    H217662   4.468   0.969   0.504  0.0933  0.0818  1.0918
 5886TIP3   OH217663   6.326   5.729   2.427  0.4099  0.0774 -0.0063
 5886TIP3    H117664   6.271   5.663   2.385  2.5418 -2.8341  1.4800
 5886TIP3    H217665   6.312   5.808   2.374 -2.3194 -1.4722 -1.8565
 5887TIP3   OH217666   4.639   5.835   4.984  0.1107 -0.1047  0.0682
 5887TIP3    H117667   4.731   5.832   4.958  0.2345 -1.0387  0.5511
 5887TIP3    H217668   4.594   5.776   4.923 -0.1590  0.3080 -0.1340
 5888TIP3   OH217669   4.609   4.183   0.951  0.6273  0.6113 -0.0358
 5888TIP3    H117670   4.644   4.215   1.035  0.3633  0.7155  0.0357
 5888TIP3    H217671   4.515   4.175   0.966  0.7619 -0.8001  0.1369
 5889TIP3   OH217672   3.681   2.594   0.972 -0.6738  0.8120  0.1970
 5889TIP3    H117673   3.609   2.622   1.029 -1.3208 -1.1666  0.4388
 5889TIP3    H217674   3.642   2.589   0.885 -0.2555  1.7453 -0.0534
 5890TIP3   OH217675   1.278   3.609   3.414  0.4201  0.1036 -0.0791
 5890TIP3    H117676   1.313   3.611   3.503 -0.7335  0.3285  0.3861
 5890TIP3    H217677   1.265   3.516   3.395  1.9600 -0.0426 -0.5607
 5891TIP3   OH217678   3.717   4.418   4.371  0.0131  0.4020  0.0717
 5891TIP3    H117679   3.797   4.471   4.361 -0.3161  0.6596 -1.5709
 5891TIP3    H217680   3.688   4.403   4.281 -1.1536 -0.6796  0.6070
 5892TIP3   OH217681   3.226   1.015   5.107  1.0878 -0.0103 -0.5093
 5892TIP3    H117682   3.133   1.011   5.086  0.4739  0.5223  1.7893
 5892TIP3    H217683   3.243   0.934   5.155  1.4966  0.4391  0.1201
 5893TIP3   OH217684   2.072   4.074   4.471  0.5830  0.1553  0.2416
 5893TIP3    H117685   2.053   4.039   4.558  1.0129 -0.8012 -0.0454
 5893TIP3    H217686   2.031   4.012   4.410 -1.6542  1.9635 -0.2301
 5894TIP3   OH217687   0.524   4.033   4.663  0.5783  0.4101 -0.2438
 5894TIP3    H117688   0.548   4.077   4.582  0.4622  0.5329 -0.2131
 5894TIP3    H217689   0.507   4.104   4.725  0.7555  0.3146 -0.0870
 5895TIP3   OH217690   4.442   3.322   4.028  0.0898  0.3569 -0.4431
 5895TIP3    H117691   4.471   3.304   3.938  1.5898 -1.9988  0.4107
 5895TIP3    H217692   4.350   3.298   4.029 -0.0448  0.7777 -1.4268
 5896TIP3   OH217693   1.589   2.325   3.847 -0.3310 -0.0778  0.2006
 5896TIP3    H117694   1.516   2.309   3.787 -0.8516  1.6719  0.2967
 5896TIP3    H217695   1.648   2.381   3.797  1.3951 -2.1185 -0.1571
 5897TIP3   OH217696   1.744   4.850   0.876  0.1512  0.2230 -0.4805
 5897TIP3    H117697   1.777   4.940   0.880 -0.2558  0.3862 -0.7258
 5897TIP3    H217698   1.736   4.824   0.968  0.9260  0.1866 -0.4168
 5898TIP3   OH217699   4.452   2.690   4.131 -0.1622 -0.0907 -0.1962
 5898TIP3    H117700   4.435   2.777   4.096  0.4142  0.5075  0.9774
 5898TIP3    H217701   4.372   2.640   4.110 -1.3972  1.2982  0.9810
 5899TIP3   OH217702   5.309   4.417   0.904 -0.3780 -0.3128  0.3681
 5899TIP3    H117703   5.255   4.386   0.831 -1.1231  0.9011  0.3677
 5899TIP3    H217704   5.360   4.489   0.867  0.4224 -0.7254  0.6543
 5900TIP3   OH217705   1.277   2.109   3.717 -0.6175 -0.1017  0.0937
 5900TIP3    H117706   1.322   2.029   3.743 -0.3384  0.0802  0.1721
 5900TIP3    H217707   1.260   2.097   3.623  3.4355  1.5861 -1.0538
 5901TIP3   OH217708   4.747   4.689   1.604 -0.1408  0.4298  0.2651
 5901TIP3    H117709   4.706   4.750   1.542 -1.2353  0.5227  1.0342
 5901TIP3    H217710   4.795   4.746   1.664  0.4361  0.3799 -0.1368
 5902TIP3   OH217711   3.642   3.409   2.829  0.1092 -0.1076 -0.5685
 5902TIP3    H117712   3.659   3.458   2.910 -0.5314  0.4013 -0.7305
 5902TIP3    H217713   3.677   3.321   2.846  0.5623  0.1802  0.0187
 5903TIP3   OH217714   5.601   0.436   0.816 -0.1462 -0.0013  0.6689
 5903TIP3    H117715   5.529   0.382   0.783  0.7472 -0.7766 -0.0843
 5903TIP3    H217716   5.623   0.398   0.901 -1.1191  0.7281  1.2659
 5904TIP3   OH217717   1.585   4.006   4.205 -0.1272  0.0638  0.3188
 5904TIP3    H117718   1.605   4.012   4.298 -0.6535  0.3734  0.4186
 5904TIP3    H217719   1.518   3.937   4.199 -0.5725  0.4924  0.2569
 5905TIP3   OH217720   3.342   5.512   4.869 -0.6839 -0.1150 -0.1577
 5905TIP3    H117721   3.380   5.528   4.782  1.6103  0.2513  0.8464
 5905TIP3    H217722   3.394   5.566   4.928 -1.5658 -1.1062  1.5932
 5906TIP3   OH217723   4.262   4.370   1.445 -0.3989 -0.1609  0.6023
 5906TIP3    H117724   4.332   4.305   1.439  0.1381  0.4837 -0.7546
 5906TIP3    H217725   4.304   4.447   1.482 -0.4300  0.1410  0.0328
 5907TIP3   OH217726   3.969   5.528   4.651  0.3909  0.0452  0.3827
 5907TIP3    H117727   4.057   5.562   4.664 -0.8847  2.9863  2.4026
 5907TIP3    H217728   3.933   5.582   4.581  0.7583 -2.5526 -1.9566
 5908TIP3   OH217729   1.776   4.694   2.463  0.1983 -0.0232  0.2616
 5908TIP3    H117730   1.732   4.609   2.456 -1.0491  0.5557  0.8458
 5908TIP3    H217731   1.707   4.755   2.489  0.9594  1.2954 -0.7084
 5909TIP3   OH217732   6.151   4.153   3.153 -0.0135 -0.2373 -0.9569
 5909TIP3    H117733   6.187   4.115   3.233  0.9160  0.7446 -0.8858
 5909TIP3    H217734   6.088   4.218   3.183 -1.4122 -1.4933 -1.0740
 5910TIP3   OH217735   5.338   0.473   1.104  0.2235  0.2205  0.0200
 5910TIP3    H117736   5.359   0.445   1.194  0.1811 -0.2742 -0.1190
 5910TIP3    H217737   5.421   0.506   1.069 -0.0030  1.4670  0.6089
 5911TIP3   OH217738   0.972   0.745   1.599  0.0583 -0.4093 -0.0234
 5911TIP3    H117739   1.038   0.794   1.650 -0.9857  0.6526  0.3591
 5911TIP3    H217740   0.916   0.813   1.562 -1.7037 -1.3120  0.8812
 5912TIP3   OH217741   1.663   1.783   3.574  0.2586  0.2630 -0.0634
 5912TIP3    H117742   1.613   1.730   3.512 -0.8112  0.7652  0.3495
 5912TIP3    H217743   1.723   1.834   3.519  0.2367 -0.2524 -0.5749
 5913TIP3   OH217744   0.588   2.490   0.226 -0.3626 -0.5583 -0.6787
 5913TIP3    H117745   0.536   2.447   0.158 -2.8133  0.2514  0.5785
 5913TIP3    H217746   0.543   2.572   0.243  0.3913 -0.5511  1.6435
 5914TIP3   OH217747   4.407   0.590   3.892  0.1786  0.1878 -0.4477
 5914TIP3    H117748   4.429   0.520   3.831  0.5001  1.3331 -1.6983
 5914TIP3    H217749   4.350   0.648   3.843 -1.0776  0.2015  0.9555
 5915TIP3   OH217750   0.256   0.768   0.558  0.6716  0.1212 -1.4565
 5915TIP3    H117751   0.190   0.721   0.507 -0.4427  1.2955 -1.1429
 5915TIP3    H217752   0.226   0.859   0.559  1.3508  0.3627  0.1815
 5916TIP3   OH217753   5.130   3.276   4.937  0.2606 -0.1425 -0.1809
 5916TIP3    H117754   5.151   3.198   4.988  0.2862 -0.3092 -0.4466
 5916TIP3    H217755   5.130   3.246   4.846  1.6819  0.4671 -0.4008
 5917TIP3   OH217756   4.136   2.227   4.481 -0.1304  1.1541 -0.3005
 5917TIP3    H117757   4.167   2.318   4.473 -0.2118  1.1940 -0.1752
 5917TIP3    H217758   4.078   2.215   4.406  0.0101  1.1523 -0.4097
 5918TIP3   OH217759   4.433   4.871   2.782 -0.1168 -0.1707 -0.2800
 5918TIP3    H117760   4.423   4.934   2.853 -1.4138 -1.4003  0.6850
 5918TIP3    H217761   4.474   4.921   2.711  0.9151  1.1647  1.2037
 5919TIP3   OH217762   0.021   3.833   4.301  0.0665 -0.2195 -0.1659
 5919TIP3    H117763   0.106   3.867   4.328 -0.1444 -1.6731  2.6635
 5919TIP3    H217764  -0.018   3.904   4.251  1.6950  1.7051  1.1374
 5920TIP3   OH217765   5.708   5.883   3.642 -0.0972 -0.1811 -0.0947
 5920TIP3    H117766   5.631   5.936   3.623  0.3813 -0.5483 -3.9562
 5920TIP3    H217767   5.774   5.915   3.580  1.4880 -2.5795  0.2422
 5921TIP3   OH217768   3.271   3.598   2.399 -0.0525 -0.5648  0.4185
 5921TIP3    H117769   3.244   3.534   2.464 -1.4975 -0.5241 -0.1198
 5921TIP3    H217770   3.248   3.683   2.438 -0.6032 -0.5234  0.0166
 5922TIP3   OH217771   5.892   3.128   1.012 -0.4139 -0.3279  0.1896
 5922TIP3    H117772   5.942   3.208   1.026 -0.5917 -0.1520 -0.1539
 5922TIP3    H217773   5.950   3.057   1.040 -0.5723 -0.0308  1.3095
 5923TIP3   OH217774   3.442   2.515   1.892  0.1948 -0.1530  0.6424
 5923TIP3    H117775   3.509   2.495   1.826  0.6858  0.2881  0.9959
 5923TIP3    H217776   3.381   2.442   1.886 -0.5509  0.5522 -1.2832
 5924TIP3   OH217777   2.502   1.458   3.347 -0.1675 -0.0314  0.1648
 5924TIP3    H117778   2.409   1.463   3.365 -0.0528  0.5522  0.6241
 5924TIP3    H217779   2.535   1.391   3.408 -0.1712  0.2760  0.5093
 5925TIP3   OH217780   3.130   1.098   2.014  0.3507 -0.3197 -0.6603
 5925TIP3    H117781   3.198   1.039   2.046 -1.6912 -1.3084  2.1969
 5925TIP3    H217782   3.177   1.180   1.996  2.7825 -1.8710 -2.0277
 5926TIP3   OH217783   5.853   0.953   1.328  0.2731  0.0890 -0.0570
 5926TIP3    H117784   5.856   0.872   1.380  0.2315  0.4162  0.4682
 5926TIP3    H217785   5.846   1.022   1.394 -1.4794  0.4192 -0.5540
 5927TIP3   OH217786   5.090   0.028   4.212 -0.3205 -0.2684 -0.0681
 5927TIP3    H117787   5.130   0.052   4.128  2.2657  0.3955  1.2378
 5927TIP3    H217788   5.067  -0.065   4.202  2.3041 -0.9287 -0.7427
 5928TIP3   OH217789   1.540   4.295   4.327 -0.0636 -0.2587 -0.1815
 5928TIP3    H117790   1.595   4.239   4.382  0.4569 -0.5027 -0.9524
 5928TIP3    H217791   1.601   4.349   4.278 -0.5300 -0.1109 -0.6057
 5929TIP3   OH217792   3.172   4.215   3.191 -0.1362  0.0581 -0.8926
 5929TIP3    H117793   3.194   4.232   3.100  1.5109 -1.7712 -0.8995
 5929TIP3    H217794   3.214   4.286   3.240  0.3285  0.1531 -1.4298
 5930TIP3   OH217795   4.609   0.553   0.558  0.1851  0.0877  0.2293
 5930TIP3    H117796   4.646   0.536   0.644 -0.8327  1.1677  0.9035
 5930TIP3    H217797   4.619   0.470   0.511  2.2728 -0.0263  0.7821
 5931TIP3   OH217798   2.574   2.917   1.343 -0.0428  0.9944 -0.4510
 5931TIP3    H117799   2.661   2.914   1.383  0.7402 -1.8901 -2.0894
 5931TIP3    H217800   2.521   2.969   1.404  2.1217  0.5354  2.0003
 5932TIP3   OH217801   5.102   4.293   2.915 -0.0222  0.5596 -0.5585
 5932TIP3    H117802   5.189   4.298   2.955 -0.2097  1.1965 -0.2182
 5932TIP3    H217803   5.041   4.303   2.988 -0.4272 -1.2950 -0.5800
 5933TIP3   OH217804   5.213   4.294   3.689 -0.1838  0.0555 -0.1265
 5933TIP3    H117805   5.281   4.286   3.623 -0.3063 -1.0190 -0.1387
 5933TIP3    H217806   5.239   4.370   3.742  1.5750 -0.9415  0.5165
 5934TIP3   OH217807   3.426   1.510   3.231 -0.2625 -0.8160  0.3236
 5934TIP3    H117808   3.412   1.439   3.293  0.8262  0.0511  1.6400
 5934TIP3    H217809   3.500   1.481   3.177 -0.0011 -0.8173  0.6765
 5935TIP3   OH217810   5.010   1.062   0.411  0.4409  0.4039 -0.7822
 5935TIP3    H117811   4.998   0.969   0.429 -1.1285  0.5392 -0.9802
 5935TIP3    H217812   4.923   1.094   0.389  0.5435  2.3576  1.2436
 5936TIP3   OH217813   1.036   4.890   4.713 -0.6867  0.2248  0.3846
 5936TIP3    H117814   0.944   4.877   4.689 -0.8822  0.1780  1.1208
 5936TIP3    H217815   1.081   4.812   4.681 -0.4941  1.2159 -1.9199
 5937TIP3   OH217816   2.707   2.048   4.974  0.7501  1.2845 -0.0577
 5937TIP3    H117817   2.742   2.066   4.887  0.2954  0.6430 -0.3906
 5937TIP3    H217818   2.673   1.958   4.967 -1.0686  1.9102  0.1897
 5938TIP3   OH217819   0.869   1.003   3.644  0.2564  0.5073 -0.5338
 5938TIP3    H117820   0.778   0.974   3.655  0.3747  0.4184  0.3063
 5938TIP3    H217821   0.881   1.012   3.549 -0.8772  1.3463 -0.6079
 5939TIP3   OH217822   5.892   3.109   2.676  0.0152  0.2435 -0.2045
 5939TIP3    H117823   5.868   3.181   2.618 -2.8743 -1.5062 -1.4210
 5939TIP3    H217824   5.970   3.071   2.635 -0.8712  0.1922 -1.9595
 5940TIP3   OH217825   3.988   3.827   2.303  0.5542 -0.2870  0.1406
 5940TIP3    H117826   3.947   3.778   2.232 -0.6714  1.5475 -0.4862
 5940TIP3    H217827   4.032   3.900   2.260  2.1894 -0.6778  1.0574
 5941TIP3   OH217828   5.322   2.704   3.034 -0.0270  0.4515  0.1528
 5941TIP3    H117829   5.297   2.794   3.013 -1.0379 -0.1406 -1.3542
 5941TIP3    H217830   5.241   2.662   3.061 -0.4214 -0.9198 -2.7040
 5942TIP3   OH217831   1.974   1.549   3.120  0.0913  0.2101  0.1607
 5942TIP3    H117832   1.964   1.490   3.044  1.1918 -0.8371  0.7811
 5942TIP3    H217833   1.896   1.604   3.118 -0.7166 -0.8997 -0.7806
 5943TIP3   OH217834   2.764   0.994   2.874 -0.3768  0.1951  0.9789
 5943TIP3    H117835   2.802   0.942   2.945 -1.0209  0.6892  1.7003
 5943TIP3    H217836   2.807   1.080   2.882 -1.0741  0.5156  1.3135
 5944TIP3   OH217837   3.294   1.903   3.967  0.2730 -0.6627 -0.0082
 5944TIP3    H117838   3.327   1.875   3.881 -0.7303  0.2642 -0.7192
 5944TIP3    H217839   3.305   1.998   3.967 -2.8072 -0.1912 -0.5375
 5945TIP3   OH217840   5.488   1.286   4.846  0.1459  0.1816  0.2409
 5945TIP3    H117841   5.430   1.210   4.837 -0.5679  0.6538  0.7360
 5945TIP3    H217842   5.444   1.342   4.910  0.4372  1.2345 -0.4693
 5946TIP3   OH217843   4.761   3.189   2.080  0.1190 -0.0838  0.0364
 5946TIP3    H117844   4.808   3.232   2.151  0.5330 -0.4122 -0.0349
 5946TIP3    H217845   4.829   3.170   2.015 -0.3297  0.7005 -0.6921
 5947TIP3   OH217846   2.066   4.379   2.516  0.8889  0.0523 -0.7714
 5947TIP3    H117847   2.110   4.306   2.561  1.4237  2.0967  2.3749
 5947TIP3    H217848   2.132   4.449   2.514 -0.7587  1.6998 -0.1089
 5948TIP3   OH217849   0.904   2.586   4.147 -0.0262 -0.2497  0.4693
 5948TIP3    H117850   0.824   2.615   4.193 -1.1493 -1.2872 -0.7403
 5948TIP3    H217851   0.876   2.575   4.056  1.5449 -0.5640  0.0029
 5949TIP3   OH217852   2.956   0.274   1.220  0.1546 -0.3210  0.4856
 5949TIP3    H117853   2.908   0.191   1.222  1.4866 -1.1580 -0.3353
 5949TIP3    H217854   2.891   0.340   1.242 -1.3369 -1.3990 -0.4916
 5950TIP3   OH217855   2.174   3.014   3.460  0.5567 -0.6950 -0.1333
 5950TIP3    H117856   2.188   3.101   3.496  1.6710  0.0007 -2.0693
 5950TIP3    H217857   2.190   2.954   3.533 -1.0649  0.6934  1.4590
 5951TIP3   OH217858   0.241   3.144   1.879 -0.0436  0.3822  0.6708
 5951TIP3    H117859   0.169   3.195   1.841  0.6619  0.7155 -0.2510
 5951TIP3    H217860   0.286   3.105   1.804  1.9548  1.8221  1.0442
 5952TIP3   OH217861   1.967   1.480   1.286  0.1701 -0.2344 -0.2319
 5952TIP3    H117862   1.991   1.396   1.246 -0.0202 -0.4576  0.1193
 5952TIP3    H217863   2.045   1.506   1.335  1.4295  1.3599 -2.8458
 5953TIP3   OH217864   0.757   3.752   1.932  0.2632 -0.5181 -0.0363
 5953TIP3    H117865   0.725   3.662   1.939  2.5615 -1.2587  2.6191
 5953TIP3    H217866   0.835   3.754   1.987  1.3484  2.6775 -1.4619
 5954TIP3   OH217867   4.556   0.268   2.021  0.5566 -0.2528  0.7443
 5954TIP3    H117868   4.593   0.281   2.108  0.6195 -1.7043  0.9651
 5954TIP3    H217869   4.632   0.273   1.962  0.6505 -0.1990  0.8677
 5955TIP3   OH217870   3.344   1.340   0.504  0.0949  0.8855 -0.1058
 5955TIP3    H117871   3.286   1.393   0.559  0.7273 -0.0943  1.6107
 5955TIP3    H217872   3.431   1.377   0.518  0.4122 -0.0079  0.4223
 5956TIP3   OH217873   4.201   5.708   3.275  0.2069  0.3127 -0.3449
 5956TIP3    H117874   4.277   5.694   3.331  0.7065  0.6626 -0.9220
 5956TIP3    H217875   4.126   5.690   3.331  0.7196 -2.5118 -0.4261
 5957TIP3   OH217876   1.665   2.650   3.431 -0.2050  0.6029 -0.2721
 5957TIP3    H117877   1.599   2.624   3.496  0.4643 -1.2199 -0.2704
 5957TIP3    H217878   1.715   2.719   3.475  0.1124 -0.4575  1.0947
 5958TIP3   OH217879   6.063   3.466   3.531 -0.9189  0.0999 -0.1107
 5958TIP3    H117880   6.158   3.478   3.537 -0.9138  0.5115 -0.9129
 5958TIP3    H217881   6.037   3.438   3.619 -0.1606  0.7351  0.3336
 5959TIP3   OH217882   2.369   1.535   1.785 -0.6131 -0.0643 -0.4876
 5959TIP3    H117883   2.428   1.576   1.721  1.6758 -0.0653  1.4817
 5959TIP3    H217884   2.359   1.601   1.853  0.3054 -1.4277  1.0483
 5960TIP3   OH217885   0.829   2.471   3.894  0.0478 -0.1988 -0.1509
 5960TIP3    H117886   0.893   2.445   3.827 -0.1351 -0.2226 -0.3172
 5960TIP3    H217887   0.810   2.390   3.941  0.7163 -0.0449  0.3971
 5961TIP3   OH217888   0.478   1.183   3.844  0.3405  0.5157  0.3331
 5961TIP3    H117889   0.419   1.232   3.786 -1.9199  0.2359  2.2745
 5961TIP3    H217890   0.538   1.250   3.878  0.6988  0.9439 -1.0567
 5962TIP3   OH217891   6.038   2.275   1.076 -0.0755  0.0069 -0.5827
 5962TIP3    H117892   6.065   2.231   1.157 -1.0544  1.3943  0.5681
 5962TIP3    H217893   6.041   2.207   1.009  2.9519 -0.7029  0.1074
 5963TIP3   OH217894   2.181   0.902   2.272  0.4220  0.0567 -0.2959
 5963TIP3    H117895   2.243   0.869   2.207  0.2287 -0.2597 -0.3205
 5963TIP3    H217896   2.212   0.990   2.293  1.9746 -0.7650  1.0724
 5964TIP3   OH217897   0.300   1.776   2.702 -0.1573 -0.1896 -0.2461
 5964TIP3    H117898   0.265   1.852   2.654 -1.2717 -0.9880 -0.7419
 5964TIP3    H217899   0.274   1.701   2.649 -1.4894 -1.1187  1.6319
 5965TIP3   OH217900   1.215   1.626   0.542  0.2942  0.0719  0.2174
 5965TIP3    H117901   1.234   1.582   0.459  0.7662 -0.7726  0.7643
 5965TIP3    H217902   1.263   1.709   0.536 -0.7647  0.6460 -0.9044
 5966TIP3   OH217903   3.188   0.648   4.412  0.3210  0.1748 -0.2232
 5966TIP3    H117904   3.131   0.629   4.487  2.0058 -1.2654  0.7670
 5966TIP3    H217905   3.251   0.711   4.445 -0.0825  1.0246 -1.0309
 5967TIP3   OH217906   2.371   1.147   0.127  0.0812 -0.2001  0.4323
 5967TIP3    H117907   2.448   1.170   0.076 -0.8751 -0.6230 -1.2636
 5967TIP3    H217908   2.394   1.065   0.171  1.1187  0.4705  1.2077
 5968TIP3   OH217909   3.987   1.106   0.232  0.8723  0.2246 -0.4041
 5968TIP3    H117910   3.914   1.167   0.227 -0.0179 -0.6280  1.3522
 5968TIP3    H217911   4.064   1.161   0.246  0.1723  1.0098  0.4886
 5969TIP3   OH217912   4.885   3.045   4.264 -0.7257  0.5972  0.2362
 5969TIP3    H117913   4.867   3.088   4.347 -0.7811  0.4516  0.3002
 5969TIP3    H217914   4.816   2.979   4.256  0.4304 -0.7705  1.0353
 5970TIP3   OH217915   2.981   3.435   1.586  0.0989  0.1421  0.4327
 5970TIP3    H117916   3.027   3.368   1.637 -0.5508 -0.2214  0.5524
 5970TIP3    H217917   2.933   3.486   1.651  0.5021  0.6556  0.3292
 5971TIP3   OH217918   3.892   2.600   4.089 -0.2123  0.1898  0.0827
 5971TIP3    H117919   3.935   2.569   4.009 -0.9245 -0.3633 -0.0948
 5971TIP3    H217920   3.799   2.602   4.066 -0.2061  2.6822  0.0083
 5972TIP3   OH217921   0.949   4.671   4.369 -0.1669 -0.2438 -0.6032
 5972TIP3    H117922   0.875   4.630   4.324 -0.3401 -2.3363  1.4219
 5972TIP3    H217923   0.909   4.721   4.440  0.3021 -1.3548  0.4810
 5973TIP3   OH217924   6.049   5.867   0.665 -0.1513  0.5974 -0.1251
 5973TIP3    H117925   6.133   5.843   0.705  0.1172  1.7615  0.0317
 5973TIP3    H217926   5.984   5.823   0.720  0.3560 -1.2975 -0.9309
 5974TIP3   OH217927   0.961   2.132   4.663  0.3206  0.1398  0.4676
 5974TIP3    H117928   1.034   2.191   4.644 -0.4713  0.4436 -1.9428
 5974TIP3    H217929   0.935   2.153   4.753  1.5785  1.7605  0.4878
 5975TIP3   OH217930   5.695   3.424   1.506  0.6079 -0.0522  0.0870
 5975TIP3    H117931   5.642   3.411   1.427 -0.7949 -0.2421  1.0245
 5975TIP3    H217932   5.760   3.490   1.481  1.2387 -1.2537 -1.6853
 5976TIP3   OH217933   2.344   1.973   2.958  0.0720 -0.0217  0.4160
 5976TIP3    H117934   2.425   1.981   3.008 -0.1711 -3.1096  1.5485
 5976TIP3    H217935   2.280   2.026   3.005  0.8395  0.4094  0.9845
 5977TIP3   OH217936   0.094   0.580   1.055 -0.4864 -0.0954 -0.4243
 5977TIP3    H117937   0.011   0.622   1.076 -0.4689 -0.2660  0.0028
 5977TIP3    H217938   0.141   0.644   1.002 -1.2418 -0.3388 -1.4071
 5978TIP3   OH217939   4.671   2.728   4.833 -0.3068  0.0241  0.7228
 5978TIP3    H117940   4.703   2.698   4.747 -2.7817 -1.2955  0.1705
 5978TIP3    H217941   4.715   2.671   4.896 -0.5492 -0.8672  0.1056
 5979TIP3   OH217942   4.974   4.443   1.812  0.2429 -0.3672  0.7929
 5979TIP3    H117943   4.897   4.432   1.868  1.4021  0.4588  2.6300
 5979TIP3    H217944   4.965   4.373   1.747 -1.7240 -0.6823  1.3200
 5980TIP3   OH217945   0.236   4.535   1.745 -0.1932 -0.3648  0.2044
 5980TIP3    H117946   0.302   4.478   1.705  1.3291 -0.9413  3.2628
 5980TIP3    H217947   0.153   4.490   1.728  0.7874 -2.5892  0.9176
 5981TIP3   OH217948   4.700   5.760   3.709  0.0201 -0.2484  0.1464
 5981TIP3    H117949   4.795   5.752   3.706  0.1243  0.5260  0.8709
 5981TIP3    H217950   4.685   5.852   3.732 -0.9140 -0.2242 -0.5212
 5982TIP3   OH217951   4.720   2.053   0.970 -0.3523  0.0208 -0.5382
 5982TIP3    H117952   4.735   2.063   1.064 -0.9114  0.7296 -0.5121
 5982TIP3    H217953   4.702   2.142   0.940 -0.8329 -0.2971 -1.1934
 5983TIP3   OH217954   4.726   0.980   0.301 -0.2932 -0.2033 -0.0827
 5983TIP3    H117955   4.734   1.041   0.227  0.7262 -0.0014  0.1873
 5983TIP3    H217956   4.687   0.901   0.262 -0.5896  0.2147 -0.6532
 5984TIP3   OH217957   1.103   2.256   0.099  0.1735 -0.6362  1.0332
 5984TIP3    H117958   1.106   2.350   0.116  1.1389 -0.7984  1.8520
 5984TIP3    H217959   1.068   2.249   0.010 -0.4300  0.4644  1.1640
 5985TIP3   OH217960   0.618   5.775   1.691  0.0387 -0.2741 -0.3528
 5985TIP3    H117961   0.525   5.786   1.710  0.2231 -1.0478  1.1533
 5985TIP3    H217962   0.652   5.722   1.763  1.2788 -1.6047 -1.8246
 5986TIP3   OH217963   2.438   0.892   0.202 -0.1998  0.6927  0.5170
 5986TIP3    H117964   2.531   0.869   0.192  0.2679  1.0395  3.1144
 5986TIP3    H217965   2.395   0.809   0.222 -0.0295  0.8183  1.4603
 5987TIP3   OH217966   2.836   1.584   4.888 -0.1890 -0.1311  0.2427
 5987TIP3    H117967   2.839   1.583   4.984  0.6235  0.2748  0.2338
 5987TIP3    H217968   2.840   1.492   4.862  3.0868 -0.2037  0.5535
 5988TIP3   OH217969   2.266   1.142   4.135  0.1822  0.2507  0.6719
 5988TIP3    H117970   2.307   1.173   4.054 -1.9497  0.6488 -0.3327
 5988TIP3    H217971   2.183   1.104   4.107  0.3430 -1.6438  2.4673
 5989TIP3   OH217972   5.019   2.189   5.035 -0.5874 -0.3838  0.1553
 5989TIP3    H117973   4.951   2.162   4.974  0.4686  0.8662 -1.6823
 5989TIP3    H217974   4.980   2.262   5.083 -0.5066  0.5380 -1.1106
 5990TIP3   OH217975   3.781   4.378   3.829  0.2871  0.4698 -0.9736
 5990TIP3    H117976   3.850   4.353   3.890  2.7089  2.2021 -2.8256
 5990TIP3    H217977   3.719   4.305   3.832  2.6020 -1.6092  0.1670
 5991TIP3   OH217978   0.248   5.105   4.099  0.7074  0.2918 -0.3760
 5991TIP3    H117979   0.223   5.146   4.016  0.2988  0.0802 -0.3618
 5991TIP3    H217980   0.178   5.042   4.116  0.6717  0.4905  0.2436
 5992TIP3   OH217981   2.368   4.948   0.480 -0.6587  0.0931 -0.1899
 5992TIP3    H117982   2.326   4.883   0.536 -2.9454  0.9208 -0.8411
 5992TIP3    H217983   2.385   5.023   0.537  0.3924 -0.4053  0.1733
 5993TIP3   OH217984   5.749   3.540   2.649 -0.2888  0.1183  0.6985
 5993TIP3    H117985   5.844   3.552   2.642  0.0887 -1.8449  1.6352
 5993TIP3    H217986   5.733   3.531   2.743 -1.1319 -1.2711  0.4575
 5994TIP3   OH217987   3.252   1.211   4.879  0.8040 -0.3105  0.5076
 5994TIP3    H117988   3.230   1.205   4.972  0.6582  1.2245  0.5932
 5994TIP3    H217989   3.321   1.146   4.866  0.1248 -1.2483  1.4590
 5995TIP3   OH217990   4.941   2.066   2.681  0.4729 -0.5598 -0.2124
 5995TIP3    H117991   4.941   2.065   2.777  1.2087 -1.5431 -0.2096
 5995TIP3    H217992   4.866   2.010   2.657  1.2755 -1.6794 -0.1895
 5996TIP3   OH217993   5.156   5.514   0.487 -0.3102  0.2810  0.4433
 5996TIP3    H117994   5.076   5.495   0.438  0.1095 -1.4499  0.3379
 5996TIP3    H217995   5.208   5.570   0.428 -1.1619  0.8836  0.2554
 5997TIP3   OH217996   5.920   5.197   5.040  0.5399 -0.3706  0.3025
 5997TIP3    H117997   5.987   5.137   5.006  0.0660 -1.0766  0.5887
 5997TIP3    H217998   5.929   5.190   5.135  1.5670  1.2555  0.3723
 5998TIP3   OH217999   4.060   2.026   4.795 -0.2733 -0.3278  0.0380
 5998TIP3    H118000   4.066   2.095   4.730 -0.9353 -2.1881 -2.1496
 5998TIP3    H218001   4.150   1.994   4.804 -0.3502 -0.8321 -0.8937
 5999TIP3   OH218002   3.276   2.248   3.071 -0.4658  0.0818 -0.1475
 5999TIP3    H118003   3.256   2.260   2.979 -1.3791  1.8218  0.2426
 5999TIP3    H218004   3.322   2.328   3.097 -3.0817  1.1245  1.6207
 6000TIP3   OH218005   5.289   1.733   4.997 -0.2854 -0.3328 -0.2787
 6000TIP3    H118006   5.246   1.817   5.012 -1.1172 -1.0604  1.8555
 6000TIP3    H218007   5.225   1.668   5.028 -0.5360 -1.9638 -3.7218
 6001TIP3   OH218008   0.223   3.819   2.427 -0.0964  0.2102 -0.5506
 6001TIP3    H118009   0.130   3.817   2.404 -0.8688  2.2382  1.8786
 6001TIP3    H218010   0.255   3.903   2.395  0.4322  0.3017  0.1863
 6002TIP3   OH218011   4.296   3.796   0.250  0.9437 -0.3082 -0.2934
 6002TIP3    H118012   4.378   3.842   0.231  0.6966  0.8034  1.1111
 6002TIP3    H218013   4.280   3.814   0.343  0.1061 -2.1409 -0.0474
 6003TIP3   OH218014   2.365   2.985   3.245 -0.0187  0.3453  0.1831
 6003TIP3    H118015   2.300   2.977   3.316 -1.1294 -1.5925 -0.9544
 6003TIP3    H218016   2.391   2.895   3.226  2.7236  1.0339  0.2622
 6004TIP3   OH218017   3.496   5.863   1.293 -0.4819  0.0930  0.0088
 6004TIP3    H118018   3.500   5.770   1.317 -2.5002  0.4609  2.1387
 6004TIP3    H218019   3.415   5.895   1.332  1.3140  3.3331  1.5962
 6005TIP3   OH218020   5.818   4.896   0.410  0.5005  0.3061 -0.2772
 6005TIP3    H118021   5.726   4.871   0.420  0.3888  0.6895 -0.3392
 6005TIP3    H218022   5.865   4.839   0.471  0.1507  0.5658  0.2392
 6006TIP3   OH218023   2.130   3.273   4.722 -0.3226  0.3715  0.0163
 6006TIP3    H118024   2.163   3.335   4.656  1.7263  0.0120  0.6183
 6006TIP3    H218025   2.209   3.231   4.756 -1.5988 -2.1991  0.0156
 6007TIP3   OH218026   3.009   5.972   2.513 -0.0846 -0.1866  0.1510
 6007TIP3    H118027   3.008   5.983   2.608  0.5658  0.1243  0.1247
 6007TIP3    H218028   2.919   5.991   2.485 -0.2764 -0.2784  0.6988
 6008TIP3   OH218029   1.891   1.230   0.034  0.4388  0.3582 -0.0312
 6008TIP3    H118030   1.830   1.160   0.054  0.5727  0.5294  1.0482
 6008TIP3    H218031   1.879   1.247  -0.059  0.4451 -1.1188 -0.3096
 6009TIP3   OH218032   4.100   1.879   0.692 -0.0528  0.1891 -0.6533
 6009TIP3    H118033   4.155   1.810   0.655 -1.8089 -0.6295 -1.8646
 6009TIP3    H218034   4.087   1.853   0.783 -1.4497 -1.6706 -1.3133
 6010TIP3   OH218035   4.969   3.091   0.782  0.3854  0.1921 -1.1395
 6010TIP3    H118036   5.023   3.018   0.751 -0.6411 -0.2279 -2.0050
 6010TIP3    H218037   4.922   3.121   0.705 -0.7467  0.4282 -0.3923
 6011TIP3   OH218038   3.981   2.718   4.548  0.0148 -0.0614 -0.1183
 6011TIP3    H118039   3.979   2.622   4.549  0.9275 -0.1068 -0.8817
 6011TIP3    H218040   3.889   2.744   4.553 -0.4014 -1.0349 -1.8159
 6012TIP3   OH218041   2.351   1.642   3.624 -0.8736 -0.0309  0.4629
 6012TIP3    H118042   2.425   1.616   3.680 -1.5105 -1.9228  0.4997
 6012TIP3    H218043   2.324   1.561   3.580 -1.6232  1.0217 -1.1461
 6013TIP3   OH218044   3.631   4.571   2.905  0.1891  0.3123 -0.3669
 6013TIP3    H118045   3.557   4.527   2.947 -0.1212  1.2040  0.0455
 6013TIP3    H218046   3.684   4.500   2.869 -1.1221 -0.3307 -1.0980
 6014TIP3   OH218047   1.714   5.081   0.572  0.2412 -0.2689 -0.5571
 6014TIP3    H118048   1.649   5.070   0.641  0.3733 -0.2913 -0.4366
 6014TIP3    H218049   1.671   5.049   0.493 -0.1122  0.2829 -0.5925
 6015TIP3   OH218050   1.729   5.354   4.164 -0.2337  0.1375  0.3902
 6015TIP3    H118051   1.667   5.392   4.102  0.4936  1.2066  0.2890
 6015TIP3    H218052   1.807   5.409   4.157 -0.5544  1.0763  3.1625
 6016TIP3   OH218053   4.874   2.622   0.646  0.4512  0.3623 -0.3756
 6016TIP3    H118054   4.958   2.640   0.604  0.1980  0.8702 -0.6688
 6016TIP3    H218055   4.886   2.536   0.688  1.6098  1.0999  0.8680
 6017TIP3   OH218056   3.541   3.527   3.807 -0.0383 -0.4789 -0.7266
 6017TIP3    H118057   3.567   3.566   3.724 -2.7072  1.0268 -0.9646
 6017TIP3    H218058   3.596   3.572   3.873  1.5216 -1.1115 -1.5404
 6018TIP3   OH218059   5.937   3.308   2.879 -0.4949 -0.1060 -0.0806
 6018TIP3    H118060   5.908   3.268   2.797  0.0139  0.8482 -0.7542
 6018TIP3    H218061   5.871   3.375   2.897 -1.2705 -1.1216  0.9671
 6019TIP3   OH218062   0.698   2.614   3.247  0.2548  0.0530  0.2497
 6019TIP3    H118063   0.705   2.618   3.342  0.2319 -0.0961  0.2567
 6019TIP3    H218064   0.607   2.590   3.230  0.1165  0.6169  0.1800
 6020TIP3   OH218065   0.721   3.377   1.109 -0.7513 -0.2971  0.2992
 6020TIP3    H118066   0.743   3.344   1.022 -2.3639  1.5924 -0.9361
 6020TIP3    H218067   0.628   3.402   1.102 -0.5942  1.0443  2.1764
 6021TIP3   OH218068   6.079   5.661   0.880  0.7637 -0.6291  0.3100
 6021TIP3    H118069   6.026   5.620   0.812 -0.3116 -0.4188  0.9867
 6021TIP3    H218070   6.156   5.606   0.888  0.0905 -1.6233  0.1050
 6022TIP3   OH218071   0.865   3.587   3.953  0.4928  0.1599  0.1642
 6022TIP3    H118072   0.933   3.540   3.904 -0.5358 -1.6416  0.4068
 6022TIP3    H218073   0.796   3.523   3.967 -0.2420  1.2725  2.0182
 6023TIP3   OH218074   1.659   0.925   2.676  0.3758  0.0060  0.3388
 6023TIP3    H118075   1.711   1.006   2.675  0.7795 -0.2496  0.1759
 6023TIP3    H218076   1.688   0.877   2.599 -1.3042  0.5786 -0.7010
 6024TIP3   OH218077   5.209   1.899   3.779  0.3114 -0.4361 -0.7330
 6024TIP3    H118078   5.288   1.862   3.818 -0.2782 -3.1782 -1.9318
 6024TIP3    H218079   5.224   1.894   3.685 -1.1076 -0.6231 -0.9727
 6025TIP3   OH218080   1.323   5.407   1.144  0.3503 -0.7527 -0.0826
 6025TIP3    H118081   1.393   5.423   1.207 -1.3773  0.9529  1.5546
 6025TIP3    H218082   1.353   5.447   1.063  1.0391  0.4963  0.7583
 6026TIP3   OH218083   2.257   0.696   3.044 -0.2230 -0.1903 -0.0125
 6026TIP3    H118084   2.333   0.739   3.004 -0.3483  0.4407  0.4116
 6026TIP3    H218085   2.258   0.607   3.008 -0.3541  0.3573 -1.4407
 6027TIP3   OH218086   0.146   2.094   1.239  0.0826  0.6809 -0.2389
 6027TIP3    H118087   0.117   2.076   1.328 -0.6140 -3.4810 -1.0761
 6027TIP3    H218088   0.230   2.049   1.232 -0.6707 -0.5784 -2.0592
 6028TIP3   OH218089   0.536   3.242   1.915 -0.5256  0.2455  0.6954
 6028TIP3    H118090   0.481   3.166   1.895 -0.1729  0.1794 -0.0451
 6028TIP3    H218091   0.497   3.279   1.995 -1.1438 -0.2785  0.6463
 6029TIP3   OH218092   2.285   1.706   4.362  0.0759 -0.1308 -0.3205
 6029TIP3    H118093   2.277   1.708   4.457 -0.9243 -0.1337 -0.3958
 6029TIP3    H218094   2.203   1.666   4.332  0.7522 -0.9542 -1.1393
 6030TIP3   OH218095   3.498   0.922   5.062  0.0388 -0.5076  0.4179
 6030TIP3    H118096   3.411   0.897   5.030 -1.8589  0.9934  3.8924
 6030TIP3    H218097   3.508   1.013   5.035 -0.2781 -0.1442  1.4875
 6031TIP3   OH218098   2.446   0.316   2.207  0.3485  0.2869  0.0573
 6031TIP3    H118099   2.538   0.316   2.181 -0.1784  1.4653 -2.0943
 6031TIP3    H218100   2.439   0.389   2.269  0.6839  0.8799 -0.5867
 6032TIP3   OH218101   5.085   3.150   1.527  0.4223  0.2876  1.1256
 6032TIP3    H118102   5.021   3.093   1.570  0.8947  0.2684  1.8050
 6032TIP3    H218103   5.044   3.236   1.526  0.0779  0.1258  0.8873
 6033TIP3   OH218104   1.537   4.680   2.845 -0.2300 -0.0589 -0.1581
 6033TIP3    H118105   1.561   4.764   2.884 -1.0487  0.7272 -1.2901
 6033TIP3    H218106   1.469   4.645   2.901  0.2387 -0.0633  0.4180
 6034TIP3   OH218107   4.255   2.018   0.920  0.0662 -0.1019 -0.0903
 6034TIP3    H118108   4.268   1.963   0.997 -0.0385  1.7286  1.3010
 6034TIP3    H218109   4.306   1.976   0.851 -1.2785 -2.8103  0.4117
 6035TIP3   OH218110   5.644   2.344   5.036  0.1931  0.2388 -0.0392
 6035TIP3    H118111   5.720   2.377   4.990 -0.0362 -0.6256 -1.0894
 6035TIP3    H218112   5.593   2.298   4.969 -0.9989  0.3741  0.7389
 6036TIP3   OH218113   4.771   5.601   4.191 -0.9179  0.1827 -0.5902
 6036TIP3    H118114   4.753   5.514   4.226 -2.3042 -0.1815 -2.0933
 6036TIP3    H218115   4.772   5.588   4.096 -0.3516  1.6788 -0.8089
 6037TIP3   OH218116   5.567   1.849   1.538  0.7501  0.7027 -0.2536
 6037TIP3    H118117   5.633   1.792   1.578 -0.0649 -0.3395 -0.3456
 6037TIP3    H218118   5.609   1.935   1.533  1.6726  0.3275  0.7543
 6038TIP3   OH218119   2.873   4.708   3.516  0.4827  0.0691  0.0549
 6038TIP3    H118120   2.875   4.671   3.604  0.7639  0.2410  0.1226
 6038TIP3    H218121   2.797   4.765   3.515  1.1078  0.9371  0.5451
 6039TIP3   OH218122   2.817   1.686   3.908  0.5961 -0.0186  0.0167
 6039TIP3    H118123   2.826   1.600   3.949 -0.6006 -0.2599 -0.1896
 6039TIP3    H218124   2.855   1.747   3.972  0.7677 -0.6127  0.4935
 6040TIP3   OH218125   5.911   3.595   1.450  0.1658 -0.1502 -0.1609
 6040TIP3    H118126   5.918   3.586   1.545 -1.2731 -1.1590 -0.1243
 6040TIP3    H218127   5.983   3.541   1.416  0.1495 -0.5000  0.3451
 6041TIP3   OH218128   3.654   1.400   2.642 -0.5061  0.2141 -0.0351
 6041TIP3    H118129   3.644   1.371   2.551  1.1742 -0.6479  0.0274
 6041TIP3    H218130   3.576   1.454   2.658 -1.6470 -0.9204 -1.4642
 6042TIP3   OH218131   3.202   5.025   0.841 -0.2432 -0.1578 -0.0151
 6042TIP3    H118132   3.246   5.105   0.869 -0.5494  0.0914 -0.2323
 6042TIP3    H218133   3.162   4.989   0.920  1.5102 -1.1436  0.4630
 6043TIP3   OH218134   2.848   3.790   4.057  0.2754  0.3643 -0.1810
 6043TIP3    H118135   2.910   3.806   4.129  0.0598  0.5406 -0.0318
 6043TIP3    H218136   2.890   3.723   4.004 -0.8167 -1.8791  1.6432
 6044TIP3   OH218137   2.504   5.448   4.911 -0.3443  0.2245  0.7158
 6044TIP3    H118138   2.528   5.511   4.844 -2.1294  0.0889 -0.1023
 6044TIP3    H218139   2.421   5.410   4.881 -0.1246 -1.3759  1.9526
 6045TIP3   OH218140   2.355   1.671   1.142 -0.2927 -0.6072  0.7784
 6045TIP3    H118141   2.390   1.593   1.183  0.0569 -0.7138  0.2856
 6045TIP3    H218142   2.358   1.653   1.048 -1.7668 -0.6575  0.7204
 6046TIP3   OH218143   4.483   4.610   0.900 -0.8756  0.0192 -0.0478
 6046TIP3    H118144   4.430   4.536   0.870 -0.2434  0.5692 -2.7970
 6046TIP3    H218145   4.558   4.570   0.944 -1.3603 -0.9043 -0.0374
 6047TIP3   OH218146   0.290   5.709   4.551  0.0291 -0.2816 -0.4104
 6047TIP3    H118147   0.284   5.686   4.458  0.7414 -1.1427 -0.2623
 6047TIP3    H218148   0.260   5.631   4.597 -0.5409  0.2224  0.0867
 6048TIP3   OH218149   0.284   3.479   3.318  0.2289 -0.0619  0.5772
 6048TIP3    H118150   0.312   3.458   3.408 -1.2667 -0.1229  1.0609
 6048TIP3    H218151   0.308   3.571   3.307 -1.5979  0.6591  1.9305
 6049TIP3   OH218152   3.425   0.734   2.266  0.1911 -0.1963 -0.1330
 6049TIP3    H118153   3.464   0.675   2.201  2.4328  0.0414  0.8763
 6049TIP3    H218154   3.364   0.679   2.315 -1.7237 -0.3314 -2.4880
 6050TIP3   OH218155   4.502   0.418   1.308  0.1254 -0.0104  0.2409
 6050TIP3    H118156   4.561   0.490   1.328 -2.2050  2.9488 -2.4530
 6050TIP3    H218157   4.421   0.439   1.354 -0.7634 -0.5935 -0.9904
 6051TIP3   OH218158   0.198   3.636   4.769 -0.4746  0.3265 -0.4494
 6051TIP3    H118159   0.173   3.653   4.859 -2.2067  2.9998 -1.3411
 6051TIP3    H218160   0.264   3.703   4.749  1.2370 -1.3358 -0.7336
 6052TIP3   OH218161   1.277   0.255   2.459  0.5732 -0.3732  0.6204
 6052TIP3    H118162   1.259   0.175   2.507 -0.1834 -0.3923  0.3243
 6052TIP3    H218163   1.239   0.240   2.372  0.9764  0.0669  0.3583
 6053TIP3   OH218164   4.166   0.189   4.678 -0.0193 -0.2143  0.4986
 6053TIP3    H118165   4.144   0.154   4.765  2.2049  0.3164  1.3345
 6053TIP3    H218166   4.219   0.121   4.638 -0.4159 -0.1354 -0.1782
 6054TIP3   OH218167   3.616   1.816   3.169  0.4648  0.5309 -0.1174
 6054TIP3    H118168   3.612   1.721   3.176 -0.7118  0.6104  0.6922
 6054TIP3    H218169   3.707   1.838   3.189  1.0214 -0.4846 -1.4583
 6055TIP3   OH218170   3.493   0.317   1.540  1.1317 -1.0273 -0.7821
 6055TIP3    H118171   3.469   0.389   1.482 -0.7778  1.8813  3.1342
 6055TIP3    H218172   3.579   0.341   1.574  1.4148 -1.7263 -0.9876
 6056TIP3   OH218173   5.899   1.870   4.878 -0.2448  0.4146 -0.0056
 6056TIP3    H118174   5.836   1.942   4.866 -1.2701 -0.3378  0.7274
 6056TIP3    H218175   5.898   1.824   4.794 -2.5524 -1.0291  0.7414
 6057TIP3   OH218176   2.886   4.053   2.505  0.3869  0.0113  0.4776
 6057TIP3    H118177   2.970   4.016   2.531  0.9337  1.8136  1.4350
 6057TIP3    H218178   2.823   4.018   2.569  0.2690 -1.7413 -0.5432
 6058TIP3   OH218179   4.982   3.882   4.177 -0.7507 -0.5672  0.4099
 6058TIP3    H118180   4.938   3.876   4.093  1.8986  0.7220 -1.2174
 6058TIP3    H218181   5.042   3.807   4.178  0.5328  0.4259  0.2716
 6059TIP3   OH218182   6.000   1.932   4.121  0.2865  0.6127 -0.2014
 6059TIP3    H118183   5.933   1.990   4.083 -0.2941 -0.3293 -0.6555
 6059TIP3    H218184   6.068   1.928   4.054  0.3784  0.8517 -0.1232
 6060TIP3   OH218185   6.026   3.931   2.980  0.6037 -0.1883 -0.2993
 6060TIP3    H118186   6.086   3.985   3.030 -1.6667  1.6946  0.5762
 6060TIP3    H218187   5.942   3.977   2.985 -1.0706 -2.9256 -1.0051
 6061TIP3   OH218188   0.906   2.954   2.888 -0.1298 -0.1994 -0.4990
 6061TIP3    H118189   0.880   3.044   2.910  0.2406 -0.3900  0.7931
 6061TIP3    H218190   0.962   2.963   2.811 -0.7384  0.6003 -0.8563
 6062TIP3   OH218191   4.564   3.193   0.541  0.3039  0.2608 -0.4075
 6062TIP3    H118192   4.556   3.159   0.452 -0.5618  0.7362 -0.5253
 6062TIP3    H218193   4.476   3.224   0.563  0.5410  0.2909  0.5575
 6063TIP3   OH218194   0.049   1.206   2.859 -0.1653  0.3305  0.2943
 6063TIP3    H118195   0.049   1.120   2.817  0.1089  0.6408 -0.3648
 6063TIP3    H218196   0.011   1.191   2.945 -0.3228 -0.4098  0.1032
 6064TIP3   OH218197   6.102   5.386   1.114  0.2896 -0.2681 -0.6291
 6064TIP3    H118198   6.169   5.439   1.157  0.0439 -0.8867  0.5754
 6064TIP3    H218199   6.123   5.296   1.139 -1.0273 -0.4677 -0.1265
 6065TIP3   OH218200   3.456   4.275   1.676  0.2005 -0.0661 -0.0203
 6065TIP3    H118201   3.498   4.197   1.639  0.6680  1.1444 -2.1864
 6065TIP3    H218202   3.408   4.314   1.603 -0.6058  1.3161  1.1813
 6066TIP3   OH218203   5.641   1.773   3.465  0.4716  0.3570  0.1937
 6066TIP3    H118204   5.667   1.785   3.374  1.4165 -0.8413  0.2856
 6066TIP3    H218205   5.650   1.679   3.481  0.3854  0.5584  1.5337
 6067TIP3   OH218206   5.265   5.728   1.823 -0.1250  0.1886 -0.0710
 6067TIP3    H118207   5.299   5.744   1.735 -1.1427  0.7895 -0.3693
 6067TIP3    H218208   5.188   5.784   1.830 -2.2065 -2.4485 -0.1274
 6068TIP3   OH218209   0.703   5.054   4.499 -0.7082 -0.8767 -0.8344
 6068TIP3    H118210   0.775   5.004   4.461 -0.4812 -1.4744  0.3296
 6068TIP3    H218211   0.724   5.059   4.592 -3.1488 -2.8115 -0.0737
 6069TIP3   OH218212   5.797   1.235   4.795 -0.4700  0.1482 -0.2139
 6069TIP3    H118213   5.851   1.294   4.848 -0.9564 -1.5604  2.3753
 6069TIP3    H218214   5.709   1.273   4.800 -0.7315 -0.5764  1.2273
 6070TIP3   OH218215   6.138   4.998   4.465 -0.1777  0.4218  0.0923
 6070TIP3    H118216   6.129   5.057   4.391  0.6205 -0.4218 -0.6955
 6070TIP3    H218217   6.134   4.910   4.428 -3.6468 -0.1806  1.4831
 6071TIP3   OH218218   6.260   5.051   1.465  0.5543 -0.0746  0.6202
 6071TIP3    H118219   6.351   5.066   1.488  0.9753 -0.5149 -0.6944
 6071TIP3    H218220   6.250   4.955   1.465  0.6503 -0.1217 -1.1838
 6072TIP3   OH218221   0.816   0.319   3.510 -0.0533 -0.1586 -0.3466
 6072TIP3    H118222   0.845   0.337   3.420 -1.3871  1.0967 -0.5855
 6072TIP3    H218223   0.723   0.343   3.509 -0.3507 -1.1564  1.1061
 6073TIP3   OH218224   0.350   4.698   3.760 -0.1668 -1.0116  0.3240
 6073TIP3    H118225   0.288   4.638   3.803 -1.6348  0.6206  0.5949
 6073TIP3    H218226   0.297   4.775   3.740  1.7258  0.2892  0.1813
 6074TIP3   OH218227   3.170   5.932   4.901 -0.3448 -0.0142  0.9599
 6074TIP3    H118228   3.205   5.905   4.985  2.7203  1.3136  0.2377
 6074TIP3    H218229   3.214   5.876   4.837 -1.2469  0.2209  0.1051
 6075TIP3   OH218230   4.485   5.716   1.827 -0.4472  0.4098  0.3572
 6075TIP3    H118231   4.470   5.766   1.747  1.0088 -3.8286 -2.9474
 6075TIP3    H218232   4.580   5.703   1.831 -0.5393 -0.0777  2.4252
 6076TIP3   OH218233   0.973   3.602   0.710  0.0389 -0.2866  0.3161
 6076TIP3    H118234   1.001   3.519   0.748  0.4439 -1.3584 -2.1153
 6076TIP3    H218235   1.052   3.639   0.672 -0.6022 -0.1026 -0.8913
 6077TIP3   OH218236   4.354   2.565   1.245  0.1704  0.5412  0.5005
 6077TIP3    H118237   4.271   2.586   1.202  0.3405  2.2377  0.9299
 6077TIP3    H218238   4.420   2.579   1.178  0.1125 -1.1708  0.0497
 6078TIP3   OH218239   6.135   3.192   3.817  0.5636 -0.4774 -0.0588
 6078TIP3    H118240   6.226   3.208   3.793 -0.4853  0.0973 -4.5905
 6078TIP3    H218241   6.095   3.279   3.824  0.3308 -0.7115  2.1332
 6079TIP3   OH218242   2.373   1.279   2.640  0.8049  0.6673 -0.1102
 6079TIP3    H118243   2.396   1.357   2.588 -1.2338  0.8284 -0.8359
 6079TIP3    H218244   2.290   1.302   2.681 -1.6316 -2.2461 -2.9430
 6080TIP3   OH218245   0.308   1.991   4.523 -0.4125 -0.0622  0.1807
 6080TIP3    H118246   0.314   2.040   4.605 -2.0947  0.2733  0.1504
 6080TIP3    H218247   0.296   1.900   4.551 -0.7985  0.0258  0.3105
 6081TIP3   OH218248   1.264   2.876   4.332 -0.3541  0.5696  0.2311
 6081TIP3    H118249   1.331   2.810   4.350  0.1353  1.5224  2.2390
 6081TIP3    H218250   1.216   2.843   4.257  1.7889 -0.5869 -0.6902
 6082TIP3   OH218251   5.951   1.009   4.786 -0.2985  0.2298  0.1671
 6082TIP3    H118252   5.880   1.069   4.767  2.0165  3.1224 -0.1542
 6082TIP3    H218253   5.963   1.015   4.881 -0.8275 -0.7407  0.3118
 6083TIP3   OH218254   2.614   2.148   0.612  0.3082 -0.0423 -0.1186
 6083TIP3    H118255   2.615   2.084   0.541  0.5227  0.5764 -0.6829
 6083TIP3    H218256   2.707   2.169   0.627  0.1611  2.3023 -1.9545
 6084TIP3   OH218257   4.054   3.246   1.444 -0.3172 -0.0700 -0.1409
 6084TIP3    H118258   4.044   3.151   1.451 -0.0328 -0.1371 -0.6063
 6084TIP3    H218259   4.147   3.260   1.427  0.0621  0.4275  2.0160
 6085TIP3   OH218260  -0.029   1.606   3.029  0.1082  0.0575 -0.2113
 6085TIP3    H118261   0.011   1.691   3.048  1.0982 -0.3602 -0.3351
 6085TIP3    H218262   0.024   1.571   2.957  0.8352 -1.4101  0.9711
 6086TIP3   OH218263   4.385   1.237   1.472  0.3908  0.2863 -0.1285
 6086TIP3    H118264   4.389   1.147   1.440 -1.4578  0.3213 -0.5640
 6086TIP3    H218265   4.477   1.266   1.473  0.9793 -1.4413 -0.3848
 6087TIP3   OH218266   4.361   0.433   2.530 -0.5063 -0.0788  0.3184
 6087TIP3    H118267   4.335   0.421   2.621  0.1428 -1.3592  0.3654
 6087TIP3    H218268   4.405   0.518   2.528  0.9058 -0.7277  1.5578
 6088TIP3   OH218269   0.106   4.436   2.387 -0.0144 -0.4133 -0.4111
 6088TIP3    H118270   0.161   4.507   2.354 -0.7968  0.4078  0.0081
 6088TIP3    H218271   0.147   4.413   2.471  0.9095 -1.2603 -1.0735
 6089TIP3   OH218272   2.387   3.743   0.332  0.2800  0.4999  0.5509
 6089TIP3    H118273   2.341   3.751   0.415  0.9716 -0.8724  1.1034
 6089TIP3    H218274   2.365   3.655   0.301  1.3998  0.3485  0.1356
 6090TIP3   OH218275   4.674   0.918   1.447  0.3386  0.6163 -0.1227
 6090TIP3    H118276   4.677   0.998   1.499 -0.7673  0.5011  0.1259
 6090TIP3    H218277   4.621   0.941   1.371  2.1872  0.8801 -1.4226
 6091TIP3   OH218278   0.618   2.689   3.851 -0.2749  0.2713  0.5051
 6091TIP3    H118279   0.615   2.597   3.825 -0.7716 -0.1940  2.0811
 6091TIP3    H218280   0.694   2.724   3.806  0.7480 -1.2795  0.9381
 6092TIP3   OH218281   5.776   2.597   0.165  0.1859 -0.4306  0.2411
 6092TIP3    H118282   5.763   2.579   0.258 -1.8190  1.1601  0.3284
 6092TIP3    H218283   5.829   2.676   0.162  1.4735 -1.2653 -0.0369
 6093TIP3   OH218284   3.770   4.274   2.851  0.0089  0.6181  0.0423
 6093TIP3    H118285   3.689   4.252   2.805  0.4024 -1.1759  0.1222
 6093TIP3    H218286   3.839   4.250   2.790  0.5054 -0.3549  0.9410
 6094TIP3   OH218287   0.264   5.627   0.937  0.0556 -0.0389  0.0589
 6094TIP3    H118288   0.360   5.620   0.940  0.6049  3.4703 -2.7003
 6094TIP3    H218289   0.243   5.689   1.006  0.3144  1.8089 -1.4262
 6095TIP3   OH218290   0.049   2.485   3.218 -0.2909  0.5684  0.0820
 6095TIP3    H118291   0.076   2.394   3.222  1.2604  1.0394  1.0678
 6095TIP3    H218292   0.059   2.509   3.126 -0.8906 -0.2865 -0.2178
 6096TIP3   OH218293   1.902   1.497   2.684  0.0484 -0.4091 -0.3297
 6096TIP3    H118294   1.827   1.519   2.739 -0.0824  0.2926 -0.7684
 6096TIP3    H218295   1.909   1.571   2.623  0.8838 -0.6282 -0.5125
 6097TIP3   OH218296   2.890   2.223   5.102 -0.1360  0.3409  0.4179
 6097TIP3    H118297   2.896   2.164   5.177  1.4451  1.2115  1.0149
 6097TIP3    H218298   2.831   2.178   5.042 -0.0805 -1.1885  1.4343
 6098TIP3   OH218299   1.101   2.137   3.950  0.3337 -0.2647 -0.0652
 6098TIP3    H118300   1.184   2.177   3.974  0.0544  0.1570  0.1924
 6098TIP3    H218301   1.108   2.121   3.856  0.5426  0.1526 -0.1192
 6099TIP3   OH218302   5.825   0.758   1.854  0.1990  0.3535 -0.2698
 6099TIP3    H118303   5.778   0.839   1.874  1.3782  1.3103 -1.2036
 6099TIP3    H218304   5.893   0.752   1.921  0.0336  0.0614 -0.1262
 6100TIP3   OH218305   4.507   3.737   4.586  0.2152 -0.3859 -0.2297
 6100TIP3    H118306   4.539   3.647   4.585  1.4747  0.0527 -1.8275
 6100TIP3    H218307   4.538   3.772   4.670  1.2320 -0.9147 -0.3738
 6101TIP3   OH218308   4.326   6.007   1.137  0.1650  0.0681  0.3254
 6101TIP3    H118309   4.312   5.999   1.043 -0.3878  1.1421  0.3070
 6101TIP3    H218310   4.278   5.933   1.174 -2.4262  1.4424 -0.0319
 6102TIP3   OH218311   2.604   1.682   2.968  0.5723  0.6880  0.0979
 6102TIP3    H118312   2.603   1.591   2.996 -0.1830  0.9861  1.1363
 6102TIP3    H218313   2.538   1.687   2.898  2.0658  0.0520 -1.4227
 6103TIP3   OH218314   3.459   5.821   0.282 -0.5800  0.2014 -0.0375
 6103TIP3    H118315   3.506   5.889   0.330 -3.1343  1.2890  1.0775
 6103TIP3    H218316   3.482   5.740   0.326  0.4255  0.6452  0.2927
 6104TIP3   OH218317   5.109   2.800   0.042  0.7298 -0.0200  0.1494
 6104TIP3    H118318   5.146   2.884   0.015  0.4020  0.3601  0.8448
 6104TIP3    H218319   5.046   2.779  -0.027 -0.0038  0.8760  0.5157
 6105TIP3   OH218320   0.069   3.911   4.668  0.1931  0.8289 -0.5172
 6105TIP3    H118321  -0.010   3.963   4.649  0.1078  0.2856 -1.7498
 6105TIP3    H218322   0.058   3.832   4.616  0.2670 -0.5056  1.4187
 6106TIP3   OH218323   2.306   3.914   3.495  0.3664  0.1910 -0.0663
 6106TIP3    H118324   2.237   3.976   3.518  0.6684  0.4154  0.2452
 6106TIP3    H218325   2.277   3.830   3.531 -1.0570 -0.3532 -2.2661
 6107TIP3   OH218326   2.840   4.500   3.343 -0.2208 -0.5677  0.4019
 6107TIP3    H118327   2.865   4.421   3.392  0.0814 -0.4529  0.4304
 6107TIP3    H218328   2.862   4.573   3.401  0.3752 -0.4185 -0.0019
 6108TIP3   OH218329   2.265   0.334   0.070 -1.0709 -0.1134 -0.4582
 6108TIP3    H118330   2.292   0.254   0.025  0.1879 -0.0597  0.1436
 6108TIP3    H218331   2.245   0.306   0.159 -0.6209  0.2250 -0.2431
 6109TIP3   OH218332   2.720   5.103   3.141  0.5318 -0.7659 -0.6082
 6109TIP3    H118333   2.774   5.051   3.201  1.4431  0.3097 -0.4500
 6109TIP3    H218334   2.646   5.132   3.194  0.0257 -1.8673 -0.6931
 6110TIP3   OH218335   1.087   3.273   3.172 -0.3345 -0.0460 -0.0538
 6110TIP3    H118336   1.068   3.361   3.203 -1.8480 -0.1128 -0.6914
 6110TIP3    H218337   1.124   3.286   3.084 -1.8646 -0.0766 -0.7220
 6111TIP3   OH218338   0.498   5.329   2.116 -0.0166 -0.0159  0.1182
 6111TIP3    H118339   0.439   5.386   2.165  1.2795  0.4442  1.2212
 6111TIP3    H218340   0.490   5.243   2.158  0.2878  0.1153  0.4524
 6112TIP3   OH218341   4.311   0.470   2.067 -0.2689  0.1007  0.0889
 6112TIP3    H118342   4.372   0.400   2.090 -0.9846 -0.2833  0.8780
 6112TIP3    H218343   4.245   0.467   2.136 -2.6886 -1.2407 -2.1191
 6113TIP3   OH218344   6.267   2.994   1.912 -0.2948 -0.4127 -0.2545
 6113TIP3    H118345   6.315   3.054   1.855  1.7784 -0.8222  0.9746
 6113TIP3    H218346   6.179   3.032   1.919  0.8193  2.2573  0.1523
 6114TIP3   OH218347   4.341   1.901   1.160 -0.2134  0.2366 -0.1554
 6114TIP3    H118348   4.252   1.925   1.186  0.5968  2.2526  1.0016
 6114TIP3    H218349   4.392   1.981   1.172  1.6973 -0.7458 -1.1887
 6115TIP3   OH218350   3.802   1.082   3.725  0.0268 -0.2700  0.3288
 6115TIP3    H118351   3.731   1.050   3.668  0.3856  0.3922 -0.5214
 6115TIP3    H218352   3.794   1.177   3.721  1.3569 -0.1696 -0.3087
 6116TIP3   OH218353   5.690   3.616   0.271 -0.1227 -0.3692 -0.2191
 6116TIP3    H118354   5.714   3.608   0.363  0.7890  1.1510 -0.2999
 6116TIP3    H218355   5.640   3.697   0.266  1.0745  0.3455 -1.2651
 6117TIP3   OH218356   4.506   3.954   1.307 -0.5234  0.2626  0.0112
 6117TIP3    H118357   4.452   3.876   1.315  0.5552 -0.5185 -0.0809
 6117TIP3    H218358   4.571   3.945   1.377  1.3949 -0.4107 -1.7821
 6118TIP3   OH218359   2.188   5.326   3.290  0.1456 -0.2243 -0.5337
 6118TIP3    H118360   2.240   5.340   3.211 -1.3113  2.2661 -1.1353
 6118TIP3    H218361   2.122   5.396   3.290 -1.5583 -1.6535  1.5536
 6119TIP3   OH218362   3.752   1.819   0.557  0.0736 -0.1630  0.4533
 6119TIP3    H118363   3.802   1.842   0.479 -0.4681 -0.1837  0.0958
 6119TIP3    H218364   3.806   1.850   0.630  0.5464 -0.0752  0.0696
 6120TIP3   OH218365   6.266   2.360   2.778  0.2132  0.9208  0.4422
 6120TIP3    H118366   6.194   2.393   2.724  1.2867  1.6789 -0.5811
 6120TIP3    H218367   6.307   2.291   2.724  1.5542  1.9708  0.0616
 6121TIP3   OH218368   4.062   2.984   1.484  0.1210  0.1415 -0.0735
 6121TIP3    H118369   4.023   2.951   1.565  0.4226 -0.3651 -0.1310
 6121TIP3    H218370   4.072   2.906   1.429  1.5231  0.2006  0.0666
 6122TIP3   OH218371   5.508   2.802   0.764  0.2893 -0.2468 -0.1027
 6122TIP3    H118372   5.423   2.761   0.746  0.0362  0.1218  0.2168
 6122TIP3    H218373   5.518   2.796   0.859  0.7280 -0.4884 -0.1612
 6123TIP3   OH218374   6.077   4.785   2.006  0.6357  0.4871  0.7249
 6123TIP3    H118375   6.150   4.782   2.068  2.5238  1.3019 -1.2938
 6123TIP3    H218376   6.095   4.863   1.952 -0.6223 -0.4312 -1.1315
 6124TIP3   OH218377   1.264   4.689   2.472 -0.0581  0.4746  0.1435
 6124TIP3    H118378   1.180   4.657   2.506  1.1345 -1.1275  1.7675
 6124TIP3    H218379   1.290   4.758   2.533 -0.8153  1.9923 -1.1796
 6125TIP3   OH218380   5.806   1.591   2.801 -0.2700 -0.2321  0.4821
 6125TIP3    H118381   5.735   1.593   2.865 -0.4011  0.1972  0.3273
 6125TIP3    H218382   5.875   1.646   2.840 -0.9547  1.3518 -0.4281
 6126TIP3   OH218383   4.711   1.560   3.294  0.1160  0.5979  0.3608
 6126TIP3    H118384   4.635   1.599   3.252  0.5313  0.5609 -0.4376
 6126TIP3    H218385   4.785   1.582   3.237  0.1682 -2.8497 -1.1341
 6127TIP3   OH218386   3.916   4.583   3.727  0.2327 -0.1923  0.0896
 6127TIP3    H118387   3.871   4.499   3.739  0.2995 -0.2144  0.1850
 6127TIP3    H218388   3.889   4.612   3.640  0.9582 -0.7683 -0.3387
 6128TIP3   OH218389   2.051   0.811   2.752  0.2491  0.4271 -0.7016
 6128TIP3    H118390   1.976   0.784   2.699 -1.2030 -1.0880  1.9533
 6128TIP3    H218391   2.107   0.733   2.755  0.5792  0.6734 -0.4040
 6129TIP3   OH218392   5.551   0.586   2.415 -0.0137  0.4955  0.1399
 6129TIP3    H118393   5.458   0.591   2.394  0.0818 -0.5070 -0.6136
 6129TIP3    H218394   5.566   0.658   2.476 -1.3977  0.3426  0.6975
 6130TIP3   OH218395   4.698   0.655   5.171  0.5952 -0.2887  0.5499
 6130TIP3    H118396   4.770   0.617   5.121  0.1493 -2.0362  1.1748
 6130TIP3    H218397   4.640   0.582   5.190 -2.3177  1.2892 -1.3864
 6131TIP3   OH218398   3.934   5.827   2.793  0.9554 -0.4096  0.2329
 6131TIP3    H118399   3.967   5.784   2.872  0.0744 -1.9320 -0.1957
 6131TIP3    H218400   3.845   5.795   2.784  0.6734  0.6118 -0.7818
 6132TIP3   OH218401   0.556   0.387   3.469  0.2514 -0.2101 -0.1912
 6132TIP3    H118402   0.550   0.430   3.555 -1.4160 -0.7556  0.0096
 6132TIP3    H218403   0.470   0.347   3.457  0.9744 -1.4681 -1.4390
 6133TIP3   OH218404   3.164   5.752   3.505 -0.7640 -0.5627  0.1743
 6133TIP3    H118405   3.102   5.779   3.573  0.2228  1.4462  0.3453
 6133TIP3    H218406   3.250   5.777   3.539  0.1406 -2.7664 -0.3075
 6134TIP3   OH218407   0.320   1.291   1.267 -0.4780  0.1831  0.7517
 6134TIP3    H118408   0.410   1.257   1.271  0.1009  1.6585  0.8845
 6134TIP3    H218409   0.287   1.284   1.357 -0.0633  0.7152  0.9526
 6135TIP3   OH218410   2.250   0.868   0.676  0.1574  0.2910 -0.5755
 6135TIP3    H118411   2.176   0.923   0.652  0.6632  1.4027  0.3416
 6135TIP3    H218412   2.323   0.903   0.626  0.0155 -1.0447 -1.7705
 6136TIP3   OH218413   4.253   0.839   3.927 -0.0356  0.0779  0.8756
 6136TIP3    H118414   4.218   0.903   3.864 -0.0373  0.9503  1.7504
 6136TIP3    H218415   4.179   0.781   3.945  0.2249 -0.8072 -0.6600
 6137TIP3   OH218416   3.990   0.691   4.430  0.1090 -0.2371  0.3188
 6137TIP3    H118417   4.011   0.751   4.358  1.1775 -0.9345  0.0301
 6137TIP3    H218418   4.073   0.649   4.452  0.0155  0.5716  2.5623
 6138TIP3   OH218419   0.966   5.809   1.148 -0.4426  0.1249 -0.5209
 6138TIP3    H118420   1.008   5.727   1.173 -0.1819  0.6886  1.0428
 6138TIP3    H218421   1.025   5.847   1.083 -0.4439 -0.8030 -1.0824
 6139TIP3   OH218422   6.063   0.042   2.317  0.3395 -0.1809 -0.1684
 6139TIP3    H118423   6.091  -0.028   2.376 -0.7690 -2.0377 -1.7179
 6139TIP3    H218424   6.032  -0.003   2.238 -0.8895  2.0336 -1.0744
 6140TIP3   OH218425   1.344   4.897   1.997  0.0362  0.3324 -0.3428
 6140TIP3    H118426   1.306   4.887   2.084 -1.3293  0.5645 -0.8882
 6140TIP3    H218427   1.387   4.983   2.000  0.6784  0.0055  0.3243
 6141TIP3   OH218428   0.579   1.256   0.805 -0.0866  0.7330 -0.2036
 6141TIP3    H118429   0.493   1.295   0.821 -0.9067 -0.3868 -1.6145
 6141TIP3    H218430   0.606   1.223   0.890 -1.9839 -0.6561 -0.0771
 6142TIP3   OH218431   2.295   4.843   1.124 -0.7179 -1.0739  0.7157
 6142TIP3    H118432   2.253   4.883   1.201 -1.9425 -0.7289 -0.0944
 6142TIP3    H218433   2.255   4.888   1.049  1.7459 -0.1034 -0.1405
 6143TIP3   OH218434   1.617   5.493   3.941 -0.4883 -0.2500 -0.5531
 6143TIP3    H118435   1.625   5.410   3.894  1.2269 -0.6372  0.3222
 6143TIP3    H218436   1.681   5.550   3.898  0.3045 -0.2657  0.5636
 6144TIP3   OH218437   4.034   4.260   4.921  0.1145 -0.0342 -0.1676
 6144TIP3    H118438   4.101   4.196   4.945 -0.7687 -0.7011  0.5862
 6144TIP3    H218439   4.066   4.298   4.839  2.4049  1.1265  1.1612
 6145TIP3   OH218440   4.285   2.484   2.942  0.0932 -0.1657  0.6209
 6145TIP3    H118441   4.295   2.571   2.981  0.1930 -0.1405  0.5394
 6145TIP3    H218442   4.247   2.502   2.855 -1.8787 -0.3275  1.4018
 6146TIP3   OH218443   5.496   3.922   3.519  0.1467  0.1461  0.3365
 6146TIP3    H118444   5.469   3.831   3.510  0.7558 -0.0066  0.0609
 6146TIP3    H218445   5.431   3.971   3.467  0.8987 -0.3042 -1.0940
 6147TIP3   OH218446   5.082   0.310   3.034  0.0904  0.0267 -0.2787
 6147TIP3    H118447   5.001   0.285   3.079  0.9569 -0.3142  1.1482
 6147TIP3    H218448   5.105   0.395   3.071  0.0798  0.4006 -1.1168
 6148TIP3   OH218449   1.553   0.327  -0.017  0.2082  0.5402  0.1167
 6148TIP3    H118450   1.570   0.264   0.053  0.8048 -0.2740 -0.7373
 6148TIP3    H218451   1.522   0.406   0.028 -2.5049 -0.9606  1.1174
 6149TIP3   OH218452   2.469   3.973   1.384  0.6748  0.3524 -0.5950
 6149TIP3    H118453   2.418   4.033   1.438  2.7305  1.9625 -0.3163
 6149TIP3    H218454   2.482   3.896   1.439  0.0048  0.6266 -0.0363
 6150TIP3   OH218455   1.337   3.285   2.372 -0.3903 -0.4856  0.1268
 6150TIP3    H118456   1.399   3.349   2.336  0.0818 -1.1341 -0.2321
 6150TIP3    H218457   1.347   3.208   2.316 -0.3903 -1.1496  1.0210
 6151TIP3   OH218458   0.262   0.959   4.656  0.4545 -0.3658 -0.1024
 6151TIP3    H118459   0.319   0.919   4.721 -1.0306 -2.0780  0.2186
 6151TIP3    H218460   0.315   0.966   4.577  0.7757 -3.1299 -0.2022
 6152TIP3   OH218461   5.163   0.748   2.024 -0.0025  0.1479  0.3158
 6152TIP3    H118462   5.197   0.823   1.977 -1.7396  0.7937  0.0136
 6152TIP3    H218463   5.079   0.729   1.982  0.0453 -1.4835  0.8812
 6153TIP3   OH218464   5.987   4.123   3.700  0.1434 -0.2061 -0.1476
 6153TIP3    H118465   6.083   4.126   3.705  0.0841 -0.1002  1.4345
 6153TIP3    H218466   5.958   4.140   3.789 -1.3234 -1.8754 -0.2397
 6154TIP3   OH218467   3.486   4.604   4.767  0.0946 -0.2447  0.6435
 6154TIP3    H118468   3.559   4.627   4.823 -0.7579  0.3755  1.5380
 6154TIP3    H218469   3.510   4.520   4.729  0.4161 -1.0260  2.4689
 6155TIP3   OH218470   5.169   4.878   2.427 -0.0275  0.2498  0.2008
 6155TIP3    H118471   5.215   4.871   2.511 -2.5037 -1.2348  1.5731
 6155TIP3    H218472   5.103   4.946   2.441 -0.5814 -0.1330 -0.4524
 6156TIP3   OH218473   2.772   0.809   0.106 -0.0856  0.1718 -0.7871
 6156TIP3    H118474   2.799   0.824   0.197  1.4227  1.6118 -1.4116
 6156TIP3    H218475   2.838   0.749   0.071  0.1588  0.7213 -1.2920
 6157TIP3   OH218476   4.623   4.625   2.793  0.0137 -0.4149 -0.6468
 6157TIP3    H118477   4.533   4.654   2.807 -0.7868 -2.2593 -1.6919
 6157TIP3    H218478   4.650   4.668   2.712  0.6126  1.2272  0.3714
 6158TIP3   OH218479   1.823   3.881   0.412  0.2429 -0.1915 -0.2220
 6158TIP3    H118480   1.762   3.829   0.465  0.8618  0.5947  1.3571
 6158TIP3    H218481   1.794   3.972   0.424  0.3935  0.0058 -1.2651
 6159TIP3   OH218482   0.907   3.150   4.966  0.2357  0.3237 -0.0885
 6159TIP3    H118483   0.840   3.193   4.913 -2.3326 -2.1867  0.7862
 6159TIP3    H218484   0.906   3.198   5.049 -1.6302 -0.4639  0.4177
 6160TIP3   OH218485   5.372   1.539   3.330 -0.2146 -0.2639 -0.3170
 6160TIP3    H118486   5.332   1.479   3.393  0.3718 -1.4861 -1.0609
 6160TIP3    H218487   5.301   1.598   3.305 -0.7142 -0.3990  0.7249
 6161TIP3   OH218488   5.386   3.507   4.366 -0.4951 -0.1557 -0.0613
 6161TIP3    H118489   5.336   3.585   4.391 -0.0697  0.9643 -2.4098
 6161TIP3    H218490   5.322   3.450   4.323 -0.7967 -1.1575  1.6160
 6162TIP3   OH218491   3.551   3.789   0.535  0.3176 -0.0438  0.1710
 6162TIP3    H118492   3.464   3.820   0.561  0.2319  0.6819 -0.9117
 6162TIP3    H218493   3.566   3.712   0.590 -0.2302  0.8637  1.6517
 6163TIP3   OH218494   3.885   5.920   3.612  0.2415 -0.1610 -0.1959
 6163TIP3    H118495   3.950   5.977   3.571  0.9115 -1.2287 -0.6439
 6163TIP3    H218496   3.925   5.892   3.694 -0.7663  1.3172  0.8508
 6164TIP3   OH218497   2.729   4.478   4.535 -0.1246 -0.0957  0.3119
 6164TIP3    H118498   2.688   4.554   4.577 -0.7964  0.6697 -1.6414
 6164TIP3    H218499   2.657   4.417   4.519  0.2955 -0.8464  1.1768
 6165TIP3   OH218500   1.589   4.480   2.381 -0.3285 -0.3257 -0.2279
 6165TIP3    H118501   1.496   4.505   2.379 -0.2690  0.0237  0.8043
 6165TIP3    H218502   1.608   4.469   2.474  1.2103  1.6658 -0.2490
 6166TIP3   OH218503   2.961   2.899   2.419 -0.7403  0.1701  0.4921
 6166TIP3    H118504   3.045   2.937   2.393 -0.8556  0.2194  0.1815
 6166TIP3    H218505   2.978   2.859   2.504 -0.9115  1.9399  1.4042
 6167TIP3   OH218506   4.616   1.503   4.775  0.3220 -0.2479  0.0114
 6167TIP3    H118507   4.598   1.474   4.865  0.3832 -1.3379 -0.3120
 6167TIP3    H218508   4.608   1.423   4.722  0.3884  0.3632 -0.9394
 6168TIP3   OH218509   1.095   0.110   2.832  0.4310 -0.1224 -0.5126
 6168TIP3    H118510   1.178   0.067   2.813  1.0273 -0.1627  1.9348
 6168TIP3    H218511   1.043   0.044   2.878  0.2898  0.8894  0.8179
 6169TIP3   OH218512   6.381   5.675   4.395 -0.1257  0.3730  0.3610
 6169TIP3    H118513   6.332   5.602   4.432  1.7815 -0.2862  1.7482
 6169TIP3    H218514   6.314   5.740   4.374 -1.6544 -0.7547  1.4360
 6170TIP3   OH218515   5.040   3.574   1.342  0.1555  0.1624  0.0681
 6170TIP3    H118516   5.050   3.486   1.306 -0.3518  0.3929 -0.6698
 6170TIP3    H218517   5.060   3.564   1.435  0.8589 -0.5780 -0.1481
 6171TIP3   OH218518   1.750   0.493   4.481 -0.4218  0.6142 -0.5735
 6171TIP3    H118519   1.683   0.444   4.433 -0.2940  1.1168 -1.2761
 6171TIP3    H218520   1.726   0.482   4.573  0.3380 -1.8452 -0.6018
 6172TIP3   OH218521   6.309   5.900   5.168  0.0114  0.5729  0.3700
 6172TIP3    H118522   6.343   5.985   5.194 -0.4891  0.6607  0.7660
 6172TIP3    H218523   6.377   5.862   5.112  1.3591  0.1726  2.1964
 6173TIP3   OH218524   2.676   4.985   4.860 -0.5557 -0.0467 -0.0053
 6173TIP3    H118525   2.604   4.972   4.797  0.7246  0.0841 -1.5737
 6173TIP3    H218526   2.723   4.901   4.859  1.1580  0.8650 -1.4941
 6174TIP3   OH218527   4.128   1.766   4.045 -0.2015  0.0121 -0.0566
 6174TIP3    H118528   4.123   1.735   3.955 -0.9520 -2.2851  0.6772
 6174TIP3    H218529   4.036   1.782   4.070 -0.0939 -0.2962  0.5638
 6175TIP3   OH218530   1.914   4.248   0.165 -0.2545  0.0682  0.5196
 6175TIP3    H118531   1.846   4.228   0.230  0.7365  0.9343  1.8908
 6175TIP3    H218532   1.972   4.172   0.168  0.1901  0.4215  1.2239
 6176TIP3   OH218533   4.693   2.132   3.788  0.5725 -0.3694  0.2653
 6176TIP3    H118534   4.770   2.188   3.774  1.0968 -0.9512  0.7635
 6176TIP3    H218535   4.726   2.057   3.837  0.1003 -1.6756 -1.3114
 6177TIP3   OH218536   3.305   2.213   3.460  0.2489 -0.3629  0.3873
 6177TIP3    H118537   3.302   2.182   3.551  1.0855  0.8733  0.8699
 6177TIP3    H218538   3.323   2.134   3.409  0.4233 -0.9798  1.3661
 6178TIP3   OH218539   0.687   0.466   1.998  0.3306 -0.4434 -0.4484
 6178TIP3    H118540   0.673   0.531   1.929 -0.0705 -2.1964 -2.1256
 6178TIP3    H218541   0.618   0.482   2.062 -0.3112  0.1927 -1.2917
 6179TIP3   OH218542   3.274   3.464   0.579  0.2909 -0.0861  0.4898
 6179TIP3    H118543   3.236   3.530   0.521 -0.1020 -0.2840  0.5153
 6179TIP3    H218544   3.257   3.497   0.667  1.0162  0.2854  0.4957
 6180TIP3   OH218545   0.592   3.157   0.257 -0.4177  0.0307 -0.1541
 6180TIP3    H118546   0.552   3.190   0.177  0.3964  1.7773  0.1234
 6180TIP3    H218547   0.548   3.203   0.328 -0.2265 -0.5262  0.3399
 6181TIP3   OH218548   2.693   1.276   2.917  0.5060  0.4347 -0.5147
 6181TIP3    H118549   2.777   1.282   2.964  0.3504 -0.8722 -0.0341
 6181TIP3    H218550   2.639   1.344   2.958  0.8352  0.2556  0.2456
 6182TIP3   OH218551   0.265   0.015   3.135 -0.3186 -0.3922  0.1384
 6182TIP3    H118552   0.275   0.057   3.221  0.5730 -0.0761 -0.1088
 6182TIP3    H218553   0.172   0.021   3.116 -0.4242  0.1410  0.7849
 6183TIP3   OH218554   2.021   2.507   4.240  0.0482  0.6628 -0.2492
 6183TIP3    H118555   2.050   2.540   4.155  1.1559  2.5724  0.7933
 6183TIP3    H218556   2.099   2.467   4.278 -0.8161 -1.5595 -0.7028
 6184TIP3   OH218557   6.181   0.904   1.642 -0.4420 -0.2708 -0.4035
 6184TIP3    H118558   6.170   0.916   1.737  1.1801  0.2883 -0.2632
 6184TIP3    H218559   6.107   0.952   1.604 -0.6327  0.2172  0.5494
 6185TIP3   OH218560   0.727   1.176   0.057  0.5421 -0.3426  0.0290
 6185TIP3    H118561   0.744   1.098   0.110 -0.4856 -1.8329 -1.7243
 6185TIP3    H218562   0.702   1.244   0.120 -1.3759 -2.2447  1.4254
 6186TIP3   OH218563   3.269   4.190   2.912 -0.0018 -0.3454  0.7182
 6186TIP3    H118564   3.284   4.110   2.861  0.2818 -0.1816  0.5429
 6186TIP3    H218565   3.181   4.219   2.887  0.0205 -0.4277  0.5468
 6187TIP3   OH218566   4.750   5.128   2.673 -0.0767 -0.1331  0.1001
 6187TIP3    H118567   4.758   5.132   2.769  0.4634  0.0193  0.0508
 6187TIP3    H218568   4.742   5.220   2.646 -0.7942 -0.2040  0.0388
 6188TIP3   OH218569   2.422   5.625   3.776 -0.0600 -0.2909 -0.1569
 6188TIP3    H118570   2.373   5.707   3.787  0.0828  0.0025 -1.5060
 6188TIP3    H218571   2.355   5.556   3.780 -0.5137  0.0625 -1.2903
 6189TIP3   OH218572   4.790   4.414   1.461  0.9888  0.0896  0.7404
 6189TIP3    H118573   4.790   4.500   1.503  1.1325  0.1629  0.5895
 6189TIP3    H218574   4.840   4.358   1.521 -0.4522 -0.2852  1.6420
 6190TIP3   OH218575   2.927   4.654   0.691 -0.4685 -0.3802  0.6329
 6190TIP3    H118576   3.001   4.626   0.744 -0.9900 -3.0400  0.1301
 6190TIP3    H218577   2.964   4.672   0.605 -0.3209 -1.3484  0.4802
 6191TIP3   OH218578   4.401   5.419   3.147  0.1324 -0.6660 -0.1474
 6191TIP3    H118579   4.484   5.442   3.190 -0.0987 -0.2889  0.0970
 6191TIP3    H218580   4.402   5.323   3.145  0.7735 -0.6599 -0.5384
 6192TIP3   OH218581   3.998   2.621   2.121  0.3898  0.3843  0.2361
 6192TIP3    H118582   3.927   2.681   2.148  0.9678  1.2356 -0.0931
 6192TIP3    H218583   3.952   2.544   2.088 -0.3644  0.3076  1.3974
 6193TIP3   OH218584   2.548   4.379   0.143  0.0840 -0.1919 -0.4391
 6193TIP3    H118585   2.534   4.464   0.101  1.5423 -0.8338 -2.3831
 6193TIP3    H218586   2.469   4.328   0.123  0.2280 -0.0671 -1.3292
 6194TIP3   OH218587   3.608   0.969   4.414  0.3716  0.2711  0.2739
 6194TIP3    H118588   3.649   0.972   4.501 -0.3543  1.2057  0.6066
 6194TIP3    H218589   3.665   1.021   4.359  0.6943 -0.1067  0.2430
 6195TIP3   OH218590   2.528   0.519   1.588 -0.3014  0.1939  0.7924
 6195TIP3    H118591   2.484   0.482   1.511  0.1292 -0.4138  0.8247
 6195TIP3    H218592   2.622   0.508   1.569 -0.1145  2.1887  0.3677
 6196TIP3   OH218593   3.340   5.284   1.735 -0.6551 -0.4706  0.6319
 6196TIP3    H118594   3.336   5.199   1.781 -1.5540  0.3564  2.1644
 6196TIP3    H218595   3.318   5.263   1.644  0.5534 -2.0852  0.6710
 6197TIP3   OH218596   2.469   2.097   4.567  0.2588 -0.3691 -0.4990
 6197TIP3    H118597   2.514   2.107   4.484 -0.1442  1.6573 -0.5056
 6197TIP3    H218598   2.513   2.022   4.609  2.3220  0.3062 -1.3259
 6198TIP3   OH218599   6.063   1.423   1.541  0.5968  0.4230  0.2968
 6198TIP3    H118600   6.114   1.356   1.585  0.0983 -0.7022 -0.7644
 6198TIP3    H218601   5.990   1.441   1.600 -0.1645 -1.1929 -0.0911
 6199TIP3   OH218602   1.862   3.163   3.071  0.2571 -0.3822 -0.3095
 6199TIP3    H118603   1.914   3.161   3.151  0.7334  0.9585 -0.5597
 6199TIP3    H218604   1.775   3.134   3.098  0.5080 -0.3075  0.6162
 6200TIP3   OH218605   0.618   1.784   4.442 -0.1552  0.5231 -0.5133
 6200TIP3    H118606   0.610   1.879   4.443  0.2995  0.5831  1.1479
 6200TIP3    H218607   0.673   1.764   4.518 -2.8813 -1.2446  1.1900
 6201TIP3   OH218608   1.034   0.230   3.865 -0.1721 -0.3140 -0.2702
 6201TIP3    H118609   1.009   0.313   3.824 -1.2815 -0.3501  0.3234
 6201TIP3    H218610   0.960   0.172   3.849  0.2494 -0.9434  0.0450
 6202TIP3   OH218611   5.514   1.765   1.825 -0.1411  0.3052  0.3823
 6202TIP3    H118612   5.428   1.736   1.856  0.1512 -0.7099  0.2891
 6202TIP3    H218613   5.510   1.753   1.730  1.0017 -2.4524  0.5735
 6203TIP3   OH218614   4.543   3.735   3.893 -0.1217 -0.0156  0.1202
 6203TIP3    H118615   4.532   3.773   3.980 -1.9817  1.6281 -0.7519
 6203TIP3    H218616   4.620   3.679   3.901  1.5971  2.3756  2.0760
 6204TIP3   OH218617   1.330   0.063   4.670  0.3016 -0.3203  0.1273
 6204TIP3    H118618   1.351   0.134   4.611 -1.7898 -0.9478 -1.4972
 6204TIP3    H218619   1.277   0.103   4.739  0.3612 -0.0589  0.0199
 6205TIP3   OH218620   5.546   2.335   4.492  0.1406 -0.1609  0.2013
 6205TIP3    H118621   5.525   2.329   4.398  3.7509  1.3791 -0.8946
 6205TIP3    H218622   5.582   2.249   4.514  1.2673  0.1128 -0.4760
 6206TIP3   OH218623   0.301   0.720   3.424 -1.1508 -0.4252 -0.1785
 6206TIP3    H118624   0.304   0.686   3.334  0.5687 -0.5913 -0.1010
 6206TIP3    H218625   0.272   0.646   3.476  0.3200 -1.1317 -0.3073
 6207TIP3   OH218626   5.697   2.062   3.376  0.3218 -1.1735 -0.5771
 6207TIP3    H118627   5.711   2.153   3.403 -0.0465 -0.9113 -1.2537
 6207TIP3    H218628   5.656   2.021   3.452 -0.2413 -0.5695 -0.5468
 6208TIP3   OH218629   3.005   4.772   4.659  0.1952  0.0606  0.2270
 6208TIP3    H118630   3.005   4.794   4.566 -1.2673 -2.5149 -0.4712
 6208TIP3    H218631   3.092   4.735   4.675  0.3947  0.3677 -0.1436
 6209TIP3   OH218632   3.668   3.503   1.335  0.7655  0.4419  0.1657
 6209TIP3    H118633   3.712   3.537   1.413  1.3539  0.6340 -0.2451
 6209TIP3    H218634   3.609   3.574   1.308  1.0428  0.6396  0.0642
 6210TIP3   OH218635   5.229   2.499   2.731  0.1845  0.0100 -0.5854
 6210TIP3    H118636   5.315   2.476   2.766  0.2683  1.4494  0.2366
 6210TIP3    H218637   5.235   2.594   2.714 -1.4996  0.3157  0.3145
 6211TIP3   OH218638   2.641   4.868   2.348 -0.6620 -0.1711 -0.0519
 6211TIP3    H118639   2.550   4.842   2.339 -0.9594  0.8706 -0.2041
 6211TIP3    H218640   2.683   4.795   2.393 -1.9792  0.1296  1.7669
 6212TIP3   OH218641   0.713   4.869   2.641 -0.8312 -0.1268  0.7058
 6212TIP3    H118642   0.697   4.843   2.731 -1.0278 -1.6029  0.2723
 6212TIP3    H218643   0.725   4.787   2.594  2.7063  0.6587 -0.0241
 6213TIP3   OH218644   2.249   2.175   4.271  0.1862  0.5682 -0.1453
 6213TIP3    H118645   2.324   2.228   4.298  2.1384 -1.2127 -1.7008
 6213TIP3    H218646   2.247   2.183   4.175 -0.3471 -0.9505 -0.2939
 6214TIP3   OH218647   5.596   3.249   3.002  0.0072  0.0204  0.4376
 6214TIP3    H118648   5.672   3.305   3.018 -0.1007  0.1143  0.6238
 6214TIP3    H218649   5.527   3.287   3.056 -0.0997 -0.2228  0.4722
 6215TIP3   OH218650   1.765   5.397   3.068 -0.0964 -0.3652  0.5069
 6215TIP3    H118651   1.733   5.476   3.023  0.3725  0.1447  1.0603
 6215TIP3    H218652   1.792   5.428   3.154  1.2761 -0.9009  0.2939
 6216TIP3   OH218653   1.958   5.540   0.452 -0.6888  0.1914 -1.0061
 6216TIP3    H118654   1.917   5.545   0.365 -2.3467 -0.0672 -0.2871
 6216TIP3    H218655   1.931   5.454   0.485  1.7029 -0.6437 -1.0419
 6217TIP3   OH218656   1.257   0.313   1.946  0.1123  0.0565 -0.4110
 6217TIP3    H118657   1.250   0.392   1.894 -1.2541 -0.0404 -0.4288
 6217TIP3    H218658   1.271   0.243   1.883 -0.6992  0.0455 -0.5910
 6218TIP3   OH218659   2.062   1.075   3.204 -0.2613  0.4886 -0.1290
 6218TIP3    H118660   2.031   0.987   3.183  3.1479 -0.6548 -0.9489
 6218TIP3    H218661   2.062   1.121   3.119  0.9473  0.2130 -0.2912
 6219TIP3   OH218662   3.827   3.155   3.464  0.6458 -0.0680  0.1541
 6219TIP3    H118663   3.825   3.149   3.560 -0.5728 -0.3108  0.1207
 6219TIP3    H218664   3.769   3.228   3.443  1.3092  0.3181 -0.3845
 6220TIP3   OH218665   3.311   5.167   2.838 -0.8003  0.0178  0.2929
 6220TIP3    H118666   3.326   5.110   2.762  1.7020 -1.5020  1.7743
 6220TIP3    H218667   3.228   5.137   2.875 -0.7743 -0.9479 -0.4003
 6221TIP3   OH218668   4.882   2.066   4.392 -0.1359 -0.0138  0.3957
 6221TIP3    H118669   4.948   2.001   4.418 -1.5718 -1.0654  1.5950
 6221TIP3    H218670   4.909   2.094   4.305  0.9263 -1.6875  0.1437
 6222TIP3   OH218671   0.963   4.694   2.861  0.0364 -0.0857 -0.2377
 6222TIP3    H118672   1.051   4.711   2.826  0.5368 -0.6169  0.7388
 6222TIP3    H218673   0.947   4.602   2.841  0.2315 -0.3319  0.7008
 6223TIP3   OH218674   4.770   0.189   2.753 -0.2750 -0.2848 -0.4854
 6223TIP3    H118675   4.704   0.135   2.710 -0.7847 -1.9880  2.2077
 6223TIP3    H218676   4.781   0.150   2.840  1.2767  2.4370  0.6806
 6224TIP3   OH218677   5.009   4.092   3.276 -0.3135 -0.1746  0.0865
 6224TIP3    H118678   4.971   4.178   3.258 -0.3783 -0.4215 -0.9894
 6224TIP3    H218679   4.983   4.038   3.202  0.2168 -0.9692  0.4671
 6225TIP3   OH218680   2.124   1.974   4.825  0.3147 -0.3554 -0.1943
 6225TIP3    H118681   2.179   2.046   4.794 -0.8370 -0.2026 -2.0623
 6225TIP3    H218682   2.102   1.998   4.915  0.3185  1.4329 -0.6249
 6226TIP3   OH218683   2.316   1.729   1.418 -0.1986  0.2821 -0.2810
 6226TIP3    H118684   2.342   1.740   1.326 -1.7111  1.2746 -0.6266
 6226TIP3    H218685   2.253   1.657   1.417  0.1435 -0.0267  0.0641
 6227TIP3   OH218686   0.195   0.894   2.990 -0.1181 -0.3821  0.1104
 6227TIP3    H118687   0.135   0.923   3.059 -0.0112  0.7026 -0.2299
 6227TIP3    H218688   0.140   0.849   2.927 -0.2690 -1.0815  0.7271
 6228TIP3   OH218689   1.315   2.962   2.246  0.1747 -0.3556  0.1360
 6228TIP3    H118690   1.406   2.938   2.228 -0.1763 -1.4637 -0.2565
 6228TIP3    H218691   1.296   2.921   2.331 -0.1089 -0.5741 -0.0303
 6229TIP3   OH218692   6.088   4.346   4.527 -0.1452 -0.1026 -0.0509
 6229TIP3    H118693   6.156   4.306   4.581 -0.3356 -0.0513  0.2268
 6229TIP3    H218694   6.006   4.326   4.572 -0.4559 -1.3861 -1.1117
 6230TIP3   OH218695   3.602   3.052   2.771 -0.5720  0.0701 -0.3001
 6230TIP3    H118696   3.636   3.101   2.696 -0.6008  0.2843 -0.1727
 6230TIP3    H218697   3.513   3.028   2.746  0.2709 -2.1328 -1.4366
 6231TIP3   OH218698   0.860  -0.021   2.293 -0.4008  1.0308  0.3230
 6231TIP3    H118699   0.814  -0.011   2.377 -2.7682  0.9381 -0.9008
 6231TIP3    H218700   0.855   0.065   2.252  1.3986  1.2758  0.5075
 6232TIP3   OH218701   4.550   2.439   2.432 -0.5930  0.3350 -0.0936
 6232TIP3    H118702   4.607   2.395   2.368 -1.4949 -1.4269  0.2448
 6232TIP3    H218703   4.536   2.526   2.395  0.2923 -0.0565 -1.4459
 6233TIP3   OH218704   1.331   4.419   0.895 -0.0257  0.3384 -0.1303
 6233TIP3    H118705   1.420   4.454   0.890  1.0542 -2.3201 -2.6476
 6233TIP3    H218706   1.282   4.468   0.830  0.4851 -0.2383 -0.9711
 6234TIP3   OH218707   0.049   1.565   3.472  1.0769 -0.9167  0.4162
 6234TIP3    H118708   0.126   1.620   3.465  0.5370 -0.1360  0.4328
 6234TIP3    H218709   0.009   1.589   3.555  0.7909 -1.2721  0.3844
 6235TIP3   OH218710   1.256   1.036   0.193 -0.1126  0.3283  0.3868
 6235TIP3    H118711   1.266   0.987   0.112 -1.0017  0.7377  0.0173
 6235TIP3    H218712   1.173   1.083   0.183  0.9838  2.3855  0.4743
 6236TIP3   OH218713   2.664   0.409   1.226  0.0761 -0.2053 -0.0736
 6236TIP3    H118714   2.589   0.469   1.225 -1.1647 -1.6311  1.5136
 6236TIP3    H218715   2.659   0.363   1.143 -0.1741  0.4417 -0.4267
 6237TIP3   OH218716   1.229   4.219   2.100  0.3396 -0.1372  0.4458
 6237TIP3    H118717   1.281   4.162   2.156 -0.3730 -1.8525 -0.5762
 6237TIP3    H218718   1.227   4.303   2.147  1.9472 -0.7393  1.6726
 6238TIP3   OH218719   2.922   2.592   0.390 -0.6021 -0.2634 -0.7638
 6238TIP3    H118720   2.844   2.539   0.406  0.4312 -1.8597 -0.7543
 6238TIP3    H218721   2.944   2.629   0.476 -1.1789 -0.0108 -0.7181
 6239TIP3   OH218722   3.872   1.299   1.230  0.0717 -0.6664 -0.3639
 6239TIP3    H118723   3.963   1.288   1.205  0.0202  0.8072 -1.3585
 6239TIP3    H218724   3.822   1.285   1.150 -0.3884  0.5114 -0.3192
 6240TIP3   OH218725   0.837   3.349   2.540  0.5118 -0.4541  0.2333
 6240TIP3    H118726   0.835   3.344   2.636 -2.1107 -1.5004  0.2124
 6240TIP3    H218727   0.917   3.304   2.515  0.7132 -1.1007  1.9094
 6241TIP3   OH218728   3.537   3.053   3.544 -0.3697  0.1558  0.0463
 6241TIP3    H118729   3.538   2.959   3.530 -1.7974  0.0017  0.8270
 6241TIP3    H218730   3.457   3.070   3.594  1.1275  1.4646  2.1728
 6242TIP3   OH218731   3.971   5.498   1.428 -0.3177  0.6831 -0.5189
 6242TIP3    H118732   3.881   5.478   1.454  0.1637  1.2316  1.7284
 6242TIP3    H218733   3.981   5.591   1.444  0.5777  0.6797 -1.0135
 6243TIP3   OH218734   4.850   3.629   4.955  0.1777 -0.4776 -0.0231
 6243TIP3    H118735   4.833   3.654   4.864 -0.0444 -1.7442 -0.3482
 6243TIP3    H218736   4.766   3.595   4.986  0.0105  0.7420  0.9594
 6244TIP3   OH218737   2.529   1.435   3.077 -0.6546 -0.5281 -0.6447
 6244TIP3    H118738   2.522   1.430   3.172  0.4446  0.9048 -0.4491
 6244TIP3    H218739   2.458   1.380   3.045 -2.1287  0.2994  1.0172
 6245TIP3   OH218740   4.994   1.632   4.381 -0.6607  0.1682  0.2107
 6245TIP3    H118741   5.044   1.651   4.302 -0.0212 -0.6803  0.3921
 6245TIP3    H218742   5.004   1.711   4.435 -0.1655  0.3184 -0.0910
 6246TIP3   OH218743   3.261   1.381   3.968 -0.1474  0.0123 -0.0478
 6246TIP3    H118744   3.346   1.338   3.980 -0.3216 -1.4187 -2.8786
 6246TIP3    H218745   3.207   1.349   4.041  1.9161  1.7849  2.4316
 6247TIP3   OH218746   5.367   0.040   1.692 -0.1351  0.8166 -0.2087
 6247TIP3    H118747   5.450   0.087   1.681 -0.8376  1.9775 -0.8040
 6247TIP3    H218748   5.312   0.100   1.743 -0.3582 -0.2808  0.8873
 6248TIP3   OH218749   3.245   4.440   2.109  0.5075  0.1257  0.1076
 6248TIP3    H118750   3.190   4.372   2.148 -1.2749  1.5309  0.2042
 6248TIP3    H218751   3.320   4.448   2.168 -0.9313  0.5453  1.9975
 6249TIP3   OH218752   0.475   4.865   2.431  0.3555  0.5209 -0.5689
 6249TIP3    H118753   0.495   4.929   2.499  1.6120 -2.1023  1.7183
 6249TIP3    H218754   0.390   4.830   2.456  0.9825 -0.7062 -0.0761
 6250TIP3   OH218755   0.068   0.346   4.180 -0.4869 -0.1172  0.0527
 6250TIP3    H118756   0.018   0.314   4.255  0.5718 -1.6171  0.1570
 6250TIP3    H218757   0.157   0.353   4.213 -0.2468  0.5083 -0.7107
 6251TIP3   OH218758   5.771   2.014   0.036  0.0522 -0.0965  0.2754
 6251TIP3    H118759   5.860   1.995   0.064  0.1057  0.5457  0.5434
 6251TIP3    H218760   5.763   2.109   0.040 -0.3254 -0.0638 -0.7109
 6252TIP3   OH218761   5.788   1.506   4.460  0.0654 -0.4608  0.3901
 6252TIP3    H118762   5.773   1.419   4.421 -2.1725 -0.3478  0.8185
 6252TIP3    H218763   5.733   1.506   4.538  2.3543  0.3087  2.0760
 6253TIP3   OH218764   0.209   0.060   0.612  0.2370 -0.1083  0.5921
 6253TIP3    H118765   0.293   0.017   0.627  0.2998 -0.2809 -0.2321
 6253TIP3    H218766   0.155   0.032   0.686  0.4852 -1.0837  0.4199
 6254TIP3   OH218767   3.478   1.919   1.234 -0.3640  0.2898  0.4743
 6254TIP3    H118768   3.464   1.824   1.229  1.5708 -0.0615  1.0963
 6254TIP3    H218769   3.392   1.954   1.260 -2.0288 -0.9196 -2.7570
 6255TIP3   OH218770   0.628   3.848   4.247 -0.1211 -0.0956 -0.2432
 6255TIP3    H118771   0.607   3.923   4.192  1.1796  1.4195  1.2388
 6255TIP3    H218772   0.556   3.844   4.311 -0.3142 -0.2635 -0.4707
 6256TIP3   OH218773   2.341   3.974   2.101 -0.0776  0.5708 -0.5991
 6256TIP3    H118774   2.388   3.933   2.029  1.5357 -1.5706  1.5087
 6256TIP3    H218775   2.248   3.966   2.076  0.4301  0.0358 -2.4713
 6257TIP3   OH218776   2.993   2.900   1.234 -0.9705 -0.3094  0.5002
 6257TIP3    H118777   3.088   2.904   1.230 -1.0444  0.7928 -0.8577
 6257TIP3    H218778   2.966   2.984   1.270 -1.4664 -0.3473  0.2338
 6258TIP3   OH218779   5.044   1.601   0.723 -0.0583 -0.4548  0.1234
 6258TIP3    H118780   4.978   1.535   0.743  1.0622 -1.5349  0.3866
 6258TIP3    H218781   5.034   1.617   0.629 -2.2613  1.2030  0.5703
 6259TIP3   OH218782   2.864   5.287   0.082 -0.5260  0.9521  0.1597
 6259TIP3    H118783   2.809   5.342   0.138 -0.2761  0.4608  0.9054
 6259TIP3    H218784   2.953   5.313   0.104 -0.4321  0.9202 -0.1855
 6260TIP3   OH218785   4.431   2.069   3.033 -0.1661 -0.0364 -0.3114
 6260TIP3    H118786   4.451   2.100   2.944 -0.7590 -0.0298 -0.4441
 6260TIP3    H218787   4.379   2.139   3.071 -1.9508 -1.0571 -0.7778
 6261TIP3   OH218788   5.064   4.004   0.688 -0.1917 -1.0236  0.4530
 6261TIP3    H118789   5.149   4.033   0.656 -0.8481  1.4432  0.7325
 6261TIP3    H218790   5.084   3.938   0.754  1.4870 -0.8147  0.1774
 6262TIP3   OH218791   1.773   1.795   2.149 -0.3345 -0.7101  0.0187
 6262TIP3    H118792   1.779   1.729   2.080  1.3563 -1.2410  0.6246
 6262TIP3    H218793   1.848   1.852   2.134 -1.8423  1.2275 -0.5892
 6263TIP3   OH218794   2.082   2.493   2.431 -0.4202 -0.2544  0.3419
 6263TIP3    H118795   2.134   2.416   2.410  2.0873  0.3180  3.6261
 6263TIP3    H218796   2.083   2.546   2.351 -0.5110 -2.6664 -1.3352
 6264TIP3   OH218797   3.182   4.052   5.140 -0.0230 -0.0632 -0.2376
 6264TIP3    H118798   3.104   3.998   5.137 -1.2340  1.6236 -0.2879
 6264TIP3    H218799   3.239   4.016   5.072 -0.2710 -1.9445  0.4746
 6265TIP3   OH218800   5.044   1.733   0.079 -0.1391  0.2754 -0.0498
 6265TIP3    H118801   5.128   1.761   0.116 -1.0023  1.8795  0.8179
 6265TIP3    H218802   5.043   1.772  -0.008 -0.6533  1.7122  0.5629
 6266TIP3   OH218803   3.769   5.795   3.315  0.1003  0.0539  0.1214
 6266TIP3    H118804   3.763   5.728   3.246  0.0728  0.7539 -0.5705
 6266TIP3    H218805   3.707   5.766   3.381  0.4746 -0.8917  0.0848
 6267TIP3   OH218806   0.287   5.489   4.014  0.4728 -0.0524 -0.3648
 6267TIP3    H118807   0.211   5.522   4.061 -0.6421 -0.2286 -1.9592
 6267TIP3    H218808   0.357   5.486   4.080 -0.7363  0.6334  1.0047
 6268TIP3   OH218809   5.314   5.263   3.651 -0.1516  0.1653 -0.0455
 6268TIP3    H118810   5.242   5.233   3.595 -1.3385  0.4258  1.2838
 6268TIP3    H218811   5.313   5.358   3.643 -0.3622  0.2085  0.4437
 6269TIP3   OH218812   0.229   2.249   2.727 -0.3204  0.1769 -0.8070
 6269TIP3    H118813   0.323   2.261   2.720 -0.2228  0.6436  0.9139
 6269TIP3    H218814   0.192   2.335   2.704 -0.2719  0.2685 -0.5452
 6270TIP3   OH218815   1.163   2.559   2.682  0.1720 -0.1348  0.5360
 6270TIP3    H118816   1.207   2.571   2.766  0.3052  0.2902  0.4069
 6270TIP3    H218817   1.088   2.502   2.702  0.6032 -0.6160  0.8085
 6271TIP3   OH218818   3.697   5.313   2.493 -0.5572 -0.0189  0.2430
 6271TIP3    H118819   3.635   5.381   2.470 -0.1141  0.1849 -0.3860
 6271TIP3    H218820   3.777   5.360   2.518 -0.0979 -0.3049 -0.6435
 6272TIP3   OH218821   4.443   1.415   0.822 -0.3844 -0.0510 -0.6989
 6272TIP3    H118822   4.452   1.327   0.857  0.9045 -0.0973 -1.1108
 6272TIP3    H218823   4.382   1.459   0.882 -1.2747 -1.2915 -0.6633
 6273TIP3   OH218824   5.524   3.595   2.998  0.2603  0.1338  0.3528
 6273TIP3    H118825   5.524   3.684   2.963 -0.5362  0.4082  0.9998
 6273TIP3    H218826   5.449   3.593   3.058 -0.0218 -1.1143 -0.0032
 6274TIP3   OH218827   4.644   2.977   4.980 -0.0324 -0.1764 -0.1671
 6274TIP3    H118828   4.571   2.981   5.042 -0.0956 -0.0146 -0.2526
 6274TIP3    H218829   4.633   2.892   4.936 -0.1594 -0.1591 -0.1694
 6275TIP3   OH218830   4.665   2.233   2.564 -0.1438 -0.3726 -0.3750
 6275TIP3    H118831   4.755   2.263   2.555  0.3405 -0.9958  1.7167
 6275TIP3    H218832   4.611   2.305   2.532  1.0717  0.2043 -1.1764
 6276TIP3   OH218833   4.702   4.377   1.902  0.4384  0.5100  0.2080
 6276TIP3    H118834   4.630   4.319   1.928  0.7049 -0.2395 -0.6581
 6276TIP3    H218835   4.659   4.450   1.858  0.1091  0.8932  1.1395
 6277TIP3   OH218836   0.101   3.130   3.763 -0.0259  0.1026  0.2318
 6277TIP3    H118837   0.179   3.172   3.799  1.0973 -1.0887 -0.7313
 6277TIP3    H218838   0.131   3.088   3.683 -1.8884  0.4508 -0.7059
 6278TIP3   OH218839   0.510   0.065   0.957  0.2576  0.2289 -0.1236
 6278TIP3    H118840   0.453   0.137   0.986 -0.3018  0.2390 -1.1657
 6278TIP3    H218841   0.481   0.047   0.867 -0.7273 -2.4162  0.6343
 6279TIP3   OH218842   2.821   3.635   4.413  0.2076 -0.0638 -0.1496
 6279TIP3    H118843   2.775   3.628   4.497 -1.1934 -2.3083 -1.0263
 6279TIP3    H218844   2.913   3.634   4.437 -0.0852  2.5041  1.5258
 6280TIP3   OH218845   2.143   0.801   3.573 -0.3870  0.0065 -0.1752
 6280TIP3    H118846   2.177   0.810   3.484 -2.2268 -0.0880 -0.9539
 6280TIP3    H218847   2.104   0.713   3.575 -0.6647  0.1373  0.6002
 6281TIP3   OH218848   5.062   5.601   4.794 -0.6567  0.2636 -0.7462
 6281TIP3    H118849   5.096   5.525   4.842  1.6710  0.9858 -1.1722
 6281TIP3    H218850   5.007   5.646   4.858 -0.6362 -0.8031  0.0619
 6282TIP3   OH218851   3.414   2.415   0.651 -0.4547 -0.8810  0.5568
 6282TIP3    H118852   3.485   2.478   0.652 -0.6527 -0.6651  1.3898
 6282TIP3    H218853   3.400   2.396   0.558 -1.0076  0.9857  0.2160
 6283TIP3   OH218854   6.014   0.258   4.508  0.0054 -0.1826  0.4646
 6283TIP3    H118855   5.922   0.237   4.492  0.2991 -2.4848  1.4051
 6283TIP3    H218856   6.023   0.256   4.603  0.7590  1.4874  0.4659
 6284TIP3   OH218857   2.664   3.985   1.673 -0.2711  0.4812  0.1625
 6284TIP3    H118858   2.606   3.994   1.748 -1.0054  0.8774 -0.4443
 6284TIP3    H218859   2.640   4.056   1.614 -2.4143 -1.9812 -2.2104
 6285TIP3   OH218860   0.478   0.428   4.989 -0.1160  0.5441 -0.0681
 6285TIP3    H118861   0.427   0.497   5.032 -0.5101 -0.3743  1.0070
 6285TIP3    H218862   0.414   0.359   4.971  0.5505 -0.2087  0.3700
 6286TIP3   OH218863   3.420   3.187   3.008 -0.0580 -0.4322  0.1453
 6286TIP3    H118864   3.492   3.148   2.957  0.3481  1.4685 -0.8304
 6286TIP3    H218865   3.444   3.172   3.099  0.8924 -1.0149 -0.1844
 6287TIP3   OH218866   3.806   4.102   3.549  0.3697  0.6698  0.1074
 6287TIP3    H118867   3.842   4.087   3.636  3.3319  0.2396 -1.0792
 6287TIP3    H218868   3.883   4.110   3.492 -1.3414 -2.0841 -2.9857
 6288TIP3   OH218869   4.948   1.187   1.129 -0.1529 -0.2876 -0.7340
 6288TIP3    H118870   5.023   1.216   1.077 -1.2448  2.4325 -0.9823
 6288TIP3    H218871   4.986   1.158   1.212  1.3358 -1.4904 -1.7884
 6289TIP3   OH218872   5.283   4.500   1.564 -0.1049  0.0500  0.1834
 6289TIP3    H118873   5.311   4.582   1.606  2.3330 -0.9283  0.6574
 6289TIP3    H218874   5.308   4.511   1.472  1.2088 -0.4942  0.4438
 6290TIP3   OH218875   2.037   1.507   4.390 -0.6360 -0.2964 -0.0093
 6290TIP3    H118876   2.069   1.417   4.395  0.1812 -0.1949 -2.2587
 6290TIP3    H218877   2.044   1.530   4.297 -3.4618  1.1414  0.0165
 6291TIP3   OH218878   3.374   4.352   3.322  0.1565 -0.1292  0.0668
 6291TIP3    H118879   3.469   4.348   3.311  0.0096 -2.3526 -1.0419
 6291TIP3    H218880   3.357   4.303   3.402 -0.0724  0.1052  0.1638
 6292TIP3   OH218881   3.205   2.568   4.789 -0.1014 -0.1199 -0.3575
 6292TIP3    H118882   3.276   2.520   4.747  1.0789  0.7254  0.5979
 6292TIP3    H218883   3.211   2.657   4.753  1.7111  0.9864  2.2899
 6293TIP3   OH218884   1.148   1.726   4.271 -0.4457  0.2616  0.5767
 6293TIP3    H118885   1.143   1.755   4.180 -0.5948  0.5095  0.6629
 6293TIP3    H218886   1.067   1.676   4.285  0.4371 -1.3886  0.0255
 6294TIP3   OH218887   5.495   5.726   1.085  1.1192 -0.0421  0.1799
 6294TIP3    H118888   5.452   5.662   1.028 -0.2835 -0.7643  1.9284
 6294TIP3    H218889   5.513   5.801   1.028  0.1465 -0.8686 -1.2857
 6295TIP3   OH218890   2.377   4.493   1.973 -0.3292  0.1485  0.5050
 6295TIP3    H118891   2.307   4.456   2.026  0.9268 -0.4622  1.7846
 6295TIP3    H218892   2.418   4.558   2.030 -0.9482  1.8166 -0.8601
 6296TIP3   OH218893   6.227   5.449   4.539  0.0326 -0.5848 -0.0473
 6296TIP3    H118894   6.135   5.446   4.512  0.0731  1.0149 -0.4785
 6296TIP3    H218895   6.232   5.525   4.598  1.3751  0.4216 -1.3866
 6297TIP3   OH218896   4.236   2.830   3.919  0.6466 -1.0489 -0.8010
 6297TIP3    H118897   4.173   2.895   3.949  0.9242 -0.5717 -1.2348
 6297TIP3    H218898   4.320   2.860   3.952  0.7141 -1.4304 -0.6230
 6298TIP3   OH218899   1.219   4.478   3.435  0.0631 -0.2886 -0.7481
 6298TIP3    H118900   1.267   4.435   3.506 -0.8685 -2.9263 -1.6063
 6298TIP3    H218901   1.257   4.566   3.431  2.4189 -1.1277  0.8367
 6299TIP3   OH218902   6.140   3.906   0.409 -0.4515 -0.0611 -0.1378
 6299TIP3    H118903   6.128   3.946   0.323 -1.5149 -0.5522 -0.2240
 6299TIP3    H218904   6.053   3.876   0.435 -0.3273  0.8648  1.5025
 6300TIP3   OH218905   2.609   1.924   3.094 -0.1560  0.4284  0.0767
 6300TIP3    H118906   2.632   1.839   3.057 -2.3423 -0.1538 -0.0787
 6300TIP3    H218907   2.579   1.904   3.183 -0.5615  1.0353  0.0837
 6301TIP3   OH218908   3.366   0.074   0.772  0.3081  0.5869  0.3576
 6301TIP3    H118909   3.400   0.092   0.684 -0.4241 -1.8176 -0.5094
 6301TIP3    H218910   3.272   0.093   0.766 -0.5448 -3.0741 -0.6657
 6302TIP3   OH218911   0.649   4.420   5.182  0.0398 -0.0069 -0.0726
 6302TIP3    H118912   0.587   4.478   5.137 -0.2834  0.3082  0.7676
 6302TIP3    H218913   0.724   4.414   5.122 -0.6428 -0.1086 -0.9394
 6303TIP3   OH218914   0.131   4.116   1.845  0.0916  0.8765  0.4554
 6303TIP3    H118915   0.060   4.092   1.786  0.2199  2.1322 -0.2342
 6303TIP3    H218916   0.208   4.122   1.789  0.8939 -0.9623  1.2714
 6304TIP3   OH218917   5.116   0.384   0.007  0.2627 -0.4345 -0.1965
 6304TIP3    H118918   5.163   0.464   0.031 -1.3785  0.4549  0.2441
 6304TIP3    H218919   5.153   0.317   0.065 -1.3838  0.9902  2.7442
 6305TIP3   OH218920   0.693   2.971   2.604  0.1626 -0.1646 -0.1050
 6305TIP3    H118921   0.696   2.878   2.628 -0.0611 -0.8391 -2.4510
 6305TIP3    H218922   0.785   2.999   2.605  0.3222 -0.6680 -0.2825
 6306TIP3   OH218923   0.631   1.594   5.036 -0.3458  0.3066  0.4453
 6306TIP3    H118924   0.554   1.592   4.978 -0.0027 -2.1079 -0.0510
 6306TIP3    H218925   0.595   1.593   5.124 -0.9392 -1.4936  0.2162
 6307TIP3   OH218926   2.394   4.397   1.451 -0.0216 -0.1736  0.1873
 6307TIP3    H118927   2.305   4.413   1.484 -0.6067  0.4155 -1.5817
 6307TIP3    H218928   2.383   4.385   1.357  1.5511 -2.1257  0.1913
 6308TIP3   OH218929   2.712   4.821   0.550  0.2384  0.4602 -0.6213
 6308TIP3    H118930   2.772   4.872   0.604 -2.5548  1.3717  1.8673
 6308TIP3    H218931   2.711   4.734   0.591 -1.2567  0.9123  0.3833
 6309TIP3   OH218932   3.184   2.134   1.122 -0.5919  0.0487 -0.2685
 6309TIP3    H118933   3.248   2.177   1.179 -0.4548  1.2457 -1.2779
 6309TIP3    H218934   3.203   2.041   1.130  1.1501  0.3698 -0.3798
 6310TIP3   OH218935   2.146   2.509  -0.012  0.1319 -0.5748 -0.0805
 6310TIP3    H118936   2.171   2.567   0.060  0.9305  0.2838 -1.0183
 6310TIP3    H218937   2.050   2.516  -0.016  0.2043  0.6883 -0.1607
 6311TIP3   OH218938   4.086   5.856   0.508  0.1912 -0.0043 -0.0475
 6311TIP3    H118939   3.995   5.852   0.480 -0.0619 -1.1226  0.8716
 6311TIP3    H218940   4.111   5.948   0.496 -0.8832  0.2050 -0.8035
 6312TIP3   OH218941   4.978   5.296   3.246 -0.1123  0.1764 -0.2629
 6312TIP3    H118942   5.044   5.269   3.182 -0.5114  0.1049 -0.6533
 6312TIP3    H218943   5.016   5.272   3.331 -1.4381 -4.1160 -0.6143
 6313TIP3   OH218944   5.719   1.579   1.931  0.3103  0.2348  0.0202
 6313TIP3    H118945   5.684   1.568   2.020  1.5586  1.3803  0.6847
 6313TIP3    H218946   5.653   1.632   1.886  0.1831  0.5831  0.6050
 6314TIP3   OH218947   4.908   5.292   3.868 -0.0165 -0.2180  0.2560
 6314TIP3    H118948   4.997   5.279   3.899  0.2098 -1.7243 -0.8841
 6314TIP3    H218949   4.871   5.203   3.865 -1.0139  0.2081 -0.7838
 6315TIP3   OH218950   4.969   5.512   2.165 -0.0334  0.0164 -0.0765
 6315TIP3    H118951   4.994   5.601   2.139 -0.1759  0.0794  0.0038
 6315TIP3    H218952   5.046   5.459   2.143 -0.9143 -0.3155 -2.6641
 6316TIP3   OH218953   1.006   3.599   2.999 -0.0607  0.2522 -0.2979
 6316TIP3    H118954   0.936   3.664   2.987  1.4370  2.1628  0.8649
 6316TIP3    H218955   0.994   3.567   3.088  0.1681  0.1250 -0.3124
 6317TIP3   OH218956   0.538   1.788   3.057 -0.1321 -0.4797 -0.2168
 6317TIP3    H118957   0.482   1.719   3.021  0.2671 -0.8959 -0.0506
 6317TIP3    H218958   0.495   1.813   3.139  1.2639 -2.6547  1.2857
 6318TIP3   OH218959   3.038   3.391   1.308  0.4202 -0.2745 -0.1480
 6318TIP3    H118960   3.008   3.417   1.395 -1.1922 -0.3483 -0.6515
 6318TIP3    H218961   3.120   3.438   1.296  0.9611 -0.7034  1.6314
 6319TIP3   OH218962   0.502   5.767   2.144 -0.4912 -0.2831 -0.2748
 6319TIP3    H118963   0.409   5.747   2.152 -0.3925 -0.5706  0.1615
 6319TIP3    H218964   0.508   5.823   2.066 -1.2453  1.2256  0.7211
 6320TIP3   OH218965   2.980   0.536   3.053 -0.3132 -0.3233  0.2323
 6320TIP3    H118966   3.047   0.483   3.097  0.7099 -0.3294 -1.2746
 6320TIP3    H218967   2.961   0.488   2.972 -1.0891  0.4290 -0.0401
 6321TIP3   OH218968   0.972   4.234   2.787 -0.1048  0.2085 -0.5220
 6321TIP3    H118969   1.021   4.217   2.707 -0.2954  1.0543 -0.8309
 6321TIP3    H218970   1.030   4.291   2.838 -1.0935  1.9844 -1.2851
 6322TIP3   OH218971   1.647   4.262   1.645  0.2389 -0.0514  0.6427
 6322TIP3    H118972   1.719   4.209   1.611 -0.7179 -0.1570 -1.3476
 6322TIP3    H218973   1.685   4.349   1.658  0.4852  0.2536 -1.6664
 6323TIP3   OH218974   5.776   1.311   3.219  0.2466  0.4231 -0.0966
 6323TIP3    H118975   5.820   1.332   3.137 -0.4364  1.5795 -0.1804
 6323TIP3    H218976   5.683   1.323   3.200 -0.1898 -2.0604  0.0429
 6324TIP3   OH218977   6.359   3.261   4.499 -0.4193 -0.0775  0.4168
 6324TIP3    H118978   6.313   3.192   4.450  1.2843 -1.0085  0.0696
 6324TIP3    H218979   6.358   3.231   4.590 -0.3903 -0.1476  0.3939
 6325TIP3   OH218980   3.181   5.015   4.081  0.3163  0.0732  0.0804
 6325TIP3    H118981   3.271   4.985   4.095 -0.5761 -2.4902  0.9731
 6325TIP3    H218982   3.164   5.075   4.153  1.7491  1.8696 -0.9806
 6326TIP3   OH218983   4.295   4.649   0.087  0.3056 -0.5015  0.0858
 6326TIP3    H118984   4.240   4.677   0.013  1.6181 -2.0975 -1.5976
 6326TIP3    H218985   4.304   4.554   0.075  2.8738 -0.3861  0.6466
 6327TIP3   OH218986   4.772   3.961   1.742 -0.2005  0.4541  0.4751
 6327TIP3    H118987   4.727   4.045   1.730 -1.3357 -0.1228  0.5076
 6327TIP3    H218988   4.767   3.944   1.836 -1.4709 -0.4123  0.2847
 6328TIP3   OH218989   5.073   0.697   4.162 -0.1581  0.0963 -0.3100
 6328TIP3    H118990   5.167   0.714   4.162 -0.0041 -0.6932 -0.6197
 6328TIP3    H218991   5.065   0.608   4.128 -0.7852 -1.2014  2.8927
 6329TIP3   OH218992   1.056   3.409   1.492  0.2458 -0.5217  0.3837
 6329TIP3    H118993   1.007   3.457   1.425  0.2748 -0.3164  0.5065
 6329TIP3    H218994   1.067   3.321   1.456  0.9355 -0.2025 -0.2284
 6330TIP3   OH218995   5.832   5.652   0.537  0.5066  0.3152  0.3448
 6330TIP3    H118996   5.855   5.586   0.603 -0.9643 -2.6055 -1.8371
 6330TIP3    H218997   5.872   5.622   0.456 -1.4433  1.2457 -1.0644
 6331TIP3   OH218998   1.808   1.647   4.432  0.0273 -0.4676  0.1488
 6331TIP3    H118999   1.888   1.595   4.424 -0.7164 -1.6652  0.2936
 6331TIP3    H219000   1.739   1.583   4.452 -1.1975  0.3686 -1.1881
 6332TIP3   OH219001   5.210   3.750   0.556 -0.8642  0.0151 -0.0650
 6332TIP3    H119002   5.211   3.844   0.533  0.0003  0.2856  0.9972
 6332TIP3    H219003   5.160   3.709   0.486 -1.5227  1.3195 -0.3878
 6333TIP3   OH219004   5.788   5.094   4.200 -0.0714 -0.4654  0.3309
 6333TIP3    H119005   5.786   5.105   4.105 -1.0495 -1.3035  0.2358
 6333TIP3    H219006   5.799   5.000   4.213  3.4337 -0.0614  1.1014
 6334TIP3   OH219007   0.438   0.516   1.872 -0.8759  0.1923 -0.3334
 6334TIP3    H119008   0.355   0.525   1.920  0.3434  3.4043  1.5110
 6334TIP3    H219009   0.429   0.574   1.797 -0.9086 -0.8204 -1.1213
 6335TIP3   OH219010   5.186   1.625   4.710 -0.0716  0.1271 -0.3534
 6335TIP3    H119011   5.120   1.556   4.710  0.2404 -0.1726 -1.2239
 6335TIP3    H219012   5.260   1.589   4.661  1.0232  0.2099  1.1342
 6336TIP3   OH219013   5.390   1.483   0.954  0.6955 -0.9617  0.1117
 6336TIP3    H119014   5.332   1.503   1.027  0.7148  1.6011 -0.4732
 6336TIP3    H219015   5.415   1.569   0.919  1.0004 -2.0659 -2.6504
 6337TIP3   OH219016   1.773   2.737   2.855  0.0918 -0.0720 -0.7572
 6337TIP3    H119017   1.831   2.712   2.783 -1.1329  1.5141 -2.3665
 6337TIP3    H219018   1.685   2.715   2.825 -0.5523  1.6540 -0.2543
 6338TIP3   OH219019   6.083   1.705   1.537  0.0702 -0.4261  0.4891
 6338TIP3    H119020   6.140   1.718   1.462 -1.8724 -1.9666 -1.3705
 6338TIP3    H219021   6.058   1.612   1.533 -2.6013  0.1730  1.1424
 6339TIP3   OH219022   1.508   2.530   1.429  0.4326  0.3440  0.4959
 6339TIP3    H119023   1.558   2.475   1.370 -0.0461  0.7488 -0.3003
 6339TIP3    H219024   1.509   2.483   1.513 -0.7068 -1.3344 -0.3696
 6340TIP3   OH219025   1.666   2.574   0.862  0.6899 -0.4093 -0.3429
 6340TIP3    H119026   1.592   2.569   0.923 -0.0477  2.8248 -0.8031
 6340TIP3    H219027   1.744   2.570   0.917  0.0579  1.0249  0.7114
 6341TIP3   OH219028   2.677   0.911   2.632 -0.0438 -0.0657  0.2644
 6341TIP3    H119029   2.692   0.941   2.722 -1.2013  2.2862 -0.2530
 6341TIP3    H219030   2.586   0.879   2.633 -0.5365  1.2674 -0.3554
 6342TIP3   OH219031   2.081   1.679   1.729 -0.0453 -0.3031 -0.0744
 6342TIP3    H119032   2.042   1.604   1.775 -1.5622  0.2084 -0.4740
 6342TIP3    H219033   2.139   1.719   1.794 -0.7382 -0.6766  0.7916
 6343TIP3   OH219034   3.384   2.097   0.612 -0.1776 -0.2448  0.3160
 6343TIP3    H119035   3.470   2.134   0.634  0.7027 -1.0036 -1.5951
 6343TIP3    H219036   3.404   2.021   0.558 -2.0568 -0.9992  0.6197
 6344TIP3   OH219037   0.937   1.102   2.407  0.0445 -0.7371 -0.5576
 6344TIP3    H119038   1.023   1.059   2.413 -0.6768 -2.0927  0.8815
 6344TIP3    H219039   0.923   1.137   2.495 -1.3736 -1.6004 -0.4098
 6345TIP3   OH219040   2.079   3.752   4.946  0.6168 -0.6628 -0.0072
 6345TIP3    H119041   2.041   3.668   4.917 -0.5108  0.8825 -3.6025
 6345TIP3    H219042   2.156   3.763   4.891  0.7477  0.6682  0.4216
 6346TIP3   OH219043   5.047   4.320   4.204  0.2210 -0.3994 -0.0921
 6346TIP3    H119044   5.128   4.334   4.254 -0.7672  1.2441  1.1541
 6346TIP3    H219045   5.077   4.294   4.117  2.0755 -0.4600  0.5207
 6347TIP3   OH219046   5.055   1.915   1.420  0.2085  0.1557 -0.5772
 6347TIP3    H119047   5.061   2.002   1.381  3.2801 -0.3195 -1.4898
 6347TIP3    H219048   5.130   1.911   1.479  0.9106 -2.2347 -1.5081
 6348TIP3   OH219049   2.148   0.494   0.746 -0.3455  0.6367 -0.0657
 6348TIP3    H119050   2.056   0.472   0.728 -0.0339 -0.0168 -0.9399
 6348TIP3    H219051   2.172   0.554   0.676 -0.6298  2.3510  1.2352
 6349TIP3   OH219052   1.903   5.930   0.600 -0.2285 -0.3351 -0.2038
 6349TIP3    H119053   1.857   5.852   0.631 -0.6246 -0.3378 -0.7817
 6349TIP3    H219054   1.974   5.942   0.663 -1.9101  0.5889  1.6520
 6350TIP3   OH219055   5.088   3.926   3.745 -0.1340  0.2007 -0.3539
 6350TIP3    H119056   5.180   3.941   3.768 -0.2047  0.6766 -0.3789
 6350TIP3    H219057   5.090   3.899   3.653 -0.1519  1.9076 -0.8883
 6351TIP3   OH219058   3.146   4.644   4.020 -0.3980  0.2836  0.1467
 6351TIP3    H119059   3.216   4.701   3.989 -0.2911  0.4322  0.6582
 6351TIP3    H219060   3.153   4.646   4.115 -2.0206  1.4647  0.2850
 6352TIP3   OH219061   0.731   1.971   2.214  0.3381  0.4136  0.3251
 6352TIP3    H119062   0.773   1.885   2.221 -1.9353 -0.8625 -0.7442
 6352TIP3    H219063   0.766   2.008   2.133 -1.3778 -1.1870 -1.2467
 6353TIP3   OH219064   4.099   0.867   0.575 -0.2572 -0.1161 -0.0393
 6353TIP3    H119065   4.123   0.952   0.613  2.7380 -0.4076 -0.9883
 6353TIP3    H219066   4.102   0.882   0.480 -3.2233 -0.4938 -0.2964
 6354TIP3   OH219067   0.221   0.799   2.390 -0.4023 -0.3133  0.5886
 6354TIP3    H119068   0.316   0.810   2.392 -0.2948 -0.9286 -0.6816
 6354TIP3    H219069   0.203   0.729   2.453 -0.2196  0.9709  2.1406
 6355TIP3   OH219070   5.757   3.008   2.398  0.0838 -0.9368  0.3148
 6355TIP3    H119071   5.703   2.941   2.441  0.2525 -0.2364  1.6813
 6355TIP3    H219072   5.845   2.995   2.434 -0.1527  0.8500  1.6895
 6356TIP3   OH219073   1.519   4.389   2.044  0.3457 -0.1544 -0.4771
 6356TIP3    H119074   1.532   4.466   1.988 -3.1110  0.8713 -0.1016
 6356TIP3    H219075   1.520   4.423   2.133 -0.2860 -0.6914 -0.2545
 6357TIP3   OH219076   2.793   2.431   2.683  0.0965 -0.4284  0.4465
 6357TIP3    H119077   2.813   2.495   2.615 -1.4227 -2.3545 -1.9841
 6357TIP3    H219078   2.811   2.346   2.642 -0.3952 -1.6791  2.6542
 6358TIP3   OH219079   3.746   5.170   4.522  0.3813  0.0577 -0.4232
 6358TIP3    H119080   3.739   5.257   4.483  0.3974  0.6211  0.7866
 6358TIP3    H219081   3.697   5.113   4.462 -0.1093  0.9976 -0.9395
 6359TIP3   OH219082   0.359   3.164   2.636  0.2486  0.1777 -0.3716
 6359TIP3    H119083   0.438   3.196   2.593 -0.4069  1.1633 -0.8670
 6359TIP3    H219084   0.367   3.069   2.631  1.8464  0.2300  0.4216
 6360TIP3   OH219085   5.973   4.063   1.520 -0.0374 -0.2171 -0.1267
 6360TIP3    H119086   5.905   4.024   1.575 -0.0332 -0.7469 -0.4802
 6360TIP3    H219087   6.007   4.136   1.571 -3.5057  2.5797 -1.4684
 6361TIP3   OH219088   3.721   1.537   1.556  0.0341 -0.3528  0.3496
 6361TIP3    H119089   3.743   1.594   1.482 -1.7721  1.0158  0.8038
 6361TIP3    H219090   3.636   1.500   1.533  0.0302 -0.8919  1.1909
 6362TIP3   OH219091   5.000   1.381   4.747 -0.4542 -0.0899 -0.1135
 6362TIP3    H119092   5.013   1.349   4.836 -0.2725 -1.3173 -0.5673
 6362TIP3    H219093   4.907   1.366   4.729 -0.4663  0.0567 -0.1795
 6363TIP3   OH219094   2.284   5.513   2.160  0.6395 -0.4764 -0.4817
 6363TIP3    H119095   2.211   5.451   2.153 -0.2294  0.6664 -2.4594
 6363TIP3    H219096   2.252   5.581   2.218  0.9198 -0.9549  0.2523
 6364TIP3   OH219097   0.778   5.689   2.055  0.3429 -0.0345  0.1604
 6364TIP3    H119098   0.721   5.651   1.988 -0.0678  2.3911 -0.9964
 6364TIP3    H219099   0.717   5.733   2.114  0.8761  0.5627  0.2715
 6365TIP3   OH219100   2.191   5.034   4.876 -0.0433 -0.4663 -0.1989
 6365TIP3    H119101   2.119   4.986   4.916 -0.1154 -0.0999  0.1058
 6365TIP3    H219102   2.263   5.025   4.938 -0.8240  2.1111  1.2198
 6366TIP3   OH219103   2.605   5.295   4.481  0.2749 -0.0698  0.0136
 6366TIP3    H119104   2.575   5.236   4.549  3.0180  0.8962  2.2508
 6366TIP3    H219105   2.670   5.245   4.432 -1.0805 -0.4756 -1.4864
 6367TIP3   OH219106   4.982   2.723   1.536 -0.4376  0.0985  0.6549
 6367TIP3    H119107   5.047   2.690   1.598 -0.1534 -1.0376 -0.2015
 6367TIP3    H219108   4.942   2.644   1.499 -0.0533  0.6915 -1.1527
 6368TIP3   OH219109   5.194   3.688   4.119  0.1324  0.3084  0.5364
 6368TIP3    H119110   5.182   3.651   4.031  1.1603 -0.1955  0.5926
 6368TIP3    H219111   5.185   3.614   4.178  0.4521  0.4620  0.7820
 6369TIP3   OH219112   0.173   4.765   0.303  0.1669 -0.3869 -0.0060
 6369TIP3    H119113   0.124   4.839   0.339 -0.0116 -0.9642  0.9906
 6369TIP3    H219114   0.264   4.794   0.305  0.0391  0.0347 -0.2063
 6370TIP3   OH219115   1.972   0.136   0.119 -0.2450  0.2288 -0.1793
 6370TIP3    H119116   1.950   0.113   0.029 -0.3231 -0.4546  0.0123
 6370TIP3    H219117   2.043   0.077   0.143  1.1379  1.7280 -0.4397
 6371TIP3   OH219118   1.812   0.176   1.161  0.0049  0.9297  0.8048
 6371TIP3    H119119   1.759   0.101   1.189  0.6397 -0.3634 -1.2456
 6371TIP3    H219120   1.762   0.253   1.189 -0.2634 -0.1645  3.7616
 6372TIP3   OH219121   1.689   3.673   2.063 -0.5099  0.5322 -0.4196
 6372TIP3    H119122   1.759   3.685   1.998  0.7802  0.9350  0.9767
 6372TIP3    H219123   1.733   3.634   2.138 -1.5736  1.7201  0.8701
 6373TIP3   OH219124   0.521   1.055   3.094  0.1764 -0.2010 -0.3095
 6373TIP3    H119125   0.528   1.140   3.138 -1.1638 -0.7149  1.0072
 6373TIP3    H219126   0.435   1.055   3.054 -0.0926 -1.1344  0.2144
 6374TIP3   OH219127   5.242   2.376   4.727  0.4851 -0.0676  0.4444
 6374TIP3    H119128   5.187   2.298   4.720 -0.3090  0.5231 -0.1207
 6374TIP3    H219129   5.275   2.375   4.816 -0.1385 -0.6515  0.6728
 6375TIP3   OH219130   2.741   4.954   2.110 -0.3241 -0.3760 -0.5600
 6375TIP3    H119131   2.711   4.945   2.201 -1.0044 -1.4692 -0.8835
 6375TIP3    H219132   2.713   4.873   2.067 -0.8533  0.5214 -1.9816
 6376TIP3   OH219133   1.813   5.331   0.557 -0.2318  0.3866  0.4223
 6376TIP3    H119134   1.809   5.237   0.540  1.6873 -0.0503  2.0377
 6376TIP3    H219135   1.766   5.342   0.640  1.1014  0.5461  1.1777
 6377TIP3   OH219136   4.731   1.855   1.944 -0.1116 -0.1079  0.0758
 6377TIP3    H119137   4.740   1.851   1.848 -1.1092 -0.9529 -0.0047
 6377TIP3    H219138   4.712   1.946   1.963  0.4221  0.1291 -0.5002
 6378TIP3   OH219139   3.735   2.940   4.957 -0.3846  0.0139  0.1473
 6378TIP3    H119140   3.648   2.971   4.982  0.5029  1.9261  1.0824
 6378TIP3    H219141   3.756   2.873   5.022 -0.2988  1.1316  1.3240
 6379TIP3   OH219142   3.098   5.428   2.394 -0.4195  0.3746 -0.1788
 6379TIP3    H119143   3.122   5.468   2.311  0.2452  1.5921  0.5598
 6379TIP3    H219144   3.182   5.419   2.441 -0.9360  1.2556  0.9817
 6380TIP3   OH219145   0.375   5.682   0.353 -0.5209  0.6585  0.5038
 6380TIP3    H119146   0.395   5.712   0.265 -0.7476 -1.1403 -0.1894
 6380TIP3    H219147   0.383   5.587   0.349 -0.1576  0.5597  2.5277
 6381TIP3   OH219148   2.687   2.515   0.524  0.6213  0.2615 -0.3663
 6381TIP3    H119149   2.658   2.605   0.536 -0.8738 -0.3351  0.8465
 6381TIP3    H219150   2.638   2.465   0.590  2.6017 -1.2048  0.0985
 6382TIP3   OH219151   1.566   1.645   2.670 -0.4569 -0.3172  0.2018
 6382TIP3    H119152   1.590   1.570   2.616 -0.8417  0.4922 -1.1315
 6382TIP3    H219153   1.603   1.625   2.756 -1.6140 -2.6039  0.2295
 6383TIP3   OH219154   5.974   3.989   0.795 -0.2717 -0.6521 -0.1503
 6383TIP3    H119155   5.901   4.029   0.749 -0.4362 -1.6737 -0.8242
 6383TIP3    H219156   5.933   3.939   0.866 -0.0730  0.3213  0.6623
 6384TIP3   OH219157   0.851   0.496   2.989  0.6364  0.5971 -0.1736
 6384TIP3    H119158   0.822   0.464   2.904  0.7793  2.1639 -0.8333
 6384TIP3    H219159   0.877   0.587   2.974  0.8646  0.8471  1.4963
 6385TIP3   OH219160   5.624   2.812   5.039 -0.2479 -0.2999 -0.3627
 6385TIP3    H119161   5.688   2.782   5.105 -0.7768 -0.5762  0.0304
 6385TIP3    H219162   5.642   2.906   5.030 -0.7429 -0.0763  0.8300
 6386TIP3   OH219163   2.091   2.895   4.105  0.0033 -0.1467 -0.1040
 6386TIP3    H119164   2.007   2.937   4.087  0.2874 -0.3022 -2.0086
 6386TIP3    H219165   2.081   2.806   4.072  1.1430  0.0587 -1.0844
 6387TIP3   OH219166   3.496   4.345   4.643  0.2012  0.4056  0.0850
 6387TIP3    H119167   3.576   4.352   4.590 -0.1544 -0.0820 -0.5233
 6387TIP3    H219168   3.434   4.299   4.587  0.4094 -1.8521  1.5802
 6388TIP3   OH219169   3.645   0.842   1.160 -0.0677  0.4481  0.2195
 6388TIP3    H119170   3.741   0.849   1.153 -0.1728  0.2122 -3.7849
 6388TIP3    H219171   3.615   0.933   1.161  0.1860  0.5445 -0.2789
 6389TIP3   OH219172   2.480   4.027   3.312 -0.0004 -0.0561  0.4151
 6389TIP3    H119173   2.429   3.994   3.386 -1.9821  1.9471  0.0657
 6389TIP3    H219174   2.525   4.104   3.346 -1.5734  1.3653 -0.5970
 6390TIP3   OH219175   3.572   4.007   2.965  0.5324 -0.0620  0.6261
 6390TIP3    H119176   3.581   4.024   3.058 -0.4615 -3.2412  1.4230
 6390TIP3    H219177   3.601   3.916   2.954 -1.5166 -0.5439 -1.7554
 6391TIP3   OH219178   4.053   1.697   0.955 -0.0156  0.4363  0.2599
 6391TIP3    H119179   3.968   1.663   0.983 -0.9059  1.9960 -0.4481
 6391TIP3    H219180   4.116   1.657   1.015 -0.9458 -2.4640 -0.5107
 6392TIP3   OH219181   0.730   2.310   1.671 -0.1617 -0.5975 -0.1371
 6392TIP3    H119182   0.803   2.320   1.731  0.0027  2.1954 -0.6654
 6392TIP3    H219183   0.760   2.244   1.608  1.0147 -1.0713  0.8746
 6393TIP3   OH219184   2.985   3.830   4.291  0.7213  0.3351  0.0117
 6393TIP3    H119185   2.987   3.766   4.362 -1.0121  1.2616  0.9607
 6393TIP3    H219186   2.977   3.915   4.335  0.0762  0.9701 -1.2799
 6394TIP3   OH219187   3.908   2.770   2.390  0.2329  0.1008 -0.1930
 6394TIP3    H119188   3.943   2.777   2.478 -0.0706  0.2723 -0.0836
 6394TIP3    H219189   3.813   2.770   2.402  0.1453 -2.3011 -0.3073
 6395TIP3   OH219190   0.061   4.911   4.172 -0.1631 -0.0912  0.1480
 6395TIP3    H119191   0.075   4.860   4.251  3.5152 -1.2817 -1.0343
 6395TIP3    H219192   0.011   4.854   4.114 -1.0023 -0.0608  0.8390
 6396TIP3   OH219193   5.260   5.071   4.485 -0.4697  0.0106  0.1636
 6396TIP3    H119194   5.209   4.994   4.508  2.2185 -1.6021  1.1566
 6396TIP3    H219195   5.254   5.128   4.563 -0.0930 -0.5483  0.6074
 6397TIP3   OH219196   6.377   3.061   2.997 -0.1640  0.2579  0.1035
 6397TIP3    H119197   6.290   3.035   3.027 -0.3828  2.2988  1.4383
 6397TIP3    H219198   6.364   3.149   2.962  0.7172 -0.7953 -3.2088
 6398TIP3   OH219199   4.568   1.745   0.977 -0.0078 -0.0792 -0.1611
 6398TIP3    H119200   4.585   1.682   0.907  1.6077 -0.0293  0.1666
 6398TIP3    H219201   4.622   1.821   0.955 -1.8579  1.2206 -0.5033
 6399TIP3   OH219202   3.523   2.210   3.197  0.9100 -0.4686 -0.3503
 6399TIP3    H119203   3.527   2.306   3.204  3.0062 -0.5594  0.4124
 6399TIP3    H219204   3.444   2.193   3.145  1.0861  1.7155 -1.4393
 6400TIP3   OH219205   1.747   4.820   3.565  0.0220  0.5311  0.6344
 6400TIP3    H119206   1.745   4.912   3.537 -1.1890  0.5678  0.7704
 6400TIP3    H219207   1.777   4.772   3.488 -0.9217  0.8833  0.0208
 6401TIP3   OH219208   4.547   0.896   2.997  0.1664  0.0706 -0.4139
 6401TIP3    H119209   4.489   0.861   3.065  0.1048 -1.2479 -1.1180
 6401TIP3    H219210   4.598   0.963   3.042 -0.1229 -0.5308  0.8598
 6402TIP3   OH219211   6.287   4.195   2.919 -0.2276 -0.9140  0.3114
 6402TIP3    H119212   6.275   4.176   3.012  0.2906  3.0064  1.3679
 6402TIP3    H219213   6.197   4.202   2.885 -0.6741  1.9421  1.7263
 6403TIP3   OH219214   3.686   4.547   0.857  0.2327  0.2180 -0.1615
 6403TIP3    H119215   3.691   4.635   0.820 -1.0223  0.2300 -0.3469
 6403TIP3    H219216   3.607   4.509   0.817  2.3641 -2.1281 -2.5298
 6404TIP3   OH219217   6.339   2.691   0.882  0.5505 -0.2606 -0.0975
 6404TIP3    H119218   6.368   2.650   0.800  3.1981  0.0481  0.5922
 6404TIP3    H219219   6.270   2.632   0.914 -0.1497 -0.7008 -2.2143
 6405TIP3   OH219220   5.621   2.780   2.411 -0.1836  0.2381  0.2703
 6405TIP3    H119221   5.535   2.820   2.423  0.7786  2.8947 -0.6546
 6405TIP3    H219222   5.612   2.726   2.332 -0.5470  2.3730 -1.2630
 6406TIP3   OH219223   0.195   4.811   3.277  0.0892  0.1626 -0.6384
 6406TIP3    H119224   0.207   4.730   3.327 -0.7158  0.1373 -0.4762
 6406TIP3    H219225   0.122   4.791   3.218  0.1807  0.6282 -0.9089
 6407TIP3   OH219226   1.569   3.088   1.341  0.2983  0.2881  0.2148
 6407TIP3    H119227   1.643   3.105   1.399  0.5773 -1.5840  0.4944
 6407TIP3    H219228   1.584   2.998   1.310 -0.6379  0.7143 -1.5759
 6408TIP3   OH219229   3.215   2.077   3.711 -0.0534  0.0800 -0.0330
 6408TIP3    H119230   3.124   2.048   3.701  0.1288 -0.3293 -0.5707
 6408TIP3    H219231   3.266   2.006   3.673  0.4812  0.4240  0.0438
 6409TIP3   OH219232   2.380   4.863   2.712  0.1529  0.2112  0.0738
 6409TIP3    H119233   2.335   4.851   2.796 -1.3868  0.2428 -0.6998
 6409TIP3    H219234   2.435   4.785   2.703 -1.0401 -0.6954  0.3177
 6410TIP3   OH219235   5.977   5.421   4.436  0.1255  0.0209 -0.4055
 6410TIP3    H119236   5.904   5.473   4.470  0.9277  0.3807  0.8671
 6410TIP3    H219237   5.939   5.336   4.415 -0.3860 -0.3914  1.9163
 6411TIP3   OH219238   3.433   0.125   3.417  0.1291 -0.2327 -0.1518
 6411TIP3    H119239   3.356   0.109   3.471  0.6993 -0.4550  0.6186
 6411TIP3    H219240   3.399   0.133   3.328 -0.9105  0.8128  0.3192
 6412TIP3   OH219241   1.600   0.052   1.251 -0.1579 -0.2742  0.5084
 6412TIP3    H119242   1.528   0.006   1.206  0.8932  0.0116 -1.5809
 6412TIP3    H219243   1.637  -0.014   1.309 -2.2718 -0.3406  1.9173
 6413TIP3   OH219244   5.413   2.030   2.772 -0.2383  0.9142 -0.1804
 6413TIP3    H119245   5.396   2.057   2.682 -0.0650  1.8695  0.0594
 6413TIP3    H219246   5.496   2.073   2.794  1.4389 -1.8672 -0.6113
 6414TIP3   OH219247   5.136   1.285   0.927  0.4226  0.2087  0.2300
 6414TIP3    H119248   5.129   1.371   0.969 -2.3177 -0.0688  0.5200
 6414TIP3    H219249   5.228   1.280   0.899  1.0554  2.5592  1.5599
 6415TIP3   OH219250   4.852   1.680   4.901  0.2049 -0.3259  0.0020
 6415TIP3    H119251   4.797   1.620   4.850 -0.4558 -0.9508  1.3870
 6415TIP3    H219252   4.791   1.749   4.929  0.4198 -0.3251  0.4681
 6416TIP3   OH219253   4.961   5.450   1.321 -0.3734  0.2751 -0.7346
 6416TIP3    H119254   5.004   5.532   1.298  0.3604  0.0789 -0.1156
 6416TIP3    H219255   4.870   5.474   1.336  0.0061  1.1365  0.2964
 6417TIP3   OH219256   1.070   3.143   1.444 -0.0831  0.1701  0.1520
 6417TIP3    H119257   1.138   3.089   1.485 -2.1693 -1.7054  1.3651
 6417TIP3    H219258   0.988   3.105   1.475 -1.7839  0.5130 -3.4756
 6418TIP3   OH219259   1.379   0.306   4.532  0.3351 -0.1280  0.1654
 6418TIP3    H119260   1.331   0.314   4.449 -1.3843 -0.5763  1.0640
 6418TIP3    H219261   1.370   0.392   4.574  1.9098  0.3616 -0.4432
 6419TIP3   OH219262   2.995   1.631   2.033  0.1812  0.0646 -1.0925
 6419TIP3    H119263   2.928   1.607   2.097  0.1285 -0.7787 -1.4498
 6419TIP3    H219264   3.018   1.549   1.991  1.5348  0.3211 -0.8991
 6420TIP3   OH219265   4.514   1.338   0.062 -0.2132  0.1014  0.1307
 6420TIP3    H119266   4.458   1.271   0.023  0.1323  0.5073 -1.1314
 6420TIP3    H219267   4.531   1.307   0.151  1.0378 -2.1939 -0.8262
 6421TIP3   OH219268   4.059   3.749   4.361 -0.0968 -0.2393 -0.2462
 6421TIP3    H119269   4.088   3.839   4.375 -0.4609 -0.3968  2.0062
 6421TIP3    H219270   3.969   3.748   4.393 -0.6050 -1.1050 -1.6131
 6422TIP3   OH219271   3.740   2.017   4.574 -0.0631 -0.4620 -0.2156
 6422TIP3    H119272   3.664   2.072   4.562 -0.7023 -1.1898  0.4215
 6422TIP3    H219273   3.742   1.995   4.667  1.4704  0.3060 -0.0299
 6423TIP3   OH219274   1.494   3.977   0.531 -0.1247 -0.5434 -0.0547
 6423TIP3    H119275   1.570   4.033   0.518  0.1990 -0.6850  1.1136
 6423TIP3    H219276   1.513   3.929   0.611 -1.6620 -0.2096  0.5487
 6424TIP3   OH219277   3.909   3.598   3.443  0.3044 -0.2404  0.2157
 6424TIP3    H119278   3.951   3.528   3.393 -0.4142 -0.6789  0.2237
 6424TIP3    H219279   3.961   3.676   3.422 -0.2654 -0.3193 -1.5917
 6425TIP3   OH219280   5.463   5.703   3.350 -0.3154 -0.0518 -0.1157
 6425TIP3    H119281   5.411   5.771   3.393 -0.9951 -0.6401 -0.0022
 6425TIP3    H219282   5.492   5.744   3.268 -0.3575  0.5198  0.1517
 6426TIP3   OH219283   4.589   4.491   0.528  0.2254 -0.2709  0.0650
 6426TIP3    H119284   4.547   4.574   0.503 -0.1196 -0.1329  1.0539
 6426TIP3    H219285   4.565   4.430   0.458 -1.7440 -0.2371  0.6476
 6427TIP3   OH219286   3.471   5.815   3.319  0.2935  0.0986 -0.6411
 6427TIP3    H119287   3.445   5.883   3.257  2.1499  1.8586  0.3981
 6427TIP3    H219288   3.422   5.834   3.398 -0.7069 -1.0596 -0.9450
 6428TIP3   OH219289   4.558   0.080   2.573 -0.3934  0.0569  0.6251
 6428TIP3    H119290   4.580  -0.013   2.580  0.8120  0.1295 -1.3616
 6428TIP3    H219291   4.482   0.092   2.630  1.1023 -1.5271  3.1414
 6429TIP3   OH219292   0.991   5.262   2.541 -0.3957 -0.4904 -0.0181
 6429TIP3    H119293   0.913   5.285   2.490 -0.4194 -1.2158 -0.3279
 6429TIP3    H219294   1.062   5.313   2.501 -0.8748  0.9378  0.9010
 6430TIP3   OH219295   6.206   2.794   1.707  0.8071 -0.3666  0.0389
 6430TIP3    H119296   6.218   2.834   1.793 -0.0023  0.1541 -0.0763
 6430TIP3    H219297   6.294   2.796   1.668  1.4794 -1.8855  1.3605
 6431TIP3   OH219298   4.824   1.398   1.921 -0.2663 -0.0073 -0.1574
 6431TIP3    H119299   4.899   1.456   1.909 -1.0331  0.9441 -0.4345
 6431TIP3    H219300   4.800   1.408   2.013 -0.4707  0.2007 -0.2336
 6432TIP3   OH219301   1.511   4.821   2.585  0.3778 -0.1833 -0.4780
 6432TIP3    H119302   1.489   4.787   2.672  1.8514 -0.4022 -0.1571
 6432TIP3    H219303   1.510   4.916   2.596  1.7410 -0.2131  0.1329
 6433TIP3   OH219304   6.235   3.551   1.827 -0.1212 -0.0101  0.4880
 6433TIP3    H119305   6.301   3.618   1.846 -2.2291  2.3003  0.0817
 6433TIP3    H219306   6.210   3.566   1.736 -0.6839 -1.3696  0.3895
 6434TIP3   OH219307   3.101   5.601   3.819 -0.1400  0.2913 -0.3791
 6434TIP3    H119308   3.067   5.676   3.769 -2.8036  0.6229  1.6782
 6434TIP3    H219309   3.027   5.574   3.873  2.4359 -0.0973  3.2980
 6435TIP3   OH219310   1.167   0.252   4.275  0.2334  0.3711  0.5486
 6435TIP3    H119311   1.192   0.168   4.238 -2.5831 -0.4476  0.2637
 6435TIP3    H219312   1.108   0.230   4.347 -0.1322  2.0891  0.8187
 6436TIP3   OH219313   4.209   5.933   3.122  0.0633  0.1270 -0.6067
 6436TIP3    H119314   4.255   5.854   3.150  2.7056  1.5886 -0.5200
 6436TIP3    H219315   4.133   5.938   3.180 -1.5889 -3.5033 -2.1303
 6437TIP3   OH219316   0.698   0.938   2.700 -0.0303 -0.1195 -0.0505
 6437TIP3    H119317   0.664   0.956   2.612 -0.9586  0.6967  0.4489
 6437TIP3    H219318   0.657   1.004   2.755 -0.1378 -1.1506  1.1513
 6438TIP3   OH219319   0.700   1.173   0.583  0.3330  0.0117 -0.1346
 6438TIP3    H119320   0.648   1.094   0.570  1.4979 -0.6358 -1.0054
 6438TIP3    H219321   0.678   1.202   0.672 -2.1018  0.2416 -0.7294
 6439TIP3   OH219322   5.000   2.733   5.094 -0.5313  0.1331  0.3932
 6439TIP3    H119323   5.073   2.709   5.152 -2.0240  1.3874  2.9770
 6439TIP3    H219324   4.945   2.654   5.090 -0.9074  0.3099  1.5615
 6440TIP3   OH219325   3.191   2.810   0.789 -0.1286 -0.4082 -0.2604
 6440TIP3    H119326   3.247   2.755   0.844 -0.5498  0.3658  0.9758
 6440TIP3    H219327   3.124   2.842   0.848 -1.1169 -0.2447 -1.4384
 6441TIP3   OH219328   4.398   2.094   4.322 -0.5370  0.2148  0.4196
 6441TIP3    H119329   4.303   2.089   4.311 -0.4334  0.8588 -1.0444
 6441TIP3    H219330   4.416   2.186   4.341 -0.0736  0.5459 -1.3835
 6442TIP3   OH219331   5.314   3.031   1.664  0.1011 -0.3038 -0.5005
 6442TIP3    H119332   5.276   2.953   1.706 -0.6846  1.2895  2.0296
 6442TIP3    H219333   5.237   3.081   1.635  0.5288  0.2508 -0.6785
 6443TIP3   OH219334   3.187   1.933   1.783  0.3957 -0.3893  0.3400
 6443TIP3    H119335   3.274   1.893   1.774  0.5209 -0.1700  0.5584
 6443TIP3    H219336   3.149   1.928   1.696  0.7862 -0.1286  0.1492
 6444TIP3   OH219337   6.309   0.188   4.657 -0.2497  0.5885 -0.0327
 6444TIP3    H119338   6.337   0.175   4.747 -0.9143 -1.5759 -0.0832
 6444TIP3    H219339   6.242   0.256   4.662  0.0443  0.8225  1.0123
 6445TIP3   OH219340   3.379   5.040   1.279 -0.2259  0.4902 -0.7278
 6445TIP3    H119341   3.310   5.081   1.226 -2.3325 -0.5742  1.0732
 6445TIP3    H219342   3.337   5.019   1.362  1.9418 -1.3658  0.0003
 6446TIP3   OH219343   5.637   0.803   2.559 -0.0842  0.0304 -0.1682
 6446TIP3    H119344   5.720   0.840   2.530  0.2099 -0.0964  0.4908
 6446TIP3    H219345   5.570   0.856   2.516  0.3332 -0.3028 -1.2496
 6447TIP3   OH219346   1.502   1.406   2.209  0.0224  1.0286 -0.2510
 6447TIP3    H119347   1.434   1.374   2.268  0.2237  0.0362 -0.5295
 6447TIP3    H219348   1.456   1.462   2.146 -0.4224  0.9024 -0.0366
 6448TIP3   OH219349   3.127   5.098   2.395 -0.2141  0.3992  0.0352
 6448TIP3    H119350   3.100   5.130   2.481  0.7481  1.6119 -0.0867
 6448TIP3    H219351   3.067   5.139   2.333 -0.5122  0.0239  0.0739
 6449TIP3   OH219352   0.214   0.769   4.030 -0.2354  0.1900 -0.2757
 6449TIP3    H119353   0.161   0.800   3.957 -0.7279  1.6145  0.6326
 6449TIP3    H219354   0.156   0.712   4.080 -0.8251  1.3878  0.4674
 6450TIP3   OH219355   4.238   4.910   1.116  0.7295  0.0337  0.4205
 6450TIP3    H119356   4.247   4.815   1.120  0.8485 -0.0116 -0.5962
 6450TIP3    H219357   4.232   4.938   1.207 -0.2370 -1.0422  0.7128
 6451TIP3   OH219358   1.543   4.928   2.965 -0.2750  0.0215 -0.4344
 6451TIP3    H119359   1.603   4.978   3.019 -0.2405  1.2187 -1.5206
 6451TIP3    H219360   1.457   4.943   3.004 -0.0885 -0.2223  0.0702
 6452TIP3   OH219361   5.253   1.550   2.652  0.1301  0.2202 -0.1165
 6452TIP3    H119362   5.227   1.461   2.632  0.1579  0.3388 -0.7184
 6452TIP3    H219363   5.192   1.605   2.602 -1.4529  0.6189  2.1227
 6453TIP3   OH219364   0.924   5.247   1.373 -0.2785  0.4997  0.0088
 6453TIP3    H119365   1.004   5.203   1.345 -0.6311  0.1124 -0.4096
 6453TIP3    H219366   0.858   5.219   1.310 -1.5922 -1.9801  2.2730
 6454TIP3   OH219367   0.748   1.763   4.677 -0.1266  0.3014  0.5505
 6454TIP3    H119368   0.814   1.789   4.612  0.1870 -0.6860  0.4530
 6454TIP3    H219369   0.799   1.723   4.747 -0.7060 -2.4229 -0.4631
 6455TIP3   OH219370   2.406   5.351   4.284 -0.6529 -0.5704 -0.1946
 6455TIP3    H119371   2.475   5.358   4.350 -0.3022  1.2881 -0.7027
 6455TIP3    H219372   2.325   5.344   4.334 -0.2996 -0.3025  0.4226
 6456TIP3   OH219373   5.803   0.196   2.492  0.4482 -0.4787  0.2615
 6456TIP3    H119374   5.894   0.178   2.516  0.8425 -1.5329 -1.7336
 6456TIP3    H219375   5.798   0.170   2.399 -2.4763 -2.7249  0.8966
 6457TIP3   OH219376   2.490   3.464   2.395 -0.3173  0.3279  0.1874
 6457TIP3    H119377   2.427   3.491   2.329 -0.2318  0.1041  0.0135
 6457TIP3    H219378   2.499   3.369   2.383 -0.0632  0.3344  0.3081
 6458TIP3   OH219379   5.636   3.309   0.700 -0.7331 -0.4706  0.7619
 6458TIP3    H119380   5.627   3.385   0.757 -0.5898  0.7268 -0.7290
 6458TIP3    H219381   5.715   3.264   0.730 -1.4271 -0.6824  2.3517
 6459TIP3   OH219382   2.584   3.542   1.743 -0.2458  0.9517 -0.3250
 6459TIP3    H119383   2.590   3.451   1.771  1.1775  0.3117 -2.4335
 6459TIP3    H219384   2.497   3.551   1.706 -0.1206  0.2201 -0.7992
 6460TIP3   OH219385   5.380   3.733   3.830  0.1575  0.4857  0.0858
 6460TIP3    H119386   5.331   3.658   3.863 -1.3972  1.2694 -0.3264
 6460TIP3    H219387   5.369   3.730   3.735 -0.2814  1.4565  0.0926
 6461TIP3   OH219388   3.236   1.846   4.558 -0.2244  0.0811 -0.1364
 6461TIP3    H119389   3.190   1.762   4.565  0.1565 -0.2979 -1.6760
 6461TIP3    H219390   3.202   1.885   4.477  1.0127  0.4840 -0.4832
 6462TIP3   OH219391   3.544   5.217   0.419 -0.3820  0.2137  0.0558
 6462TIP3    H119392   3.592   5.267   0.484 -1.7286  0.2150  1.1028
 6462TIP3    H219393   3.611   5.183   0.360  0.6063  2.7830 -0.3935
 6463TIP3   OH219394   4.099   1.302   1.887 -0.5818  0.1006 -0.7658
 6463TIP3    H119395   4.085   1.397   1.897  1.2576  0.1885  1.8993
 6463TIP3    H219396   4.036   1.276   1.819 -2.6145  2.8597 -0.1167
 6464TIP3   OH219397   1.927   2.401   1.336  0.2215 -0.3504  0.0870
 6464TIP3    H119398   1.914   2.366   1.424 -0.6603 -2.2587 -0.7402
 6464TIP3    H219399   2.005   2.356   1.303 -0.5808 -1.1718 -0.7770
 6465TIP3   OH219400   1.182   0.937   4.486 -0.3872 -0.0657  0.0759
 6465TIP3    H119401   1.112   0.988   4.446 -0.1153  0.5769  0.3977
 6465TIP3    H219402   1.138   0.885   4.554 -0.1880  2.9557  2.7877
 6466TIP3   OH219403   1.651   2.445   2.379  0.8811  0.1935  0.0684
 6466TIP3    H119404   1.613   2.380   2.320 -0.5170  0.2135  0.9137
 6466TIP3    H219405   1.576   2.482   2.426  1.7575  1.6827  0.3464
 6467TIP3   OH219406   0.537   3.715   3.054  0.1028  0.2218  0.0399
 6467TIP3    H119407   0.545   3.630   3.009  0.5172  0.8405 -1.1107
 6467TIP3    H219408   0.490   3.770   2.992  2.5040  1.7176 -0.5988
 6468TIP3   OH219409   0.609   1.127   1.045 -0.1311 -0.1873 -0.2148
 6468TIP3    H119410   0.646   1.162   1.126  1.6162  1.3083 -1.5671
 6468TIP3    H219411   0.533   1.076   1.074  0.7748 -0.2358  2.3919
 6469TIP3   OH219412   6.246   3.977   0.886  0.2461  0.5537 -0.3893
 6469TIP3    H119413   6.165   3.998   0.839  0.0497 -2.1643 -1.4468
 6469TIP3    H219414   6.217   3.947   0.972 -0.0586 -1.5368 -1.1605
 6470TIP3   OH219415   6.297   2.560   4.950 -0.5167  0.4801 -0.0843
 6470TIP3    H119416   6.390   2.561   4.975 -0.5634 -1.9609  0.5159
 6470TIP3    H219417   6.280   2.648   4.916  1.4671  1.6729  1.7355
 6471TIP3   OH219418   0.847   4.594   4.061 -0.2188  0.6798  0.1366
 6471TIP3    H119419   0.937   4.625   4.056  0.6400 -1.7311 -0.8931
 6471TIP3    H219420   0.811   4.608   3.974  0.2292 -1.1868 -0.3865
 6472TIP3   OH219421   0.026   5.338   1.776 -0.1095 -0.2202 -0.0788
 6472TIP3    H119422   0.001   5.375   1.691 -1.3344  0.1672  0.4308
 6472TIP3    H219423   0.054   5.248   1.756 -1.3680 -0.4776 -0.7720
 6473TIP3   OH219424   4.903   3.381   2.600  0.2083  0.6774  0.5754
 6473TIP3    H119425   4.917   3.397   2.694 -1.6607  2.6743  0.6149
 6473TIP3    H219426   4.990   3.375   2.563  1.0955  3.1961  1.9945
 6474TIP3   OH219427   3.458   0.221   0.555 -0.4294  0.3439 -0.4046
 6474TIP3    H119428   3.545   0.194   0.583 -1.0812  0.2157  1.7504
 6474TIP3    H219429   3.463   0.316   0.549 -0.5581  0.5324  1.6061
 6475TIP3   OH219430   2.714   1.995   3.969  0.2932  0.3537 -0.1371
 6475TIP3    H119431   2.643   1.940   4.001  0.3975  0.4881  0.3310
 6475TIP3    H219432   2.794   1.950   3.997  0.4007  0.0333 -0.9452
 6476TIP3   OH219433   5.953   2.893   3.275 -0.3259  0.1589 -0.1461
 6476TIP3    H119434   5.966   2.979   3.315 -1.1907  0.6084 -0.8133
 6476TIP3    H219435   6.032   2.879   3.223 -0.8471  1.2357 -1.2531
 6477TIP3   OH219436   0.871   0.051   4.855  0.2295  0.1531 -0.3738
 6477TIP3    H119437   0.952   0.009   4.827 -1.2829 -2.6688 -0.9288
 6477TIP3    H219438   0.868   0.039   4.950  0.0929 -0.4741 -0.4569
 6478TIP3   OH219439   1.737   5.839   4.919  0.3094  0.4175 -0.1559
 6478TIP3    H119440   1.692   5.917   4.949 -0.5425 -1.0298  2.6154
 6478TIP3    H219441   1.689   5.766   4.957  1.7881 -1.4494 -1.6211
 6479TIP3   OH219442   1.780   3.970   3.779 -0.2301 -0.3651 -0.9758
 6479TIP3    H119443   1.796   3.879   3.806 -0.6555 -1.2397 -3.4003
 6479TIP3    H219444   1.863   4.000   3.744  0.3752  0.8262  1.3141
 6480TIP3   OH219445   5.611   4.065   3.823  0.0684  0.1029  0.0299
 6480TIP3    H119446   5.631   4.135   3.761  0.9968 -0.4190 -0.2804
 6480TIP3    H219447   5.526   4.031   3.794 -0.1699  0.7858 -0.0963
 6481TIP3   OH219448   4.301   1.901   4.919 -0.1369 -0.4634  0.0936
 6481TIP3    H119449   4.378   1.957   4.917 -0.2296 -0.2977  0.8767
 6481TIP3    H219450   4.323   1.827   4.863  0.9600 -0.8773  1.0246
 6482TIP3   OH219451   6.309   1.954   2.401 -0.1996  0.0542  0.1234
 6482TIP3    H119452   6.233   2.012   2.390  0.6225  1.1815  0.3015
 6482TIP3    H219453   6.271   1.872   2.431 -1.3806  0.5303  0.0076
 6483TIP3   OH219454   5.506   4.880   4.735 -0.4225  0.2114 -0.3568
 6483TIP3    H119455   5.483   4.892   4.827 -1.5302  1.2099 -0.7358
 6483TIP3    H219456   5.508   4.968   4.699  2.7749  0.1179 -0.7124
 6484TIP3   OH219457   5.318   3.417   0.409  0.0980 -0.0881  0.2544
 6484TIP3    H119458   5.341   3.376   0.326 -3.0191 -3.0436  0.6190
 6484TIP3    H219459   5.260   3.489   0.386  0.4696  0.0788 -0.1715
 6485TIP3   OH219460   3.833   0.889   0.062  0.3011 -0.3265  0.2019
 6485TIP3    H119461   3.865   0.926  -0.020 -0.1070 -0.3154  0.0458
 6485TIP3    H219462   3.861   0.952   0.129  1.9511 -1.0779  0.2744
 6486TIP3   OH219463   1.795   2.082   3.690 -0.7136  0.0925  0.3000
 6486TIP3    H119464   1.848   2.138   3.746 -0.7491  2.2315 -1.6629
 6486TIP3    H219465   1.853   2.057   3.618 -1.5937  0.3034 -0.5072
 6487TIP3   OH219466   1.016   2.363   1.217  0.2486 -0.2290  0.4721
 6487TIP3    H119467   0.972   2.331   1.138  1.7864 -0.3245 -0.3793
 6487TIP3    H219468   0.945   2.396   1.272 -0.9037 -0.6224 -0.7243
 6488TIP3   OH219469   1.842   0.901   4.802  0.4634  0.2245  0.3336
 6488TIP3    H119470   1.758   0.913   4.760  0.3297 -0.0572  0.5183
 6488TIP3    H219471   1.894   0.977   4.774  0.4315 -0.0417 -0.4569
 6489TIP3   OH219472   2.516   3.016   4.357  0.4118  0.2346 -0.2781
 6489TIP3    H119473   2.587   3.075   4.383  1.0991 -0.3470 -0.7980
 6489TIP3    H219474   2.527   2.939   4.413 -0.5889  0.6584  0.5221
 6490TIP3   OH219475   1.127   1.825   3.799  0.3092 -0.2806  1.0339
 6490TIP3    H119476   1.157   1.842   3.888  2.6235 -0.9339  0.4455
 6490TIP3    H219477   1.207   1.822   3.747 -1.0707  1.2651 -1.3114
 6491TIP3   OH219478   0.305   5.519   1.621 -0.3769  0.1495 -0.2399
 6491TIP3    H119479   0.230   5.577   1.636 -0.5147 -0.1565  0.2711
 6491TIP3    H219480   0.345   5.509   1.707  0.2580  0.3162 -0.5140
 6492TIP3   OH219481   0.156   4.384   2.940  0.5166 -0.1928 -0.6496
 6492TIP3    H119482   0.101   4.460   2.957  0.8356 -0.1288  0.1453
 6492TIP3    H219483   0.096   4.318   2.905 -0.1908 -0.3121  0.7132
 6493TIP3   OH219484   2.176   3.067   0.712  0.1190 -0.3838 -0.0964
 6493TIP3    H119485   2.096   3.014   0.720 -1.0581  0.9135 -2.1421
 6493TIP3    H219486   2.154   3.149   0.756  0.1564  0.1195 -0.9975
 6494TIP3   OH219487   5.991   1.058   3.842  0.4001  0.3038  0.1217
 6494TIP3    H119488   5.914   1.007   3.864 -0.5838  1.2101 -1.0665
 6494TIP3    H219489   6.063   1.016   3.890 -0.6793 -1.0340  0.6170
 6495TIP3   OH219490   6.174   4.789   0.765 -0.2316 -0.1182 -0.2654
 6495TIP3    H119491   6.152   4.874   0.805  1.3568 -0.2433  0.9709
 6495TIP3    H219492   6.168   4.727   0.837  3.6001 -0.2124  0.1673
 6496TIP3   OH219493   2.420   0.136   2.746 -0.1482  0.2030 -0.2879
 6496TIP3    H119494   2.427   0.120   2.841 -0.0888 -1.0102 -0.4814
 6496TIP3    H219495   2.326   0.131   2.728 -0.2294  1.1565 -0.1902
 6497TIP3   OH219496   0.527   4.526   2.708 -0.5725  0.3715 -0.3458
 6497TIP3    H119497   0.481   4.470   2.771 -1.1443  1.4394  0.2190
 6497TIP3    H219498   0.618   4.498   2.712 -1.0607 -1.4243 -1.0884
 6498TIP3   OH219499   4.897   2.516   4.755  0.1640 -0.2523 -0.3520
 6498TIP3    H119500   4.878   2.536   4.847  2.0563 -2.9262  0.7293
 6498TIP3    H219501   4.979   2.564   4.737 -0.5545  0.8056 -0.9017
 6499TIP3   OH219502   2.067   4.003   2.062 -0.4486  0.3074  0.0151
 6499TIP3    H119503   2.087   3.930   2.003  2.0760 -0.3618  1.5435
 6499TIP3    H219504   1.982   3.980   2.099 -0.9340 -0.4891 -1.5137
 6500TIP3   OH219505   2.580   0.708   3.342 -0.4042 -0.1851 -0.0022
 6500TIP3    H119506   2.520   0.662   3.283  1.6954 -1.1528 -1.5161
 6500TIP3    H219507   2.632   0.638   3.382  1.6247  0.7190 -0.9440
 6501TIP3   OH219508   4.938   4.189   2.245 -0.5711  0.7210  0.1123
 6501TIP3    H119509   5.018   4.139   2.234 -0.4171  1.1668 -0.9175
 6501TIP3    H219510   4.964   4.265   2.297  0.0019  1.5641 -1.3437
 6502TIP3   OH219511   2.589   1.286   2.467  0.0841  0.2263 -0.2014
 6502TIP3    H119512   2.569   1.238   2.387 -0.1798  1.0476 -0.6345
 6502TIP3    H219513   2.535   1.244   2.534 -1.2268  0.8172 -0.8636
 6503TIP3   OH219514   3.608   1.209   5.142  0.0817  0.5620 -0.1169
 6503TIP3    H119515   3.587   1.189   5.233 -0.3321  0.2583 -0.2781
 6503TIP3    H219516   3.698   1.176   5.131  0.0582  0.4170  0.1226
 6504TIP3   OH219517   3.085   3.550   0.078  0.8567  0.6470  0.2977
 6504TIP3    H119518   3.096   3.500   0.158 -0.1986  1.5114  1.0150
 6504TIP3    H219519   3.043   3.632   0.106 -2.3227 -0.1977 -1.4208
 6505TIP3   OH219520   0.404   5.981   3.876  0.3174  0.8715 -0.2520
 6505TIP3    H119521   0.414   5.886   3.874 -0.0303  0.8449 -1.3141
 6505TIP3    H219522   0.401   6.003   3.970 -2.3778 -0.4644  0.0753
 6506TIP3   OH219523   0.648   5.139   2.610 -0.1232 -0.1191 -0.4601
 6506TIP3    H119524   0.669   5.046   2.610  1.3773  0.1893 -0.5972
 6506TIP3    H219525   0.706   5.177   2.676 -0.7054  0.7232 -0.4161
 6507TIP3   OH219526   1.561   2.492   5.078 -0.3903 -0.5825  0.6913
 6507TIP3    H119527   1.655   2.498   5.095 -0.2086  1.8832 -0.6201
 6507TIP3    H219528   1.546   2.401   5.053  1.8639 -0.7859 -0.1135
 6508TIP3   OH219529   2.038   0.410   3.469 -0.2156  0.2766 -0.5598
 6508TIP3    H119530   2.090   0.373   3.540  1.7788  1.9222 -1.0560
 6508TIP3    H219531   1.948   0.412   3.504 -0.0034 -2.4644  0.4090
 6509TIP3   OH219532   2.779   0.822   1.748  0.1677  0.3346 -0.0298
 6509TIP3    H119533   2.822   0.863   1.673 -0.1478  1.1810  0.2423
 6509TIP3    H219534   2.833   0.846   1.823  0.7742 -0.9403 -0.0250
 6510TIP3   OH219535   6.195   2.883   2.175 -0.0756  0.2821 -0.0977
 6510TIP3    H119536   6.205   2.978   2.168 -0.8574  0.4365  0.7290
 6510TIP3    H219537   6.145   2.870   2.256  0.4630 -0.8652  0.0643
 6511TIP3   OH219538   0.566   0.239   3.181 -0.5986  0.2533  0.2515
 6511TIP3    H119539   0.482   0.206   3.213 -1.5337  0.4523 -1.8130
 6511TIP3    H219540   0.586   0.313   3.237 -1.0612 -0.6667  1.6885
 6512TIP3   OH219541   3.276   0.495   0.334  0.4594 -0.0358  0.0473
 6512TIP3    H119542   3.237   0.540   0.259  2.5963 -2.4394 -2.7642
 6512TIP3    H219543   3.316   0.564   0.386 -0.6765  1.6945 -1.2937
 6513TIP3   OH219544   1.535   4.770   4.551 -0.1638 -0.3857 -0.0581
 6513TIP3    H119545   1.570   4.857   4.571  0.8596 -0.9801  0.8609
 6513TIP3    H219546   1.612   4.718   4.527 -0.7936 -0.9748 -0.8891
 6514TIP3   OH219547   1.057   1.241   0.320 -0.4151 -0.1453 -0.9661
 6514TIP3    H119548   1.145   1.218   0.350 -0.4046 -0.7560 -1.4642
 6514TIP3    H219549   1.070   1.321   0.268 -0.2774  0.2468 -0.3485
 6515TIP3   OH219550   3.175   3.589   3.421  0.1527 -0.5949  0.0996
 6515TIP3    H119551   3.142   3.585   3.331 -0.0912  0.3633  0.1338
 6515TIP3    H219552   3.120   3.527   3.469 -2.0206  1.3181  0.2558
 6516TIP3   OH219553   4.068   4.342   3.075  0.3744 -0.1198 -0.2289
 6516TIP3    H119554   4.121   4.263   3.068  0.7425  0.1557 -0.6041
 6516TIP3    H219555   4.092   4.394   2.998  1.5253  1.2057  0.9768
 6517TIP3   OH219556   5.687   1.242   4.383  0.2424 -0.6743 -0.1712
 6517TIP3    H119557   5.661   1.194   4.461  0.2316  0.7257  0.7118
 6517TIP3    H219558   5.775   1.211   4.364  0.3596 -0.8088  0.5740
 6518TIP3   OH219559   4.223   2.109   0.546 -0.3759  0.8048 -0.4480
 6518TIP3    H119560   4.192   2.029   0.588  0.1462  1.3816  1.1119
 6518TIP3    H219561   4.206   2.095   0.452 -0.7912 -0.8851 -0.1590
 6519TIP3   OH219562   4.813   0.706   2.368 -0.3260  0.1670  0.0401
 6519TIP3    H119563   4.793   0.661   2.450 -0.2484 -1.5735 -0.8309
 6519TIP3    H219564   4.830   0.797   2.393 -0.5848 -0.2566  1.8940
 6520TIP3   OH219565   3.734   4.749   2.405 -0.0299 -0.2237  0.5274
 6520TIP3    H119566   3.750   4.760   2.311 -1.9639 -0.0222  0.1727
 6520TIP3    H219567   3.821   4.751   2.445  0.7828  0.4268 -1.1789
 6521TIP3   OH219568   5.108   2.471   1.264  0.7562  0.0919 -0.1206
 6521TIP3    H119569   5.136   2.555   1.226  0.0528 -0.0651 -1.0193
 6521TIP3    H219570   5.044   2.437   1.201 -1.8860  0.6791  2.0785
 6522TIP3   OH219571   2.203   5.884   3.242 -0.4694  0.2857  0.0786
 6522TIP3    H119572   2.269   5.941   3.283 -1.3726  1.4361 -0.0140
 6522TIP3    H219573   2.254   5.812   3.204  0.9624  2.1443 -1.7132
 6523TIP3   OH219574   1.726   5.711   0.621 -0.0514  0.1147 -0.6882
 6523TIP3    H119575   1.704   5.659   0.697  2.5074  0.6633  0.5357
 6523TIP3    H219576   1.761   5.648   0.558 -0.1470 -0.0652 -0.5623
 6524TIP3   OH219577   0.808   1.355   4.719 -0.4005  0.5900 -0.1182
 6524TIP3    H119578   0.735   1.417   4.717 -0.9007  0.4382  4.1482
 6524TIP3    H219579   0.886   1.411   4.717 -0.6257  0.8989 -2.2151
 6525TIP3   OH219580   5.840   5.186   4.439 -0.5881 -0.4291 -0.0754
 6525TIP3    H119581   5.787   5.136   4.501  1.3787 -2.5607  0.0050
 6525TIP3    H219582   5.810   5.156   4.353 -1.2787  0.3187 -0.1036
 6526TIP3   OH219583   1.360   1.775   3.649  0.2591  0.7132  0.4173
 6526TIP3    H119584   1.447   1.808   3.673  0.8159  0.7725 -1.4726
 6526TIP3    H219585   1.372   1.681   3.635  0.0132  0.7037  0.2524
 6527TIP3   OH219586   0.071   4.858   0.662  0.0116  0.1533 -0.0767
 6527TIP3    H119587  -0.019   4.839   0.690  0.4460  0.2764  1.5050
 6527TIP3    H219588   0.117   4.879   0.743  2.0379 -2.1352 -0.5138
 6528TIP3   OH219589   2.055   3.624   0.537  0.2582  0.0946 -0.1122
 6528TIP3    H119590   2.133   3.620   0.592  0.1507  0.4102  0.0631
 6528TIP3    H219591   1.997   3.557   0.573 -0.4631  1.3520  1.1679
 6529TIP3   OH219592   3.433   0.685   0.437 -0.2215 -0.0671  0.2847
 6529TIP3    H119593   3.392   0.742   0.502  0.5001 -1.3047  1.8989
 6529TIP3    H219594   3.510   0.735   0.407 -0.7374  0.6438  0.1273
 6530TIP3   OH219595   3.422   2.475   3.720  0.1309  0.3138  0.4212
 6530TIP3    H119596   3.386   2.555   3.757 -0.1953  0.9904 -1.2601
 6530TIP3    H219597   3.363   2.406   3.749 -1.7265  1.1926 -1.0188
 6531TIP3   OH219598   5.313   1.071   1.060  0.0609  0.2662  0.3318
 6531TIP3    H119599   5.367   1.007   1.107 -1.1550 -0.0276  1.3915
 6531TIP3    H219600   5.350   1.072   0.972  0.8025 -1.0968  0.5811
 6532TIP3   OH219601   3.278   3.780   3.609 -0.2745 -0.9135  0.0532
 6532TIP3    H119602   3.247   3.700   3.568 -0.8499 -2.3065  2.9231
 6532TIP3    H219603   3.370   3.763   3.628 -0.2278 -0.6361  0.0797
 6533TIP3   OH219604   1.764   5.328   2.766 -0.2890 -0.5699 -0.3257
 6533TIP3    H119605   1.834   5.271   2.799  0.0020 -1.3663 -2.2321
 6533TIP3    H219606   1.708   5.343   2.843  2.1236  0.4171  1.3568
 6534TIP3   OH219607   5.446   5.185   2.986 -0.3402 -0.5865  0.3440
 6534TIP3    H119608   5.457   5.254   2.922 -0.9750  1.2489  2.0891
 6534TIP3    H219609   5.526   5.187   3.039  0.1907 -2.0860 -0.3430
 6535TIP3   OH219610   3.111   5.375   3.572  0.2632 -0.1826 -0.5137
 6535TIP3    H119611   3.016   5.383   3.581  0.3971 -0.0653  0.9691
 6535TIP3    H219612   3.141   5.464   3.555  0.1383 -0.1711 -0.6739
 6536TIP3   OH219613   4.344   1.715   4.393 -0.2069 -0.5103 -0.5028
 6536TIP3    H119614   4.272   1.666   4.433 -1.1851  0.6472 -0.7977
 6536TIP3    H219615   4.341   1.692   4.300  1.1086 -2.0179 -0.2186
 6537TIP3   OH219616   1.862   2.877   1.065  0.0239  0.2747 -0.5422
 6537TIP3    H119617   1.933   2.886   1.128 -0.5720 -1.7150  0.4819
 6537TIP3    H219618   1.782   2.882   1.118 -0.5416  0.4047 -1.3887
 6538TIP3   OH219619   4.219   3.035   2.379 -0.4236 -0.3986 -0.0724
 6538TIP3    H119620   4.306   3.073   2.366 -0.7398 -0.0824 -1.3051
 6538TIP3    H219621   4.235   2.959   2.435  0.6679 -0.3996 -0.3667
 6539TIP3   OH219622   2.158   3.554   0.199  0.0997  0.3391  0.4186
 6539TIP3    H119623   2.143   3.507   0.281 -0.6570  0.9729  0.6633
 6539TIP3    H219624   2.148   3.488   0.131 -1.4656  0.2032  0.7248
 6540TIP3   OH219625   2.890   1.244   4.631 -0.2464 -0.0339 -0.0522
 6540TIP3    H119626   2.888   1.239   4.536  0.0631 -0.7498 -0.0266
 6540TIP3    H219627   2.955   1.179   4.657  1.8141  2.1016  0.5196
 6541TIP3   OH219628   4.620   1.305   3.330  0.3135  0.4547  0.2586
 6541TIP3    H119629   4.676   1.376   3.300  1.5415 -0.2142  0.9027
 6541TIP3    H219630   4.616   1.316   3.425 -0.8663  0.6299  0.2064
 6542TIP3   OH219631   6.003   2.924   2.464 -0.4646  0.2739 -0.3728
 6542TIP3    H119632   5.997   2.884   2.551 -0.9856  1.9003  0.3841
 6542TIP3    H219633   6.093   2.957   2.459 -0.8417  1.4251  0.1511
 6543TIP3   OH219634   3.680   2.462   3.702 -0.5248  0.0518  0.2728
 6543TIP3    H119635   3.709   2.383   3.658 -0.5584  1.2641 -2.0529
 6543TIP3    H219636   3.589   2.444   3.726 -0.0270 -1.2046  1.3310
 6544TIP3   OH219637   1.047   5.458   5.158  0.5854 -0.3496  0.4344
 6544TIP3    H119638   0.993   5.534   5.180 -0.4415 -1.0736  0.4459
 6544TIP3    H219639   1.137   5.491   5.165  0.1658  0.8696  0.4161
 6545TIP3   OH219640   5.571   5.611   4.801 -0.4128 -0.7171 -0.5306
 6545TIP3    H119641   5.532   5.602   4.888  0.4911 -1.6550 -0.1882
 6545TIP3    H219642   5.630   5.686   4.808 -1.4203  0.1139 -0.7745
 6546TIP3   OH219643   3.018   3.106   3.551 -0.5109 -0.1620 -0.5498
 6546TIP3    H119644   3.011   3.038   3.618 -0.5338  0.3347 -0.0405
 6546TIP3    H219645   2.929   3.113   3.515 -0.4368 -0.6250 -0.8371
 6547TIP3   OH219646   0.772   2.539   2.051 -0.4136  0.2986 -0.2673
 6547TIP3    H119647   0.830   2.590   2.107  0.4245 -0.5489 -0.3324
 6547TIP3    H219648   0.824   2.461   2.027 -1.9872 -1.0991  0.6653
 6548TIP3   OH219649   2.617   3.417   4.828 -0.5995 -0.4570 -0.1622
 6548TIP3    H119650   2.674   3.494   4.821 -2.2089  0.8268  0.2764
 6548TIP3    H219651   2.555   3.426   4.756 -1.1641 -1.0430  0.2348
 6549TIP3   OH219652   0.106   5.009   0.432  0.6239  0.0565 -0.3581
 6549TIP3    H119653   0.102   4.946   0.503 -0.1519  1.0838  0.5540
 6549TIP3    H219654   0.078   5.092   0.472  0.5256  0.7395 -1.7700
 6550TIP3   OH219655   0.413   3.049   1.702 -0.8216  0.4375 -0.0278
 6550TIP3    H119656   0.453   3.048   1.615 -1.0641  0.8572 -0.1454
 6550TIP3    H219657   0.451   2.972   1.746 -1.0556 -0.0498 -0.6592
 6551TIP3   OH219658   3.747   4.254   0.986 -0.0520  0.0656 -0.1806
 6551TIP3    H119659   3.744   4.236   0.892  0.3763 -2.5108  0.2171
 6551TIP3    H219660   3.693   4.186   1.026  2.6298 -1.2068  1.6347
 6552TIP3   OH219661   4.008   1.494   2.667  0.2724 -0.7214 -0.6276
 6552TIP3    H119662   4.070   1.438   2.715  1.0960 -1.3615 -2.3149
 6552TIP3    H219663   3.934   1.437   2.648 -0.9132  0.0405  1.3731
 6553TIP3   OH219664   6.311   4.469   3.395 -0.1879  0.6134 -0.3013
 6553TIP3    H119665   6.386   4.411   3.387  1.4726  2.5735  0.1540
 6553TIP3    H219666   6.301   4.507   3.308 -0.8088  0.2130 -0.4130
 6554TIP3   OH219667   1.758   3.949   3.372  0.0082  1.1783  0.5283
 6554TIP3    H119668   1.689   3.888   3.344  0.2511  0.9785  0.3625
 6554TIP3    H219669   1.714   4.009   3.432  0.0706 -0.0419  1.8421
 6555TIP3   OH219670   2.937   1.013   4.090  0.3811  0.0558 -0.0389
 6555TIP3    H119671   2.951   0.935   4.144 -0.3644 -1.0797 -1.4348
 6555TIP3    H219672   2.847   1.039   4.108  0.1627 -0.2669 -0.6484
 6556TIP3   OH219673   0.461   5.049   2.205 -0.4113 -0.5432  0.4176
 6556TIP3    H119674   0.452   4.989   2.279 -1.4583 -0.3437  0.4722
 6556TIP3    H219675   0.376   5.044   2.160 -0.4234  0.7109  0.2861
 6557TIP3   OH219676   1.332   4.965   4.815  0.1661 -0.6704  0.3705
 6557TIP3    H119677   1.312   5.043   4.866  0.2111 -0.9493  0.8286
 6557TIP3    H219678   1.281   4.974   4.735  1.7862  0.8359 -0.5334
 6558TIP3   OH219679   6.139   1.177   1.067  0.5126 -0.2874  0.3008
 6558TIP3    H119680   6.085   1.099   1.085  1.0676 -0.8476 -0.4072
 6558TIP3    H219681   6.182   1.195   1.151 -1.5696  0.8430  1.2119
 6559TIP3   OH219682   4.070   5.933   4.823 -0.0874 -0.5319 -0.0088
 6559TIP3    H119683   4.008   5.935   4.750  0.4754 -0.9606 -0.5024
 6559TIP3    H219684   4.016   5.913   4.900 -0.9280  1.3390 -0.0349
 6560TIP3   OH219685   1.639   3.390   4.172  0.4793  0.1455  0.1418
 6560TIP3    H119686   1.718   3.387   4.226  1.3389  3.8399 -0.6770
 6560TIP3    H219687   1.567   3.402   4.234  0.5404 -2.4676  0.8322
 6561TIP3   OH219688   6.147   0.139   3.433  0.2064  0.4099 -0.1232
 6561TIP3    H119689   6.076   0.184   3.478 -0.6811 -0.7354 -0.3180
 6561TIP3    H219690   6.227   0.175   3.470 -0.4950  0.8410  0.9921
 6562TIP3   OH219691   1.835   2.506   0.034 -0.5623  0.1149 -0.2782
 6562TIP3    H119692   1.839   2.474   0.124 -0.0124 -0.0571 -0.3625
 6562TIP3    H219693   1.777   2.444  -0.011 -1.3458  0.5598  0.0991
 6563TIP3   OH219694   6.089   3.748   2.243  0.5106 -0.0415 -0.4976
 6563TIP3    H119695   5.994   3.743   2.237  0.1642  1.4319  1.9675
 6563TIP3    H219696   6.116   3.660   2.268 -0.3870 -0.1282  0.2319
 6564TIP3   OH219697   1.632   5.388   1.072  0.1962 -0.5358  0.1094
 6564TIP3    H119698   1.611   5.425   1.158  1.6274  0.1462  0.1918
 6564TIP3    H219699   1.589   5.303   1.072 -2.3815  0.6528  0.2945
 6565TIP3   OH219700   0.074   1.389   1.374  0.2175 -0.0710 -0.7293
 6565TIP3    H119701   0.087   1.435   1.291 -0.2213  0.9107 -0.2681
 6565TIP3    H219702   0.035   1.455   1.432  0.8212 -0.6559  0.3599
 6566TIP3   OH219703   3.521   5.019   0.656  0.2827 -0.0532 -0.3666
 6566TIP3    H119704   3.554   5.056   0.574 -1.6998 -0.4382 -1.4021
 6566TIP3    H219705   3.450   4.960   0.628 -0.8896  0.3207  1.6624
 6567TIP3   OH219706   2.781   4.372   4.978 -0.2952 -0.1113 -0.4161
 6567TIP3    H119707   2.805   4.464   4.971 -2.0232  0.3698 -0.6125
 6567TIP3    H219708   2.790   4.338   4.889  0.2012 -0.0929 -0.3727
 6568TIP3   OH219709   1.181   5.228   0.949  0.0119 -0.3765 -0.2003
 6568TIP3    H119710   1.159   5.136   0.966  1.3770 -0.6385  0.2578
 6568TIP3    H219711   1.191   5.266   1.036 -1.7192  0.5268 -0.3676
 6569TIP3   OH219712   5.679   5.183   1.991 -0.0532  0.0728  0.1421
 6569TIP3    H119713   5.666   5.124   1.917  1.4883 -0.2646  0.1141
 6569TIP3    H219714   5.665   5.128   2.068  2.7657 -0.7747  0.1488
 6570TIP3   OH219715   1.837   4.526   4.716  0.3195 -0.5162  0.0715
 6570TIP3    H119716   1.777   4.592   4.752  0.9096  0.0812 -0.0170
 6570TIP3    H219717   1.858   4.558   4.628  1.9453  0.1015  0.6350
 6571TIP3   OH219718   0.564   3.920   0.887  0.0228  0.3998  0.5661
 6571TIP3    H119719   0.559   3.838   0.837  3.1160 -0.0584  0.7732
 6571TIP3    H219720   0.473   3.943   0.905 -1.0013 -2.5423 -0.2225
 6572TIP3   OH219721   2.252   3.915   4.255 -0.4957 -0.8963 -0.2319
 6572TIP3    H119722   2.167   3.916   4.212  0.1308  0.2935 -1.5334
 6572TIP3    H219723   2.315   3.905   4.183  0.6687  2.4526  0.1382
 6573TIP3   OH219724   2.576   1.786   0.155 -0.0694  0.3087 -0.1526
 6573TIP3    H119725   2.553   1.712   0.099 -0.5260  0.6310 -0.4012
 6573TIP3    H219726   2.492   1.826   0.177  0.1286  0.3623  0.5251
 6574TIP3   OH219727   6.305   4.104   2.564 -0.6337 -0.4346 -0.0202
 6574TIP3    H119728   6.282   4.012   2.547 -0.8273 -0.1252 -1.6259
 6574TIP3    H219729   6.250   4.154   2.504  0.3369  0.6639 -0.0372
 6575TIP3   OH219730   2.973   1.367   5.058  0.0695 -0.3229  0.1108
 6575TIP3    H119731   2.937   1.282   5.083 -0.6952 -0.0178  0.0704
 6575TIP3    H219732   2.994   1.359   4.965 -0.1371 -0.4234  0.0732
 6576TIP3   OH219733   0.718   2.696   4.288  0.2025 -0.0598  0.0266
 6576TIP3    H119734   0.721   2.786   4.255  0.1203 -0.2926 -0.6404
 6576TIP3    H219735   0.681   2.703   4.376 -0.3825  0.4953 -0.2590
 6577TIP3   OH219736   3.243   3.182   3.924 -0.3713 -0.4425 -0.6592
 6577TIP3    H119737   3.204   3.144   4.003  2.3313 -1.1549  0.4275
 6577TIP3    H219738   3.215   3.274   3.926 -1.6800 -0.8268  0.2127
 6578TIP3   OH219739   4.109   1.687   3.788  0.5254  0.3803  0.3938
 6578TIP3    H119740   4.138   1.607   3.746 -1.9587 -1.8988  2.6465
 6578TIP3    H219741   4.021   1.702   3.753  0.7466  1.8786  0.3975
 6579TIP3   OH219742   0.038   5.029   4.705  0.6992 -0.0897  0.1005
 6579TIP3    H119743   0.068   5.100   4.648  4.1932 -0.7914  0.7965
 6579TIP3    H219744   0.071   5.053   4.792 -2.1119 -0.3872  1.3600
 6580TIP3   OH219745   4.938   4.658   3.965 -0.0480  0.1827  0.4338
 6580TIP3    H119746   4.937   4.612   3.881  0.6809  1.6600 -0.4247
 6580TIP3    H219747   4.893   4.599   4.026  0.2954 -1.3483 -0.7526
 6581TIP3   OH219748   2.916   5.986   5.154 -0.0061  0.5678 -0.1005
 6581TIP3    H119749   2.838   5.931   5.162 -1.3988  2.4390 -0.1112
 6581TIP3    H219750   2.943   5.975   5.063 -0.2175 -0.1353 -0.0890
 6582TIP3   OH219751   0.524   1.376   2.601  0.1950  0.1292 -0.1326
 6582TIP3    H119752   0.538   1.297   2.652  2.4267 -0.1100 -1.0173
 6582TIP3    H219753   0.538   1.349   2.510 -3.3755  0.6089 -0.9778
 6583TIP3   OH219754   0.993   2.066   0.237 -0.2460 -0.6504  0.2902
 6583TIP3    H119755   1.020   2.141   0.184  1.1306 -1.6629 -0.5117
 6583TIP3    H219756   1.071   2.042   0.287 -1.1013 -0.6473  1.6866
 6584TIP3   OH219757   5.343   4.727   2.949 -0.3450  0.1891  0.1238
 6584TIP3    H119758   5.328   4.679   2.867 -0.6674  0.9798 -0.2835
 6584TIP3    H219759   5.271   4.701   3.006 -1.6528  1.6898 -0.7889
 6585TIP3   OH219760   4.800   5.299   2.058 -0.3547 -0.0535  0.6207
 6585TIP3    H119761   4.751   5.304   2.140 -0.2136  0.0733  0.6976
 6585TIP3    H219762   4.875   5.357   2.071  0.4165 -1.0985  0.9143
 6586TIP3   OH219763   0.417   0.254   2.694  0.1273  0.2119 -0.2308
 6586TIP3    H119764   0.495   0.247   2.750 -0.2321 -0.4944  0.1999
 6586TIP3    H219765   0.379   0.166   2.696 -0.1409  0.2937 -1.2320
 6587TIP3   OH219766   5.775   2.289   0.050  0.0103 -0.1555  0.5529
 6587TIP3    H119767   5.793   2.379   0.022  0.1369 -0.7561 -1.4352
 6587TIP3    H219768   5.681   2.289   0.070 -0.8597 -0.3218 -2.8662
 6588TIP3   OH219769   2.342   1.277   4.520 -0.1379  0.5460  0.1593
 6588TIP3    H119770   2.248   1.277   4.539 -0.1689  3.2239  0.4105
 6588TIP3    H219771   2.349   1.323   4.436  0.9747  0.7727  0.3612
 6589TIP3   OH219772   3.182   4.053   3.989 -0.5885 -0.2884 -1.3259
 6589TIP3    H119773   3.143   4.107   3.920  0.9499  0.0133 -2.0090
 6589TIP3    H219774   3.194   3.967   3.949 -2.6827 -1.0819 -0.3589
 6590TIP3   OH219775   1.638   0.835   0.963 -0.3535  0.2737  0.3661
 6590TIP3    H119776   1.690   0.886   1.025  0.4193 -0.6571  0.4962
 6590TIP3    H219777   1.556   0.818   1.009  0.0617 -0.0790  0.9847
 6591TIP3   OH219778   4.995   0.372   2.760 -0.0863  0.0338  0.0349
 6591TIP3    H119779   4.915   0.319   2.764  0.8196 -1.3336  0.8062
 6591TIP3    H219780   5.020   0.385   2.851 -0.6022  2.3717 -0.0987
 6592TIP3   OH219781   2.132   0.115   3.119  0.3505 -0.7302  0.2820
 6592TIP3    H119782   2.125   0.104   3.214  0.7465 -0.5593  0.3323
 6592TIP3    H219783   2.169   0.032   3.089  1.3840 -0.3257  0.4217
 6593TIP3   OH219784   3.089   3.633   2.080 -0.4638 -0.1267 -0.7007
 6593TIP3    H119785   3.138   3.705   2.040  2.8006 -0.7467  1.6649
 6593TIP3    H219786   3.021   3.676   2.131 -0.3683  1.0783 -1.5475
 6594TIP3   OH219787   4.833   0.821   0.927  0.1162 -0.1546  0.2064
 6594TIP3    H119788   4.872   0.733   0.927  2.2091  0.6956 -0.8364
 6594TIP3    H219789   4.817   0.840   0.834  1.3390  1.1955  0.2320
 6595TIP3   OH219790   3.248   5.770   2.434  0.0617 -0.6749 -0.3508
 6595TIP3    H119791   3.343   5.762   2.441  0.0490 -1.0245 -0.5726
 6595TIP3    H219792   3.230   5.862   2.455  0.6112 -0.1382 -2.0561
 6596TIP3   OH219793   4.379   3.866   3.705  0.0753  0.5257  0.1613
 6596TIP3    H119794   4.427   3.822   3.776 -0.3897 -0.8256 -0.3248
 6596TIP3    H219795   4.433   3.850   3.627  1.6715  3.7480  0.4340
 6597TIP3   OH219796   2.118   3.644   2.128  0.1710  0.0197 -0.0653
 6597TIP3    H119797   2.075   3.561   2.106  1.6392 -0.9306  0.4886
 6597TIP3    H219798   2.063   3.682   2.197 -0.1521 -0.8379  0.1599
 6598TIP3   OH219799   1.423   3.896   3.142 -0.4108  0.3204  0.0850
 6598TIP3    H119800   1.363   3.964   3.173  0.0215  1.9971 -2.4795
 6598TIP3    H219801   1.366   3.825   3.114 -1.1753  1.2912 -0.9399
 6599TIP3   OH219802   0.348   2.883   0.865 -0.2496  0.0834 -0.3268
 6599TIP3    H119803   0.399   2.831   0.926  0.3974  1.0912  0.0155
 6599TIP3    H219804   0.257   2.858   0.882  0.0751 -1.4659 -0.6923
 6600TIP3   OH219805   2.498   3.983   3.772 -0.1629  0.2541 -0.5428
 6600TIP3    H119806   2.439   3.962   3.699  1.7000 -0.2574 -1.9859
 6600TIP3    H219807   2.494   4.078   3.780 -1.7391  0.1765 -0.0790
 6601TIP3   OH219808   3.786   1.214   3.371  0.1399  0.4927 -0.3140
 6601TIP3    H119809   3.730   1.173   3.437  0.3292 -0.9344 -1.0062
 6601TIP3    H219810   3.744   1.192   3.287  2.1847 -1.4912 -0.9348
 6602TIP3   OH219811   3.516   2.838   4.765 -0.3690 -0.0170  0.5943
 6602TIP3    H119812   3.462   2.905   4.808 -1.1975 -0.6886  0.6177
 6602TIP3    H219813   3.597   2.838   4.815  0.9195  3.0883 -1.1900
 6603TIP3   OH219814   5.370   5.240   1.079  0.3886 -1.0160 -0.0231
 6603TIP3    H119815   5.291   5.285   1.049 -0.3941 -1.2969  1.5385
 6603TIP3    H219816   5.420   5.224   0.998 -1.7780 -2.0466 -1.2646
 6604TIP3   OH219817   1.208   2.274   0.402 -0.7070  0.2367 -0.3889
 6604TIP3    H119818   1.264   2.216   0.350  0.9502  1.1629  0.2904
 6604TIP3    H219819   1.154   2.319   0.337 -0.4712 -0.4696 -1.0923
 6605TIP3   OH219820   3.150   0.181   4.363  0.1177 -0.2015  0.0639
 6605TIP3    H119821   3.087   0.136   4.420  0.2615  0.7908  1.0539
 6605TIP3    H219822   3.199   0.111   4.321  0.3557 -1.0089  1.5949
 6606TIP3   OH219823   1.064   5.740   1.656  0.6491 -0.1419 -0.3388
 6606TIP3    H119824   1.033   5.703   1.738  1.1186  0.0287 -0.0857
 6606TIP3    H219825   1.035   5.677   1.589 -1.5190  0.6927 -0.2950
 6607TIP3   OH219826   1.960   5.916   4.017 -0.4278 -0.2129  0.0208
 6607TIP3    H119827   1.866   5.921   4.000 -0.6411  1.6135  1.3647
 6607TIP3    H219828   1.998   5.987   3.965  0.3441 -1.3752 -1.0700
 6608TIP3   OH219829   5.357   0.467   3.837  0.5508 -0.2232 -0.1571
 6608TIP3    H119830   5.302   0.466   3.758  0.7229 -1.8128 -0.2951
 6608TIP3    H219831   5.422   0.399   3.822  3.0471  2.0237 -0.2682
 6609TIP3   OH219832   1.771   0.581   0.942  0.5113  0.1759  0.0587
 6609TIP3    H119833   1.704   0.545   0.999 -0.7784 -0.0734 -1.5544
 6609TIP3    H219834   1.744   0.672   0.928 -1.0149 -0.5810 -2.6194
 6610TIP3   OH219835   1.896   1.612   3.413  0.3129 -0.3646 -0.2053
 6610TIP3    H119836   1.934   1.537   3.458 -0.0688 -1.2758 -1.3438
 6610TIP3    H219837   1.812   1.627   3.458 -0.6086 -1.9987 -1.2744
 6611TIP3   OH219838   1.037   0.714   4.991  0.2518 -0.2830 -0.5803
 6611TIP3    H119839   1.066   0.640   5.043 -1.1509 -2.0404 -2.1737
 6611TIP3    H219840   1.062   0.692   4.901  0.8428  1.7433 -0.9846
 6612TIP3   OH219841   4.969   0.866   2.575 -0.4418  0.1664 -0.3239
 6612TIP3    H119842   4.914   0.865   2.653  0.4738  1.1978  0.3506
 6612TIP3    H219843   5.011   0.781   2.574  0.9408  0.7807  1.3490
 6613TIP3   OH219844   0.075   2.508   3.495  0.1660  0.7991 -0.2460
 6613TIP3    H119845   0.063   2.512   3.400 -0.5660  0.0206 -0.2035
 6613TIP3    H219846  -0.006   2.543   3.531 -0.8494 -1.6338  0.0560
 6614TIP3   OH219847   0.332   4.433   4.691 -0.1233 -0.0103  0.1210
 6614TIP3    H119848   0.292   4.446   4.777  1.8185  0.9876  0.9408
 6614TIP3    H219849   0.405   4.496   4.689 -2.0196  2.4477 -3.5633
 6615TIP3   OH219850   3.348   2.774   3.808  0.1400 -0.5286  0.3410
 6615TIP3    H119851   3.284   2.839   3.779 -0.6675 -1.6075 -0.3965
 6615TIP3    H219852   3.401   2.819   3.873 -2.2815  0.0105  2.0517
 6616TIP3   OH219853   1.344   2.270   3.123  0.0904  0.1665  0.0474
 6616TIP3    H119854   1.400   2.198   3.152  1.4157  0.8214 -0.7667
 6616TIP3    H219855   1.344   2.264   3.028 -1.1920  0.2268  0.0346
 6617TIP3   OH219856   0.339   0.603   0.023 -1.0400 -0.5329  0.4036
 6617TIP3    H119857   0.248   0.630   0.011 -0.4997  2.6507  2.1579
 6617TIP3    H219858   0.359   0.625   0.114  1.8798  0.3704 -0.3328
 6618TIP3   OH219859   0.031   5.145   3.241 -0.2118 -0.0383  0.1231
 6618TIP3    H119860  -0.051   5.171   3.199 -0.9855  1.9286  2.5858
 6618TIP3    H219861   0.092   5.132   3.169 -2.0491  0.8117 -1.6889
 6619TIP3   OH219862   5.421   2.328   1.070 -0.1717 -0.1557 -0.4571
 6619TIP3    H119863   5.411   2.252   1.127  0.1333  0.1940  0.0684
 6619TIP3    H219864   5.351   2.388   1.097  0.1091  0.1038 -0.2850
 6620TIP3   OH219865   4.242   4.186   3.459  0.4942 -0.1789  0.5970
 6620TIP3    H119866   4.271   4.119   3.397  0.7160  1.6340 -1.3647
 6620TIP3    H219867   4.187   4.245   3.407 -1.5611 -0.0068  2.7686
 6621TIP3   OH219868   3.589   5.111   2.902 -0.0609  0.1959 -0.2205
 6621TIP3    H119869   3.624   5.063   2.977 -0.9465 -1.4157 -0.7963
 6621TIP3    H219870   3.601   5.053   2.827 -0.6428  1.1066 -1.0625
 6622TIP3   OH219871   2.491   1.092   1.121  0.0626 -0.0549 -0.0927
 6622TIP3    H119872   2.445   1.021   1.166 -1.3372  0.9127  0.0711
 6622TIP3    H219873   2.422   1.145   1.082  1.1928 -1.1167 -3.9635
 6623TIP3   OH219874   3.841   0.196   4.081  0.3486  0.2284 -0.4594
 6623TIP3    H119875   3.820   0.103   4.068 -0.6889  0.5329 -1.1431
 6623TIP3    H219876   3.880   0.200   4.168  3.0411 -1.2429 -1.4824
 6624TIP3   OH219877   2.565   5.326   1.641 -0.0191  0.2914 -0.3288
 6624TIP3    H119878   2.559   5.264   1.568  0.0308 -1.0791  0.7960
 6624TIP3    H219879   2.476   5.359   1.652 -0.2303 -0.2556 -0.3711
 6625TIP3   OH219880   2.486   0.626   2.142 -0.2051 -0.4844  0.2728
 6625TIP3    H119881   2.551   0.617   2.073 -0.6375 -0.9251 -0.0845
 6625TIP3    H219882   2.520   0.573   2.214 -0.2600 -0.8806  0.0121
 6626TIP3   OH219883   1.688   4.190   0.931  0.2193  0.5401  0.1064
 6626TIP3    H119884   1.696   4.204   1.026  1.1061 -0.0737  0.1310
 6626TIP3    H219885   1.688   4.278   0.894  0.2176  0.7728  0.6528
 6627TIP3   OH219886   1.335   5.378   3.032  0.0037 -0.6170 -0.2358
 6627TIP3    H119887   1.345   5.470   3.010 -0.0650  0.1667  2.7159
 6627TIP3    H219888   1.417   5.353   3.072 -1.5536 -0.3487  3.5265
 6628TIP3   OH219889   1.834   4.696   4.498  0.3454 -0.3459  0.3088
 6628TIP3    H119890   1.844   4.791   4.508  0.2313 -0.1958 -0.8062
 6628TIP3    H219891   1.887   4.675   4.420 -1.7065 -0.7684 -1.0500
 6629TIP3   OH219892   6.292   1.629   3.746 -0.3056 -0.4476 -0.0907
 6629TIP3    H119893   6.334   1.674   3.819 -0.1318 -2.0527  0.8418
 6629TIP3    H219894   6.201   1.616   3.774 -0.9899  1.2882 -1.3044
 6630TIP3   OH219895   5.682   1.889   3.842 -0.0059  0.9326 -0.8641
 6630TIP3    H119896   5.601   1.844   3.817  1.2649 -4.8477  3.2236
 6630TIP3    H219897   5.751   1.838   3.799  1.5435  1.1018  1.2918
 6631TIP3   OH219898   4.720   4.350   2.722  0.2882  0.2333  0.4006
 6631TIP3    H119899   4.658   4.345   2.649  0.2549 -0.4812  0.4725
 6631TIP3    H219900   4.728   4.444   2.739 -0.7735  0.3471  0.3891
 6632TIP3   OH219901   2.998   2.914   0.946  0.5049  0.1791  0.9445
 6632TIP3    H119902   3.016   2.885   1.035 -0.7915 -2.0761  0.5588
 6632TIP3    H219903   2.947   2.994   0.956 -0.4998 -0.5842  2.2885
 6633TIP3   OH219904   0.481   5.098   0.643  0.0647  0.0535 -0.3085
 6633TIP3    H119905   0.492   5.009   0.610 -0.5113  0.4346 -1.5477
 6633TIP3    H219906   0.533   5.100   0.724  3.4342 -0.2527 -2.2864
 6634TIP3   OH219907   3.297   0.130   1.086  0.5304  0.6437 -0.5747
 6634TIP3    H119908   3.363   0.174   1.140 -0.0712  1.4418 -0.4755
 6634TIP3    H219909   3.227   0.194   1.076 -0.7384 -0.5668  0.2259
 6635TIP3   OH219910   2.152   2.425   0.967 -0.3826 -0.1275 -0.3646
 6635TIP3    H119911   2.128   2.340   1.005 -1.3637  0.4839  0.4142
 6635TIP3    H219912   2.155   2.409   0.873  0.9761 -1.4002 -0.1527
 6636TIP3   OH219913   5.239   3.497   5.037 -0.2706  0.3340 -0.0596
 6636TIP3    H119914   5.317   3.494   4.981 -0.1383 -0.1915  0.1510
 6636TIP3    H219915   5.177   3.439   4.993  0.3999 -1.3786  1.1841
 6637TIP3   OH219916   2.243   5.054   2.042  0.3039  0.6819  0.2492
 6637TIP3    H119917   2.291   5.032   2.122  1.0762  1.4168  0.0005
 6637TIP3    H219918   2.278   5.139   2.015 -1.0531  1.1886 -0.0171
 6638TIP3   OH219919   2.647   5.249   1.058 -0.1589  0.5407 -0.4774
 6638TIP3    H119920   2.552   5.244   1.044 -0.0349 -0.2193 -1.1445
 6638TIP3    H219921   2.660   5.212   1.146 -0.5518  1.4082 -0.0465
 6639TIP3   OH219922   1.031   2.462   4.400 -0.1689 -0.0406 -0.0583
 6639TIP3    H119923   0.979   2.500   4.328  0.5689  0.3261 -0.4099
 6639TIP3    H219924   1.045   2.535   4.460  0.7049  0.0948 -0.4153
 6640TIP3   OH219925   3.723   1.963   1.515 -0.5070 -0.0956 -0.7883
 6640TIP3    H119926   3.763   2.033   1.463  0.1028 -0.9226 -1.4592
 6640TIP3    H219927   3.638   1.999   1.541 -0.5640  0.5779 -1.8234
   6.34801   5.98495   5.18312   0.00000   0.00000  -2.11600   0.00000  -2.11600  -2.99248
