Title
51181
    1GLY      N    1   6.692   4.632   3.777
    1GLY    HT1    2   6.781   4.684   3.786
    1GLY    HT2    3   6.631   4.677   3.706
    1GLY    HT3    4   6.713   4.535   3.747
    1GLY     CA    5   6.618   4.624   3.908
    1GLY    HA1    6   6.593   4.725   3.938
    1GLY    HA2    7   6.682   4.571   3.976
    1GLY      C    8   6.488   4.549   3.893
    1GLY      O    9   6.443   4.534   3.779
    2PRO      N   10   6.425   4.498   3.998
    2PRO     CD   11   6.481   4.491   4.133
    2PRO    HD1   12   6.471   4.591   4.182
    2PRO    HD2   13   6.587   4.457   4.135
    2PRO     CA   14   6.285   4.456   3.996
    2PRO     HA   15   6.279   4.372   3.928
    2PRO     CB   16   6.254   4.419   4.142
    2PRO    HB1   17   6.185   4.332   4.147
    2PRO    HB2   18   6.207   4.504   4.196
    2PRO     CG   19   6.391   4.390   4.203
    2PRO    HG1   20   6.391   4.401   4.314
    2PRO    HG2   21   6.422   4.287   4.176
    2PRO      C   22   6.187   4.561   3.943
    2PRO      O   23   6.214   4.680   3.956
    3GLY      N   24   6.074   4.517   3.885
    3GLY     HN   25   6.059   4.418   3.875
    3GLY     CA   26   5.961   4.603   3.852
    3GLY    HA1   27   5.885   4.541   3.808
    3GLY    HA2   28   5.997   4.680   3.785
    3GLY      C   29   5.898   4.672   3.971
    3GLY      O   30   5.923   4.640   4.087
    4ASP      N   31   5.807   4.769   3.946
    4ASP     HN   32   5.787   4.798   3.852
    4ASP     CA   33   5.719   4.821   4.049
    4ASP     HA   34   5.783   4.851   4.131
    4ASP     CB   35   5.637   4.944   4.000
    4ASP    HB1   36   5.546   4.958   4.063
    4ASP    HB2   37   5.603   4.926   3.896
    4ASP     CG   38   5.712   5.076   4.006
    4ASP    OD1   39   5.817   5.087   4.073
    4ASP    OD2   40   5.655   5.175   3.952
    4ASP      C   41   5.624   4.711   4.101
    4ASP      O   42   5.582   4.626   4.022
    5PRO      N   43   5.586   4.704   4.229
    5PRO     CD   44   5.636   4.792   4.335
    5PRO    HD1   45   5.589   4.892   4.323
    5PRO    HD2   46   5.747   4.799   4.333
    5PRO     CA   47   5.478   4.619   4.277
    5PRO     HA   48   5.512   4.517   4.267
    5PRO     CB   49   5.457   4.661   4.424
    5PRO    HB1   50   5.431   4.574   4.489
    5PRO    HB2   51   5.376   4.737   4.433
    5PRO     CG   52   5.590   4.725   4.465
    5PRO    HG1   53   5.578   4.797   4.549
    5PRO    HG2   54   5.662   4.646   4.494
    5PRO      C   55   5.349   4.630   4.197
    5PRO      O   56   5.311   4.742   4.161
    6GLY      N   57   5.281   4.517   4.171
    6GLY     HN   58   5.318   4.429   4.198
    6GLY     CA   59   5.148   4.516   4.110
    6GLY    HA1   60   5.113   4.414   4.111
    6GLY    HA2   61   5.159   4.555   4.009
    6GLY      C   62   5.045   4.599   4.181
    6GLY      O   63   5.053   4.624   4.302
    7SER      N   64   4.941   4.641   4.107
    7SER     HN   65   4.938   4.623   4.009
    7SER     CA   66   4.825   4.711   4.158
    7SER     HA   67   4.859   4.806   4.195
    7SER     CB   68   4.720   4.736   4.047
    7SER    HB1   69   4.629   4.785   4.087
    7SER    HB2   70   4.689   4.639   4.002
    7SER     OG   71   4.777   4.819   3.946
    7SER    HG1   72   4.781   4.907   3.985
    7SER      C   73   4.756   4.642   4.274
    7SER      O   74   4.764   4.520   4.292
    8ASP      N   75   4.687   4.721   4.359
    8ASP     HN   76   4.685   4.820   4.349
    8ASP     CA   77   4.602   4.670   4.465
    8ASP     HA   78   4.663   4.607   4.529
    8ASP     CB   79   4.544   4.789   4.548
    8ASP    HB1   80   4.493   4.750   4.639
    8ASP    HB2   81   4.468   4.842   4.487
    8ASP     CG   82   4.647   4.891   4.593
    8ASP    OD1   83   4.766   4.857   4.614
    8ASP    OD2   84   4.607   5.009   4.611
    8ASP      C   85   4.490   4.584   4.405
    8ASP      O   86   4.438   4.615   4.298
    9GLY      N   87   4.455   4.470   4.469
    9GLY     HN   88   4.497   4.446   4.556
    9GLY     CA   89   4.351   4.379   4.419
    9GLY    HA1   90   4.346   4.296   4.488
    9GLY    HA2   91   4.381   4.349   4.320
    9GLY      C   92   4.213   4.439   4.410
    9GLY      O   93   4.188   4.545   4.466
   10PRO      N   94   4.117   4.376   4.342
   10PRO     CD   95   4.130   4.240   4.287
   10PRO    HD1   96   4.186   4.173   4.356
   10PRO    HD2   97   4.182   4.246   4.189
   10PRO     CA   98   3.977   4.416   4.350
   10PRO     HA   99   3.970   4.518   4.315
   10PRO     CB  100   3.904   4.317   4.258
   10PRO    HB1  101   3.910   4.355   4.154
   10PRO    HB2  102   3.797   4.303   4.285
   10PRO     CG  103   3.987   4.189   4.270
   10PRO    HG1  104   3.956   4.134   4.362
   10PRO    HG2  105   3.975   4.121   4.182
   10PRO      C  106   3.923   4.417   4.493
   10PRO      O  107   3.965   4.336   4.577
   11GLY      N  108   3.832   4.512   4.523
   11GLY     HN  109   3.805   4.578   4.453
   11GLY     CA  110   3.759   4.517   4.649
   11GLY    HA1  111   3.694   4.602   4.645
   11GLY    HA2  112   3.832   4.523   4.729
   11GLY      C  113   3.672   4.396   4.675
   11GLY      O  114   3.629   4.325   4.584
   12ASP      N  115   3.642   4.372   4.804
   12ASP     HN  116   3.685   4.424   4.877
   12ASP     CA  117   3.555   4.266   4.850
   12ASP     HA  118   3.600   4.174   4.816
   12ASP     CB  119   3.549   4.265   5.006
   12ASP    HB1  120   3.501   4.172   5.042
   12ASP    HB2  121   3.490   4.352   5.041
   12ASP     CG  122   3.686   4.275   5.071
   12ASP    OD1  123   3.786   4.218   5.019
   12ASP    OD2  124   3.691   4.337   5.180
   12ASP      C  125   3.412   4.279   4.794
   12ASP      O  126   3.366   4.393   4.777
   13PRO      N  127   3.338   4.173   4.761
   13PRO     CD  128   3.385   4.034   4.768
   13PRO    HD1  129   3.392   4.004   4.874
   13PRO    HD2  130   3.484   4.023   4.718
   13PRO     CA  131   3.197   4.180   4.723
   13PRO     HA  132   3.193   4.231   4.628
   13PRO     CB  133   3.150   4.033   4.714
   13PRO    HB1  134   3.078   4.018   4.631
   13PRO    HB2  135   3.103   4.000   4.809
   13PRO     CG  136   3.279   3.952   4.694
   13PRO    HG1  137   3.270   3.848   4.733
   13PRO    HG2  138   3.303   3.948   4.586
   13PRO      C  139   3.107   4.258   4.817
   13PRO      O  140   3.124   4.248   4.939
   14GLY      N  141   3.008   4.334   4.764
   14GLY     HN  142   3.001   4.342   4.664
   14GLY     CA  143   2.902   4.394   4.843
   14GLY    HA1  144   2.832   4.439   4.774
   14GLY    HA2  145   2.948   4.466   4.909
   14GLY      C  146   2.823   4.298   4.929
   14GLY      O  147   2.800   4.180   4.895
   15SER      N  148   2.778   4.343   5.046
   15SER     HN  149   2.799   4.436   5.078
   15SER     CA  150   2.692   4.266   5.134
   15SER     HA  151   2.743   4.172   5.150
   15SER     CB  152   2.676   4.327   5.276
   15SER    HB1  153   2.604   4.267   5.335
   15SER    HB2  154   2.636   4.430   5.268
   15SER     OG  155   2.803   4.327   5.342
   15SER    HG1  156   2.786   4.330   5.436
   15SER      C  157   2.557   4.232   5.073
   15SER      O  158   2.498   4.312   5.001
   16ASP      N  159   2.509   4.108   5.098
   16ASP     HN  160   2.562   4.043   5.151
   16ASP     CA  161   2.380   4.060   5.052
   16ASP     HA  162   2.361   4.100   4.953
   16ASP     CB  163   2.379   3.903   5.046
   16ASP    HB1  164   2.281   3.870   5.007
   16ASP    HB2  165   2.392   3.863   5.148
   16ASP     CG  166   2.486   3.839   4.958
   16ASP    OD1  167   2.569   3.910   4.896
   16ASP    OD2  168   2.490   3.713   4.955
   16ASP      C  169   2.265   4.109   5.146
   16ASP    OT1  170   2.295   4.167   5.254
   16ASP    OT2  171   2.145   4.086   5.113
   17LIT    LIT  172   2.222   3.122   1.482
   18LIT    LIT  173   0.986   6.093   6.276
   19LIT    LIT  174   2.716   4.007   4.927
   20LIT    LIT  175   0.900   1.558   1.606
   21LIT    LIT  176   8.763   5.032   3.299
   22LIT    LIT  177   6.533   4.278   0.458
   23LIT    LIT  178   2.723   2.794   1.194
   24LIT    LIT  179   3.496   7.451   6.896
   25LIT    LIT  180   5.498   5.557   4.672
   26LIT    LIT  181   4.854   6.940   6.666
   27LIT    LIT  182   7.218   7.207   2.514
   28LIT    LIT  183   6.974   4.997   6.316
   29LIT    LIT  184   5.439   5.435   2.954
   30LIT    LIT  185   7.301   2.315   1.966
   31LIT    LIT  186   5.149   4.930   0.585
   32LIT    LIT  187   5.865   3.642   5.792
   33LIT    LIT  188   2.306   6.846   2.383
   34LIT    LIT  189   0.124   5.036   1.875
   35LIT    LIT  190   2.127   0.565   0.652
   36LIT    LIT  191   0.865   6.366   3.200
   37LIT    LIT  192   1.002   2.754   2.709
   38LIT    LIT  193   4.771   2.811   3.614
   39LIT    LIT  194   1.315   3.364   0.758
   40LIT    LIT  195   6.998   6.436   4.472
   41LIT    LIT  196   0.902   1.208   5.774
   42LIT    LIT  197   2.996   2.425   4.610
   43LIT    LIT  198   6.405   6.319   7.065
   44LIT    LIT  199   1.266   6.926   4.554
   45LIT    LIT  200   5.727   7.997   4.000
   46LIT    LIT  201   6.520   2.555   0.974
   47LIT    LIT  202   4.736   6.249   1.666
   48LIT    LIT  203   5.405   2.744   6.227
   49LIT    LIT  204   7.322   4.869   5.369
   50LIT    LIT  205   5.447   0.375   0.175
   51LIT    LIT  206   5.889   2.008   5.830
   52LIT    LIT  207   7.806   6.829   6.265
   53LIT    LIT  208   1.500   0.943   1.693
   54LIT    LIT  209   6.039   5.377   1.769
   55LIT    LIT  210   8.194   0.056   1.350
   56LIT    LIT  211   1.680   0.658   5.702
   57LIT    LIT  212   4.148   1.742   4.542
   58LIT    LIT  213   3.169   7.618   1.238
   59LIT    LIT  214   0.136   0.415   5.886
   60LIT    LIT  215   4.313   7.847   0.807
   61LIT    LIT  216   2.412   7.570   6.929
   62LIT    LIT  217   3.294   0.927   2.169
   63LIT    LIT  218   1.955   6.839   0.590
   64LIT    LIT  219   2.213   1.101   2.659
   65LIT    LIT  220   8.358   0.617   4.066
   66LIT    LIT  221   5.907   5.180   4.201
   67LIT    LIT  222   6.201   3.814   7.092
   68LIT    LIT  223   3.453   2.810   3.581
   69CLA    CLA  224   1.696   5.943   0.614
   70CLA    CLA  225   4.362   0.997   0.368
   71CLA    CLA  226   8.120   0.245   3.967
   72CLA    CLA  227   7.779   7.000   6.132
   73CLA    CLA  228   7.025   7.325   3.836
   74CLA    CLA  229   6.423   1.012   6.149
   75CLA    CLA  230   8.265   1.640   5.052
   76CLA    CLA  231   6.160   6.867   5.810
   77CLA    CLA  232   5.271   0.409   0.035
   78CLA    CLA  233   1.570   7.169   2.179
   79CLA    CLA  234   5.753   0.742   2.001
   80CLA    CLA  235   3.966   2.986   3.451
   81CLA    CLA  236   7.419   1.926   1.657
   82CLA    CLA  237   2.718   3.210   4.272
   83CLA    CLA  238   6.337   8.371   1.577
   84CLA    CLA  239   4.212   0.445   7.161
   85CLA    CLA  240   6.341   3.856   6.918
   86CLA    CLA  241   5.231   6.829   6.514
   87CLA    CLA  242   5.447   6.417   0.110
   88CLA    CLA  243   7.930   5.941   6.794
   89CLA    CLA  244   2.407   3.017   1.154
   90CLA    CLA  245   2.693   5.666   3.453
   91CLA    CLA  246   0.355   2.043   3.346
   92CLA    CLA  247   8.644   3.960   0.035
   93CLA    CLA  248   2.291   1.628   2.871
   94CLA    CLA  249   6.799   6.556   6.925
   95CLA    CLA  250   6.158   4.226   4.625
   96CLA    CLA  251   2.898   2.270   5.563
   97CLA    CLA  252   0.242   5.660   6.022
   98CLA    CLA  253   0.961   2.101   2.884
   99CLA    CLA  254   2.987   0.016   6.111
  100CLA    CLA  255   2.437   2.181   3.764
  101CLA    CLA  256   0.070   5.159   3.629
  102CLA    CLA  257   4.438   6.539   2.278
  103CLA    CLA  258   2.771   5.739   1.813
  104CLA    CLA  259   1.345   3.868   5.141
  105CLA    CLA  260   0.050   0.613   5.953
  106CLA    CLA  261   3.581   6.937   5.544
  107CLA    CLA  262   5.472   1.860   5.710
  108CLA    CLA  263   3.334   1.606   1.926
  109CLA    CLA  264   1.792   4.288   2.371
  110CLA    CLA  265   5.487   6.071   5.225
  111CLA    CLA  266   3.711   3.425   2.990
  112CLA    CLA  267   6.429   2.758   0.971
  113CLA    CLA  268   3.200   4.731   6.009
  114CLA    CLA  269   1.841   0.443   0.994
  115CLA    CLA  270   7.213   3.614   4.127
  116CLA    CLA  271   3.686   6.784   0.217
  117TIP3   OH2  272   3.246   0.288   2.355
  117TIP3    H1  273   3.236   0.197   2.328
  117TIP3    H2  274   3.158   0.314   2.384
  118TIP3   OH2  275   2.940   0.620   2.438
  118TIP3    H1  276   2.936   0.645   2.346
  118TIP3    H2  277   3.022   0.658   2.470
  119TIP3   OH2  278   3.088   0.086   2.715
  119TIP3    H1  279   3.020   0.098   2.781
  119TIP3    H2  280   3.144   0.163   2.723
  120TIP3   OH2  281   2.989   0.347   2.433
  120TIP3    H1  282   2.924   0.304   2.488
  120TIP3    H2  283   2.967   0.440   2.438
  121TIP3   OH2  284   1.539   8.317   1.251
  121TIP3    H1  285   1.492   8.233   1.256
  121TIP3    H2  286   1.589   8.320   1.333
  122TIP3   OH2  287   4.094   0.317   1.322
  122TIP3    H1  288   4.161   0.295   1.257
  122TIP3    H2  289   4.135   0.382   1.378
  123TIP3   OH2  290   3.721   0.065   1.950
  123TIP3    H1  291   3.695   0.152   1.920
  123TIP3    H2  292   3.649   0.036   2.006
  124TIP3   OH2  293   4.656   0.198   1.440
  124TIP3    H1  294   4.562   0.217   1.446
  124TIP3    H2  295   4.688   0.259   1.374
  125TIP3   OH2  296   4.296   0.372   1.120
  125TIP3    H1  297   4.364   0.311   1.150
  125TIP3    H2  298   4.336   0.417   1.045
  126TIP3   OH2  299   4.804   0.162   1.799
  126TIP3    H1  300   4.831   0.096   1.735
  126TIP3    H2  301   4.733   0.209   1.756
  127TIP3   OH2  302   1.701   8.165   1.925
  127TIP3    H1  303   1.702   8.222   2.002
  127TIP3    H2  304   1.609   8.165   1.898
  128TIP3   OH2  305   4.394   0.237   1.503
  128TIP3    H1  306   4.377   0.317   1.453
  128TIP3    H2  307   4.310   0.217   1.544
  129TIP3   OH2  308   3.922   0.166   2.106
  129TIP3    H1  309   3.862   0.227   2.148
  129TIP3    H2  310   3.867   0.116   2.046
  130TIP3   OH2  311   3.729   0.343   2.191
  130TIP3    H1  312   3.696   0.349   2.101
  130TIP3    H2  313   3.652   0.321   2.243
  131TIP3   OH2  314   5.042   0.571   1.840
  131TIP3    H1  315   5.043   0.476   1.840
  131TIP3    H2  316   4.964   0.594   1.892
  132TIP3   OH2  317   4.132   0.310   2.006
  132TIP3    H1  318   4.114   0.404   2.013
  132TIP3    H2  319   4.051   0.268   2.034
  133TIP3   OH2  320   1.910   7.989   1.963
  133TIP3    H1  321   1.848   8.054   1.931
  133TIP3    H2  322   1.958   7.961   1.885
  134TIP3   OH2  323   0.568   8.399   2.144
  134TIP3    H1  324   0.627   8.413   2.217
  134TIP3    H2  325   0.500   8.340   2.178
  135TIP3   OH2  326   1.690   7.806   1.998
  135TIP3    H1  327   1.782   7.778   1.998
  135TIP3    H2  328   1.678   7.848   1.913
  136TIP3   OH2  329   1.494   8.114   2.215
  136TIP3    H1  330   1.462   8.026   2.197
  136TIP3    H2  331   1.589   8.105   2.222
  137TIP3   OH2  332   1.457   8.098   1.820
  137TIP3    H1  333   1.511   8.020   1.804
  137TIP3    H2  334   1.376   8.064   1.857
  138TIP3   OH2  335   4.749   0.892   1.926
  138TIP3    H1  336   4.741   0.909   1.832
  138TIP3    H2  337   4.830   0.935   1.952
  139TIP3   OH2  338   3.679   0.010   2.375
  139TIP3    H1  339   3.761   0.025   2.421
  139TIP3    H2  340   3.612   0.017   2.443
  140TIP3   OH2  341   1.925   8.344   1.646
  140TIP3    H1  342   1.971   8.384   1.572
  140TIP3    H2  343   1.844   8.311   1.608
  141TIP3   OH2  344   4.223   0.038   2.025
  141TIP3    H1  345   4.285   0.041   2.098
  141TIP3    H2  346   4.187   0.126   2.021
  142TIP3   OH2  347   1.241   8.225   2.263
  142TIP3    H1  348   1.202   8.204   2.178
  142TIP3    H2  349   1.334   8.207   2.253
  143TIP3   OH2  350   4.386   0.334   1.910
  143TIP3    H1  351   4.295   0.317   1.935
  143TIP3    H2  352   4.420   0.390   1.980
  144TIP3   OH2  353   5.047   0.296   1.847
  144TIP3    H1  354   4.956   0.266   1.852
  144TIP3    H2  355   5.081   0.256   1.767
  145TIP3   OH2  356   1.487   8.153   1.555
  145TIP3    H1  357   1.468   8.144   1.648
  145TIP3    H2  358   1.471   8.066   1.519
  146TIP3   OH2  359   3.920   0.364   1.770
  146TIP3    H1  360   3.948   0.447   1.733
  146TIP3    H2  361   3.997   0.307   1.764
  147TIP3   OH2  362   4.346   0.022   1.774
  147TIP3    H1  363   4.284   0.020   1.847
  147TIP3    H2  364   4.432   0.032   1.816
  148TIP3   OH2  365   4.586   0.554   1.784
  148TIP3    H1  366   4.498   0.523   1.804
  148TIP3    H2  367   4.572   0.628   1.724
  149TIP3   OH2  368   1.277   7.917   1.911
  149TIP3    H1  369   1.240   7.951   1.992
  149TIP3    H2  370   1.332   7.843   1.939
  150TIP3   OH2  371   4.642   0.669   1.365
  150TIP3    H1  372   4.611   0.715   1.286
  150TIP3    H2  373   4.736   0.662   1.353
  151TIP3   OH2  374   3.359   0.551   2.356
  151TIP3    H1  375   3.446   0.545   2.395
  151TIP3    H2  376   3.329   0.460   2.349
  152TIP3   OH2  377   3.842   0.511   2.376
  152TIP3    H1  378   3.933   0.482   2.384
  152TIP3    H2  379   3.806   0.456   2.306
  153TIP3   OH2  380   4.469   0.462   2.133
  153TIP3    H1  381   4.479   0.395   2.201
  153TIP3    H2  382   4.542   0.523   2.148
  154TIP3   OH2  383   0.484   8.368   2.539
  154TIP3    H1  384   0.516   8.286   2.503
  154TIP3    H2  385   0.412   8.342   2.596
  155TIP3   OH2  386   4.092   0.092   2.309
  155TIP3    H1  387   4.039   0.106   2.230
  155TIP3    H2  388   4.141   0.012   2.291
  156TIP3   OH2  389   4.554   0.110   1.957
  156TIP3    H1  390   4.628   0.137   1.903
  156TIP3    H2  391   4.494   0.184   1.953
  157TIP3   OH2  392   0.577   8.125   2.460
  157TIP3    H1  393   0.662   8.122   2.416
  157TIP3    H2  394   0.592   8.082   2.544
  158TIP3   OH2  395   1.013   8.013   2.215
  158TIP3    H1  396   1.016   8.067   2.294
  158TIP3    H2  397   1.041   8.071   2.145
  159TIP3   OH2  398   1.477   8.411   2.287
  159TIP3    H1  399   1.546   8.362   2.243
  159TIP3    H2  400   1.465   8.366   2.371
  160TIP3   OH2  401   1.098   7.755   2.225
  160TIP3    H1  402   1.111   7.708   2.142
  160TIP3    H2  403   1.072   7.843   2.197
  161TIP3   OH2  404   1.131   8.170   2.018
  161TIP3    H1  405   1.093   8.138   1.937
  161TIP3    H2  406   1.160   8.259   1.998
  162TIP3   OH2  407   1.738   8.155   2.441
  162TIP3    H1  408   1.744   8.086   2.375
  162TIP3    H2  409   1.801   8.221   2.412
  163TIP3   OH2  410   1.716   8.352   2.138
  163TIP3    H1  411   1.658   8.409   2.089
  163TIP3    H2  412   1.800   8.358   2.093
  164TIP3   OH2  413   0.903   7.973   2.588
  164TIP3    H1  414   0.985   7.939   2.624
  164TIP3    H2  415   0.886   7.918   2.512
  165TIP3   OH2  416   1.255   7.825   2.434
  165TIP3    H1  417   1.331   7.768   2.428
  165TIP3    H2  418   1.202   7.803   2.357
  166TIP3   OH2  419   4.909   0.616   1.327
  166TIP3    H1  420   4.941   0.670   1.399
  166TIP3    H2  421   4.901   0.676   1.254
  167TIP3   OH2  422   4.887   0.671   1.620
  167TIP3    H1  423   4.845   0.588   1.599
  167TIP3    H2  424   4.954   0.648   1.685
  168TIP3   OH2  425   4.927   0.343   2.168
  168TIP3    H1  426   4.851   0.351   2.226
  168TIP3    H2  427   4.971   0.428   2.174
  169TIP3   OH2  428   4.980   0.090   1.422
  169TIP3    H1  429   4.935   0.043   1.353
  169TIP3    H2  430   4.986   0.180   1.390
  170TIP3   OH2  431   4.759   0.432   1.590
  170TIP3    H1  432   4.698   0.449   1.662
  170TIP3    H2  433   4.732   0.347   1.555
  171TIP3   OH2  434   1.939   8.381   1.992
  171TIP3    H1  435   2.014   8.328   1.962
  171TIP3    H2  436   1.915   8.433   1.916
  172TIP3   OH2  437   2.177   8.247   2.016
  172TIP3    H1  438   2.208   8.157   2.009
  172TIP3    H2  439   2.256   8.299   2.027
  173TIP3   OH2  440   7.496   2.205   1.450
  173TIP3    H1  441   7.454   2.265   1.512
  173TIP3    H2  442   7.438   2.128   1.449
  174TIP3   OH2  443   4.419   0.527   0.924
  174TIP3    H1  444   4.490   0.475   0.887
  174TIP3    H2  445   4.462   0.600   0.968
  175TIP3   OH2  446   3.522   0.301   2.371
  175TIP3    H1  447   3.428   0.284   2.359
  175TIP3    H2  448   3.538   0.283   2.463
  176TIP3   OH2  449   3.687   0.341   1.915
  176TIP3    H1  450   3.626   0.363   1.844
  176TIP3    H2  451   3.774   0.352   1.877
  177TIP3   OH2  452   4.106   0.587   2.056
  177TIP3    H1  453   4.148   0.578   2.141
  177TIP3    H2  454   4.160   0.651   2.010
  178TIP3   OH2  455   4.287   0.770   1.954
  178TIP3    H1  456   4.324   0.711   1.888
  178TIP3    H2  457   4.364   0.814   1.992
  179TIP3   OH2  458   3.357   0.580   1.946
  179TIP3    H1  459   3.274   0.625   1.931
  179TIP3    H2  460   3.377   0.596   2.038
  180TIP3   OH2  461   3.595   0.666   1.814
  180TIP3    H1  462   3.515   0.633   1.855
  180TIP3    H2  463   3.565   0.721   1.742
  181TIP3   OH2  464   4.025   0.589   1.643
  181TIP3    H1  465   4.021   0.599   1.548
  181TIP3    H2  466   3.973   0.661   1.678
  182TIP3   OH2  467   4.306   0.602   1.736
  182TIP3    H1  468   4.217   0.596   1.702
  182TIP3    H2  469   4.356   0.642   1.665
  183TIP3   OH2  470   4.520   0.738   1.594
  183TIP3    H1  471   4.451   0.785   1.547
  183TIP3    H2  472   4.576   0.703   1.525
  184TIP3   OH2  473   4.796   0.622   1.947
  184TIP3    H1  474   4.726   0.584   1.893
  184TIP3    H2  475   4.778   0.716   1.946
  185TIP3   OH2  476   5.558   0.364   1.444
  185TIP3    H1  477   5.550   0.450   1.404
  185TIP3    H2  478   5.476   0.353   1.493
  186TIP3   OH2  479   5.757   0.445   1.621
  186TIP3    H1  480   5.698   0.512   1.656
  186TIP3    H2  481   5.705   0.399   1.555
  187TIP3   OH2  482   5.499   0.024   1.764
  187TIP3    H1  483   5.500   0.119   1.766
  187TIP3    H2  484   5.425   0.002   1.707
  188TIP3   OH2  485   5.542   0.606   1.656
  188TIP3    H1  486   5.516   0.626   1.566
  188TIP3    H2  487   5.460   0.608   1.705
  189TIP3   OH2  488   5.146   0.162   1.630
  189TIP3    H1  489   5.093   0.139   1.554
  189TIP3    H2  490   5.176   0.078   1.665
  190TIP3   OH2  491   5.058   0.353   1.349
  190TIP3    H1  492   5.148   0.367   1.380
  190TIP3    H2  493   5.015   0.437   1.364
  191TIP3   OH2  494   5.892   0.602   1.429
  191TIP3    H1  495   5.897   0.689   1.468
  191TIP3    H2  496   5.859   0.546   1.500
  192TIP3   OH2  497   5.325   0.368   1.595
  192TIP3    H1  498   5.374   0.373   1.677
  192TIP3    H2  499   5.263   0.297   1.609
  193TIP3   OH2  500   6.541   1.114   1.408
  193TIP3    H1  501   6.516   1.135   1.318
  193TIP3    H2  502   6.610   1.178   1.429
  194TIP3   OH2  503   5.468   0.287   1.839
  194TIP3    H1  504   5.550   0.308   1.883
  194TIP3    H2  505   5.401   0.293   1.908
  195TIP3   OH2  506   2.260   8.315   1.734
  195TIP3    H1  507   2.275   8.306   1.828
  195TIP3    H2  508   2.215   8.234   1.710
  196TIP3   OH2  509   5.735   0.654   1.210
  196TIP3    H1  510   5.779   0.721   1.157
  196TIP3    H2  511   5.801   0.628   1.275
  197TIP3   OH2  512   5.206   0.578   1.442
  197TIP3    H1  513   5.258   0.526   1.503
  197TIP3    H2  514   5.217   0.668   1.473
  198TIP3   OH2  515   5.197   0.861   1.836
  198TIP3    H1  516   5.285   0.857   1.872
  198TIP3    H2  517   5.174   0.770   1.819
  199TIP3   OH2  518   6.254   0.740   1.585
  199TIP3    H1  519   6.216   0.676   1.644
  199TIP3    H2  520   6.327   0.778   1.634
  200TIP3   OH2  521   5.256   0.276   2.024
  200TIP3    H1  522   5.233   0.198   2.075
  200TIP3    H2  523   5.181   0.290   1.967
  201TIP3   OH2  524   5.898   0.286   1.792
  201TIP3    H1  525   5.853   0.357   1.745
  201TIP3    H2  526   5.923   0.224   1.723
  202TIP3   OH2  527   5.381  -0.018   2.007
  202TIP3    H1  528   5.434  -0.002   1.929
  202TIP3    H2  529   5.414   0.043   2.072
  203TIP3   OH2  530   4.740   0.597   0.774
  203TIP3    H1  531   4.715   0.541   0.700
  203TIP3    H2  532   4.722   0.544   0.851
  204TIP3   OH2  533   4.980   0.517   1.046
  204TIP3    H1  534   4.989   0.428   1.078
  204TIP3    H2  535   5.046   0.567   1.094
  205TIP3   OH2  536   5.315   0.591   1.817
  205TIP3    H1  537   5.223   0.571   1.832
  205TIP3    H2  538   5.352   0.602   1.904
  206TIP3   OH2  539   5.517   0.632   1.371
  206TIP3    H1  540   5.472   0.712   1.346
  206TIP3    H2  541   5.597   0.631   1.319
  207TIP3   OH2  542   5.902   0.856   1.540
  207TIP3    H1  543   5.933   0.837   1.629
  207TIP3    H2  544   5.973   0.906   1.500
  208TIP3   OH2  545   6.104   0.994   1.412
  208TIP3    H1  546   6.157   0.915   1.403
  208TIP3    H2  547   6.160   1.056   1.459
  209TIP3   OH2  548   5.183   0.866   1.441
  209TIP3    H1  549   5.091   0.879   1.420
  209TIP3    H2  550   5.202   0.934   1.506
  210TIP3   OH2  551   5.401   0.861   1.274
  210TIP3    H1  552   5.322   0.867   1.328
  210TIP3    H2  553   5.377   0.899   1.190
  211TIP3   OH2  554   5.833   0.870   1.063
  211TIP3    H1  555   5.756   0.903   1.016
  211TIP3    H2  556   5.863   0.944   1.115
  212TIP3   OH2  557   5.182   0.648   1.175
  212TIP3    H1  558   5.177   0.626   1.268
  212TIP3    H2  559   5.276   0.647   1.155
  213TIP3   OH2  560   6.622   0.857   1.484
  213TIP3    H1  561   6.572   0.803   1.422
  213TIP3    H2  562   6.598   0.947   1.461
  214TIP3   OH2  563   3.005   1.078   2.029
  214TIP3    H1  564   2.922   1.125   2.015
  214TIP3    H2  565   3.041   1.117   2.108
  215TIP3   OH2  566   2.441   1.705   1.586
  215TIP3    H1  567   2.352   1.721   1.553
  215TIP3    H2  568   2.495   1.768   1.539
  216TIP3   OH2  569   2.649   1.794   1.983
  216TIP3    H1  570   2.663   1.706   1.946
  216TIP3    H2  571   2.572   1.827   1.937
  217TIP3   OH2  572   2.805   1.340   1.804
  217TIP3    H1  573   2.759   1.422   1.825
  217TIP3    H2  574   2.883   1.368   1.757
  218TIP3   OH2  575   2.477   1.247   2.059
  218TIP3    H1  576   2.505   1.322   2.110
  218TIP3    H2  577   2.408   1.280   2.002
  219TIP3   OH2  578   2.163   1.777   1.646
  219TIP3    H1  579   2.203   1.851   1.599
  219TIP3    H2  580   2.114   1.818   1.717
  220TIP3   OH2  581   1.755   1.754   2.253
  220TIP3    H1  582   1.689   1.803   2.302
  220TIP3    H2  583   1.709   1.720   2.176
  221TIP3   OH2  584   1.541   1.895   2.358
  221TIP3    H1  585   1.494   1.953   2.299
  221TIP3    H2  586   1.477   1.869   2.424
  222TIP3   OH2  587   2.877   2.110   1.983
  222TIP3    H1  588   2.888   2.017   2.002
  222TIP3    H2  589   2.800   2.135   2.034
  223TIP3   OH2  590   1.981   1.878   2.148
  223TIP3    H1  591   1.968   1.972   2.158
  223TIP3    H2  592   1.901   1.839   2.183
  224TIP3   OH2  593   2.794   1.206   2.285
  224TIP3    H1  594   2.716   1.185   2.234
  224TIP3    H2  595   2.819   1.123   2.326
  225TIP3   OH2  596   2.552   1.039   2.223
  225TIP3    H1  597   2.486   1.011   2.286
  225TIP3    H2  598   2.506   1.101   2.166
  226TIP3   OH2  599   2.585   2.450   2.082
  226TIP3    H1  600   2.583   2.468   1.988
  226TIP3    H2  601   2.665   2.493   2.113
  227TIP3   OH2  602   2.665   1.572   1.827
  227TIP3    H1  603   2.685   1.626   1.750
  227TIP3    H2  604   2.579   1.534   1.808
  228TIP3   OH2  605   2.125   1.650   2.207
  228TIP3    H1  606   2.185   1.685   2.273
  228TIP3    H2  607   2.071   1.725   2.184
  229TIP3   OH2  608   2.161   1.254   2.554
  229TIP3    H1  609   2.072   1.284   2.534
  229TIP3    H2  610   2.216   1.332   2.539
  230TIP3   OH2  611   2.240   1.907   2.038
  230TIP3    H1  612   2.149   1.882   2.050
  230TIP3    H2  613   2.265   1.949   2.120
  231TIP3   OH2  614   2.914   1.830   2.019
  231TIP3    H1  615   2.818   1.830   2.023
  231TIP3    H2  616   2.934   1.799   1.930
  232TIP3   OH2  617   1.747   1.871   1.891
  232TIP3    H1  618   1.743   1.967   1.881
  232TIP3    H2  619   1.840   1.852   1.901
  233TIP3   OH2  620   2.212   1.561   1.956
  233TIP3    H1  621   2.178   1.583   2.043
  233TIP3    H2  622   2.307   1.570   1.965
  234TIP3   OH2  623   2.426   2.116   1.922
  234TIP3    H1  624   2.354   2.055   1.943
  234TIP3    H2  625   2.385   2.184   1.869
  235TIP3   OH2  626   2.771   0.903   2.133
  235TIP3    H1  627   2.691   0.935   2.174
  235TIP3    H2  628   2.793   0.968   2.067
  236TIP3   OH2  629   2.397   2.218   1.486
  236TIP3    H1  630   2.367   2.237   1.397
  236TIP3    H2  631   2.492   2.230   1.481
  237TIP3   OH2  632   1.210   2.154   2.453
  237TIP3    H1  633   1.291   2.167   2.503
  237TIP3    H2  634   1.166   2.082   2.498
  238TIP3   OH2  635   1.684   2.061   2.534
  238TIP3    H1  636   1.775   2.032   2.540
  238TIP3    H2  637   1.643   2.000   2.472
  239TIP3   OH2  638   2.303   1.996   2.286
  239TIP3    H1  639   2.305   1.917   2.341
  239TIP3    H2  640   2.379   2.046   2.313
  240TIP3   OH2  641   1.932   1.649   2.441
  240TIP3    H1  642   1.866   1.681   2.380
  240TIP3    H2  643   1.998   1.609   2.385
  241TIP3   OH2  644   2.431   1.687   2.121
  241TIP3    H1  645   2.512   1.735   2.102
  241TIP3    H2  646   2.362   1.752   2.108
  242TIP3   OH2  647   2.295   1.502   2.534
  242TIP3    H1  648   2.383   1.522   2.501
  242TIP3    H2  649   2.297   1.532   2.625
  243TIP3   OH2  650   2.458   1.216   2.614
  243TIP3    H1  651   2.495   1.204   2.527
  243TIP3    H2  652   2.484   1.304   2.639
  244TIP3   OH2  653   2.569   1.465   2.195
  244TIP3    H1  654   2.511   1.539   2.176
  244TIP3    H2  655   2.657   1.497   2.171
  245TIP3   OH2  656   2.409   0.934   2.436
  245TIP3    H1  657   2.385   0.841   2.430
  245TIP3    H2  658   2.496   0.933   2.476
  246TIP3   OH2  659   2.656   0.921   2.560
  246TIP3    H1  660   2.673   0.828   2.574
  246TIP3    H2  661   2.653   0.959   2.648
  247TIP3   OH2  662   2.667   2.250   1.485
  247TIP3    H1  663   2.686   2.266   1.578
  247TIP3    H2  664   2.751   2.227   1.447
  248TIP3   OH2  665   2.727   2.231   1.772
  248TIP3    H1  666   2.688   2.148   1.744
  248TIP3    H2  667   2.795   2.205   1.835
  249TIP3   OH2  668   2.744   1.893   2.346
  249TIP3    H1  669   2.675   1.903   2.412
  249TIP3    H2  670   2.793   1.975   2.349
  250TIP3   OH2  671   2.757   1.712   1.609
  250TIP3    H1  672   2.749   1.647   1.538
  250TIP3    H2  673   2.791   1.790   1.565
  251TIP3   OH2  674   2.583   2.005   1.720
  251TIP3    H1  675   2.532   2.050   1.787
  251TIP3    H2  676   2.561   1.913   1.730
  252TIP3   OH2  677   2.816   1.574   2.133
  252TIP3    H1  678   2.880   1.504   2.119
  252TIP3    H2  679   2.857   1.651   2.094
  253TIP3   OH2  680   2.977   1.355   2.137
  253TIP3    H1  681   2.904   1.310   2.179
  253TIP3    H2  682   3.055   1.319   2.179
  254TIP3   OH2  683   2.741   1.164   2.000
  254TIP3    H1  684   2.647   1.176   2.013
  254TIP3    H2  685   2.765   1.229   1.934
  255TIP3   OH2  686   3.196   0.737   2.464
  255TIP3    H1  687   3.255   0.669   2.433
  255TIP3    H2  688   3.177   0.790   2.386
  256TIP3   OH2  689   3.115   0.879   2.244
  256TIP3    H1  690   3.056   0.945   2.278
  256TIP3    H2  691   3.058   0.815   2.201
  257TIP3   OH2  692   1.342   1.856   2.543
  257TIP3    H1  693   1.247   1.860   2.559
  257TIP3    H2  694   1.380   1.845   2.630
  258TIP3   OH2  695   1.954   2.152   2.193
  258TIP3    H1  696   1.994   2.144   2.280
  258TIP3    H2  697   2.010   2.214   2.146
  259TIP3   OH2  698   2.129   2.321   2.064
  259TIP3    H1  699   2.175   2.261   2.005
  259TIP3    H2  700   2.199   2.362   2.115
  260TIP3   OH2  701   2.924   0.683   2.161
  260TIP3    H1  702   2.863   0.756   2.150
  260TIP3    H2  703   2.874   0.606   2.133
  261TIP3   OH2  704   1.810   2.127   1.803
  261TIP3    H1  705   1.771   2.148   1.718
  261TIP3    H2  706   1.866   2.202   1.822
  262TIP3   OH2  707   2.146   2.166   1.822
  262TIP3    H1  708   2.095   2.136   1.747
  262TIP3    H2  709   2.205   2.231   1.785
  263TIP3   OH2  710   2.355   2.319   1.737
  263TIP3    H1  711   2.329   2.408   1.712
  263TIP3    H2  712   2.375   2.277   1.653
  264TIP3   OH2  713   2.713   0.662   2.595
  264TIP3    H1  714   2.724   0.618   2.679
  264TIP3    H2  715   2.789   0.634   2.543
  265TIP3   OH2  716   2.635   2.177   2.094
  265TIP3    H1  717   2.563   2.144   2.040
  265TIP3    H2  718   2.617   2.270   2.103
  266TIP3   OH2  719   3.793   1.583   0.871
  266TIP3    H1  720   3.802   1.676   0.851
  266TIP3    H2  721   3.782   1.541   0.785
  267TIP3   OH2  722   3.949   1.535   1.257
  267TIP3    H1  723   3.967   1.532   1.351
  267TIP3    H2  724   3.970   1.447   1.226
  268TIP3   OH2  725   3.236   1.520   1.640
  268TIP3    H1  726   3.260   1.437   1.683
  268TIP3    H2  727   3.262   1.587   1.703
  269TIP3   OH2  728   4.206   1.848   0.965
  269TIP3    H1  729   4.188   1.784   1.034
  269TIP3    H2  730   4.219   1.930   1.011
  270TIP3   OH2  731   3.264   1.902   1.363
  270TIP3    H1  732   3.293   1.886   1.453
  270TIP3    H2  733   3.345   1.913   1.314
  271TIP3   OH2  734   3.860   2.328   0.976
  271TIP3    H1  735   3.909   2.265   0.924
  271TIP3    H2  736   3.834   2.280   1.054
  272TIP3   OH2  737   3.718   1.832   1.295
  272TIP3    H1  738   3.719   1.761   1.231
  272TIP3    H2  739   3.811   1.850   1.313
  273TIP3   OH2  740   4.756   1.100   1.277
  273TIP3    H1  741   4.764   1.181   1.326
  273TIP3    H2  742   4.809   1.113   1.198
  274TIP3   OH2  743   4.162   1.326   1.361
  274TIP3    H1  744   4.232   1.269   1.391
  274TIP3    H2  745   4.192   1.358   1.276
  275TIP3   OH2  746   4.029   1.019   0.790
  275TIP3    H1  747   4.098   0.979   0.843
  275TIP3    H2  748   4.064   1.018   0.701
  276TIP3   OH2  749   3.537   1.424   1.189
  276TIP3    H1  750   3.588   1.503   1.169
  276TIP3    H2  751   3.602   1.355   1.197
  277TIP3   OH2  752   4.792   1.319   1.443
  277TIP3    H1  753   4.703   1.355   1.443
  277TIP3    H2  754   4.833   1.354   1.522
  278TIP3   OH2  755   3.325   0.816   1.762
  278TIP3    H1  756   3.304   0.889   1.704
  278TIP3    H2  757   3.417   0.829   1.784
  279TIP3   OH2  758   3.825   1.848   0.844
  279TIP3    H1  759   3.904   1.886   0.806
  279TIP3    H2  760   3.782   1.920   0.890
  280TIP3   OH2  761   3.556   1.724   1.484
  280TIP3    H1  762   3.503   1.787   1.533
  280TIP3    H2  763   3.618   1.777   1.434
  281TIP3   OH2  764   4.470   0.986   1.153
  281TIP3    H1  765   4.395   1.007   1.209
  281TIP3    H2  766   4.519   1.068   1.147
  282TIP3   OH2  767   3.330   0.953   1.374
  282TIP3    H1  768   3.362   1.041   1.393
  282TIP3    H2  769   3.282   0.963   1.291
  283TIP3   OH2  770   3.390   1.912   1.607
  283TIP3    H1  771   3.378   2.006   1.596
  283TIP3    H2  772   3.329   1.887   1.677
  284TIP3   OH2  773   4.196   2.107   1.071
  284TIP3    H1  774   4.104   2.098   1.098
  284TIP3    H2  775   4.197   2.188   1.019
  285TIP3   OH2  776   4.557   1.037   1.466
  285TIP3    H1  777   4.467   1.049   1.436
  285TIP3    H2  778   4.611   1.048   1.387
  286TIP3   OH2  779   3.741   0.499   1.387
  286TIP3    H1  780   3.755   0.408   1.415
  286TIP3    H2  781   3.647   0.512   1.394
  287TIP3   OH2  782   3.956   2.165   0.773
  287TIP3    H1  783   3.995   2.078   0.776
  287TIP3    H2  784   4.018   2.218   0.723
  288TIP3   OH2  785   4.084   1.928   0.741
  288TIP3    H1  786   4.152   1.943   0.675
  288TIP3    H2  787   4.130   1.890   0.815
  289TIP3   OH2  788   4.433   2.014   1.413
  289TIP3    H1  789   4.429   1.938   1.356
  289TIP3    H2  790   4.418   2.089   1.355
  290TIP3   OH2  791   3.746   1.426   0.653
  290TIP3    H1  792   3.658   1.426   0.616
  290TIP3    H2  793   3.782   1.341   0.630
  291TIP3   OH2  794   4.627   1.643   1.259
  291TIP3    H1  795   4.549   1.698   1.264
  291TIP3    H2  796   4.662   1.658   1.171
  292TIP3   OH2  797   4.061   1.482   0.655
  292TIP3    H1  798   4.034   1.528   0.735
  292TIP3    H2  799   4.151   1.454   0.674
  293TIP3   OH2  800   4.310   1.537   1.588
  293TIP3    H1  801   4.319   1.620   1.637
  293TIP3    H2  802   4.224   1.543   1.547
  294TIP3   OH2  803   3.357   1.473   0.984
  294TIP3    H1  804   3.262   1.461   0.989
  294TIP3    H2  805   3.388   1.455   1.073
  295TIP3   OH2  806   3.492   1.960   1.220
  295TIP3    H1  807   3.478   1.912   1.138
  295TIP3    H2  808   3.580   1.934   1.248
  296TIP3   OH2  809   3.472   1.459   1.454
  296TIP3    H1  810   3.489   1.452   1.360
  296TIP3    H2  811   3.504   1.546   1.478
  297TIP3   OH2  812   3.947   2.085   1.184
  297TIP3    H1  813   3.948   2.166   1.236
  297TIP3    H2  814   3.954   2.015   1.249
  298TIP3   OH2  815   3.602   2.003   1.757
  298TIP3    H1  816   3.546   2.060   1.810
  298TIP3    H2  817   3.541   1.950   1.706
  299TIP3   OH2  818   4.055   1.271   0.470
  299TIP3    H1  819   4.057   1.348   0.526
  299TIP3    H2  820   4.065   1.305   0.381
  300TIP3   OH2  821   3.677   2.184   0.774
  300TIP3    H1  822   3.770   2.177   0.795
  300TIP3    H2  823   3.659   2.109   0.717
  301TIP3   OH2  824   3.389   2.156   1.843
  301TIP3    H1  825   3.370   2.180   1.753
  301TIP3    H2  826   3.303   2.144   1.884
  302TIP3   OH2  827   7.246   6.201   7.217
  302TIP3    H1  828   7.236   6.296   7.219
  302TIP3    H2  829   7.336   6.186   7.190
  303TIP3   OH2  830   2.973   1.715   1.779
  303TIP3    H1  831   2.899   1.705   1.720
  303TIP3    H2  832   2.992   1.627   1.811
  304TIP3   OH2  833   2.894   1.909   1.470
  304TIP3    H1  834   2.951   1.854   1.416
  304TIP3    H2  835   2.953   1.956   1.529
  305TIP3   OH2  836   4.663   2.352   1.467
  305TIP3    H1  837   4.670   2.258   1.482
  305TIP3    H2  838   4.584   2.379   1.514
  306TIP3   OH2  839   3.787   2.139   1.613
  306TIP3    H1  840   3.781   2.231   1.640
  306TIP3    H2  841   3.722   2.094   1.667
  307TIP3   OH2  842   3.561   2.282   0.515
  307TIP3    H1  843   3.481   2.230   0.521
  307TIP3    H2  844   3.542   2.361   0.566
  308TIP3   OH2  845   2.992   2.009   0.932
  308TIP3    H1  846   3.029   2.012   1.020
  308TIP3    H2  847   2.934   1.932   0.934
  309TIP3   OH2  848   3.821   2.183   0.053
  309TIP3    H1  849   3.799   2.094   0.028
  309TIP3    H2  850   3.779   2.195   0.139
  310TIP3   OH2  851   3.820   2.352   0.582
  310TIP3    H1  852   3.729   2.328   0.570
  310TIP3    H2  853   3.856   2.284   0.638
  311TIP3   OH2  854   4.561   1.485   1.750
  311TIP3    H1  855   4.480   1.493   1.699
  311TIP3    H2  856   4.581   1.392   1.748
  312TIP3   OH2  857   3.208   1.853   1.804
  312TIP3    H1  858   3.264   1.798   1.858
  312TIP3    H2  859   3.126   1.806   1.797
  313TIP3   OH2  860   3.515   0.662   1.490
  313TIP3    H1  861   3.501   0.683   1.398
  313TIP3    H2  862   3.600   0.701   1.511
  314TIP3   OH2  863   4.099   0.859   1.777
  314TIP3    H1  864   4.165   0.833   1.840
  314TIP3    H2  865   4.017   0.826   1.813
  315TIP3   OH2  866   4.320   1.281   1.687
  315TIP3    H1  867   4.278   1.276   1.773
  315TIP3    H2  868   4.303   1.371   1.658
  316TIP3   OH2  869   3.525   1.274   1.649
  316TIP3    H1  870   3.470   1.295   1.724
  316TIP3    H2  871   3.515   1.349   1.591
  317TIP3   OH2  872   3.853   1.260   0.874
  317TIP3    H1  873   3.766   1.299   0.886
  317TIP3    H2  874   3.851   1.224   0.786
  318TIP3   OH2  875   4.050   1.470   1.901
  318TIP3    H1  876   4.020   1.406   1.966
  318TIP3    H2  877   4.143   1.480   1.918
  319TIP3   OH2  878   3.941   1.285   1.134
  319TIP3    H1  879   3.913   1.310   1.046
  319TIP3    H2  880   3.953   1.190   1.130
  320TIP3   OH2  881   3.317   1.316   1.818
  320TIP3    H1  882   3.321   1.391   1.877
  320TIP3    H2  883   3.242   1.265   1.849
  321TIP3   OH2  884   4.022   1.490   1.521
  321TIP3    H1  885   4.073   1.428   1.468
  321TIP3    H2  886   3.991   1.438   1.595
  322TIP3   OH2  887   3.613   0.933   1.077
  322TIP3    H1  888   3.650   0.852   1.043
  322TIP3    H2  889   3.630   0.930   1.171
  323TIP3   OH2  890   4.282   1.068   1.391
  323TIP3    H1  891   4.215   1.071   1.460
  323TIP3    H2  892   4.234   1.087   1.310
  324TIP3   OH2  893   4.378   2.700   1.558
  324TIP3    H1  894   4.374   2.713   1.464
  324TIP3    H2  895   4.457   2.745   1.586
  325TIP3   OH2  896   3.727   1.263   1.296
  325TIP3    H1  897   3.806   1.279   1.244
  325TIP3    H2  898   3.760   1.244   1.384
  326TIP3   OH2  899   3.764   1.196   1.552
  326TIP3    H1  900   3.682   1.221   1.594
  326TIP3    H2  901   3.831   1.243   1.602
  327TIP3   OH2  902   3.561   1.655   0.634
  327TIP3    H1  903   3.486   1.707   0.607
  327TIP3    H2  904   3.561   1.660   0.729
  328TIP3   OH2  905   4.410   1.807   1.241
  328TIP3    H1  906   4.441   1.848   1.160
  328TIP3    H2  907   4.328   1.765   1.217
  329TIP3   OH2  908   3.894   1.865   1.628
  329TIP3    H1  909   3.940   1.848   1.710
  329TIP3    H2  910   3.860   1.954   1.637
  330TIP3   OH2  911   4.091   1.001   0.513
  330TIP3    H1  912   4.176   0.979   0.474
  330TIP3    H2  913   4.076   1.092   0.489
  331TIP3   OH2  914   3.202   1.569   1.366
  331TIP3    H1  915   3.216   1.484   1.324
  331TIP3    H2  916   3.218   1.551   1.459
  332TIP3   OH2  917   3.677   1.657   0.348
  332TIP3    H1  918   3.620   1.728   0.376
  332TIP3    H2  919   3.631   1.577   0.375
  333TIP3   OH2  920   3.048   1.487   1.905
  333TIP3    H1  921   3.135   1.522   1.925
  333TIP3    H2  922   3.027   1.433   1.981
  334TIP3   OH2  923   3.825   1.631   1.937
  334TIP3    H1  924   3.754   1.573   1.910
  334TIP3    H2  925   3.905   1.586   1.908
  335TIP3   OH2  926   4.047   2.159   1.518
  335TIP3    H1  927   3.953   2.145   1.528
  335TIP3    H2  928   4.074   2.198   1.601
  336TIP3   OH2  929   4.395   1.289   0.462
  336TIP3    H1  930   4.389   1.202   0.422
  336TIP3    H2  931   4.433   1.344   0.393
  337TIP3   OH2  932   4.684   2.072   1.494
  337TIP3    H1  933   4.589   2.063   1.488
  337TIP3    H2  934   4.716   2.044   1.408
  338TIP3   OH2  935   4.166   1.956   0.461
  338TIP3    H1  936   4.127   1.875   0.428
  338TIP3    H2  937   4.207   1.995   0.384
  339TIP3   OH2  938   4.179   1.673   1.181
  339TIP3    H1  939   4.088   1.652   1.198
  339TIP3    H2  940   4.217   1.591   1.150
  340TIP3   OH2  941   3.289   1.782   0.755
  340TIP3    H1  942   3.268   1.875   0.752
  340TIP3    H2  943   3.216   1.743   0.803
  341TIP3   OH2  944   3.501   1.684   0.898
  341TIP3    H1  945   3.425   1.723   0.855
  341TIP3    H2  946   3.463   1.617   0.956
  342TIP3   OH2  947   3.609   2.233   1.421
  342TIP3    H1  948   3.649   2.301   1.367
  342TIP3    H2  949   3.682   2.194   1.469
  343TIP3   OH2  950   3.179   2.030   0.743
  343TIP3    H1  951   3.106   2.032   0.805
  343TIP3    H2  952   3.239   2.098   0.774
  344TIP3   OH2  953   3.979   1.867   1.365
  344TIP3    H1  954   3.956   1.861   1.457
  344TIP3    H2  955   4.071   1.841   1.361
  345TIP3   OH2  956   3.886   1.701   0.164
  345TIP3    H1  957   3.965   1.718   0.215
  345TIP3    H2  958   3.819   1.683   0.230
  346TIP3   OH2  959   4.193   2.384   1.406
  346TIP3    H1  960   4.122   2.321   1.412
  346TIP3    H2  961   4.170   2.439   1.331
  347TIP3   OH2  962   7.239   6.471   7.256
  347TIP3    H1  963   7.287   6.549   7.285
  347TIP3    H2  964   7.149   6.501   7.243
  348TIP3   OH2  965   3.252   0.964   1.986
  348TIP3    H1  966   3.171   1.010   1.967
  348TIP3    H2  967   3.265   0.906   1.911
  349TIP3   OH2  968   4.054   1.714   0.389
  349TIP3    H1  969   3.985   1.691   0.451
  349TIP3    H2  970   4.097   1.632   0.368
  350TIP3   OH2  971   3.096   2.017   1.622
  350TIP3    H1  972   3.133   1.974   1.699
  350TIP3    H2  973   3.046   2.091   1.658
  351TIP3   OH2  974   4.136   1.088   1.636
  351TIP3    H1  975   4.214   1.137   1.663
  351TIP3    H2  976   4.130   1.017   1.699
  352TIP3   OH2  977   3.446   1.845   0.453
  352TIP3    H1  978   3.354   1.857   0.478
  352TIP3    H2  979   3.460   1.907   0.381
  353TIP3   OH2  980   3.963   1.296   1.704
  353TIP3    H1  981   3.992   1.343   1.782
  353TIP3    H2  982   4.024   1.222   1.696
  354TIP3   OH2  983   3.164   1.911   0.492
  354TIP3    H1  984   3.148   1.983   0.430
  354TIP3    H2  985   3.167   1.953   0.578
  355TIP3   OH2  986   4.582   1.214   1.675
  355TIP3    H1  987   4.487   1.226   1.684
  355TIP3    H2  988   4.592   1.152   1.603
  356TIP3   OH2  989   4.272   1.415   1.123
  356TIP3    H1  990   4.231   1.375   1.046
  356TIP3    H2  991   4.354   1.368   1.134
  357TIP3   OH2  992   4.217   2.365   0.968
  357TIP3    H1  993   4.176   2.413   0.897
  357TIP3    H2  994   4.311   2.383   0.958
  358TIP3   OH2  995   3.016   2.419   1.971
  358TIP3    H1  996   3.096   2.425   2.022
  358TIP3    H2  997   3.000   2.325   1.961
  359TIP3   OH2  998   3.483   2.336   2.027
  359TIP3    H1  999   3.575   2.315   2.043
  359TIP3    H2 1000   3.454   2.273   1.961
  360TIP3   OH2 1001   4.098   2.259   1.767
  360TIP3    H1 1002   4.111   2.189   1.831
  360TIP3    H2 1003   4.171   2.319   1.782
  361TIP3   OH2 1004   6.785   6.113   7.250
  361TIP3    H1 1005   6.802   6.031   7.296
  361TIP3    H2 1006   6.857   6.121   7.187
  362TIP3   OH2 1007   3.153   1.832   2.162
  362TIP3    H1 1008   3.215   1.778   2.113
  362TIP3    H2 1009   3.071   1.824   2.113
  363TIP3   OH2 1010   3.743   1.893   1.964
  363TIP3    H1 1011   3.700   1.913   1.881
  363TIP3    H2 1012   3.781   1.806   1.951
  364TIP3   OH2 1013   4.208   1.932   1.543
  364TIP3    H1 1014   4.289   1.965   1.504
  364TIP3    H2 1015   4.146   2.004   1.534
  365TIP3   OH2 1016   3.331   1.461   2.193
  365TIP3    H1 1017   3.333   1.511   2.112
  365TIP3    H2 1018   3.318   1.526   2.262
  366TIP3   OH2 1019   3.615   1.475   1.852
  366TIP3    H1 1020   3.536   1.525   1.869
  366TIP3    H2 1021   3.641   1.500   1.763
  367TIP3   OH2 1022   4.095   1.811   1.908
  367TIP3    H1 1023   4.168   1.776   1.857
  367TIP3    H2 1024   4.088   1.752   1.983
  368TIP3   OH2 1025   4.159   1.469   0.037
  368TIP3    H1 1026   4.178   1.431  -0.048
  368TIP3    H2 1027   4.170   1.564   0.024
  369TIP3   OH2 1028   3.696   1.236   1.963
  369TIP3    H1 1029   3.714   1.165   1.902
  369TIP3    H2 1030   3.671   1.310   1.907
  370TIP3   OH2 1031   3.765   1.034   1.785
  370TIP3    H1 1032   3.808   1.077   1.711
  370TIP3    H2 1033   3.689   0.991   1.748
  371TIP3   OH2 1034   3.734   1.553   1.616
  371TIP3    H1 1035   3.825   1.570   1.593
  371TIP3    H2 1036   3.685   1.623   1.572
  372TIP3   OH2 1037   4.317   1.497   1.984
  372TIP3    H1 1038   4.367   1.416   1.992
  372TIP3    H2 1039   4.384   1.565   1.976
  373TIP3   OH2 1040   4.338   1.776   1.723
  373TIP3    H1 1041   4.282   1.833   1.670
  373TIP3    H2 1042   4.426   1.791   1.690
  374TIP3   OH2 1043   3.549   1.290   2.186
  374TIP3    H1 1044   3.481   1.356   2.171
  374TIP3    H2 1045   3.592   1.280   2.101
  375TIP3   OH2 1046   3.846   0.776   1.842
  375TIP3    H1 1047   3.819   0.867   1.827
  375TIP3    H2 1048   3.766   0.725   1.831
  376TIP3   OH2 1049   3.960   1.262   2.053
  376TIP3    H1 1050   3.968   1.243   2.147
  376TIP3    H2 1051   3.869   1.243   2.032
  377TIP3   OH2 1052   4.199   1.209   1.917
  377TIP3    H1 1053   4.122   1.208   1.974
  377TIP3    H2 1054   4.271   1.181   1.973
  378TIP3   OH2 1055   4.434   1.166   2.061
  378TIP3    H1 1056   4.452   1.072   2.065
  378TIP3    H2 1057   4.428   1.193   2.152
  379TIP3   OH2 1058   3.398   1.065   2.263
  379TIP3    H1 1059   3.448   1.139   2.228
  379TIP3    H2 1060   3.445   1.040   2.343
  380TIP3   OH2 1061   3.882   0.745   2.112
  380TIP3    H1 1062   3.947   0.676   2.115
  380TIP3    H2 1063   3.862   0.756   2.019
  381TIP3   OH2 1064   3.978   0.967   2.244
  381TIP3    H1 1065   3.950   0.891   2.193
  381TIP3    H2 1066   3.902   1.026   2.244
  382TIP3   OH2 1067   3.123   2.121   0.320
  382TIP3    H1 1068   3.188   2.191   0.312
  382TIP3    H2 1069   3.054   2.146   0.259
  383TIP3   OH2 1070   2.477   2.160   0.862
  383TIP3    H1 1071   2.412   2.095   0.835
  383TIP3    H2 1072   2.545   2.109   0.906
  384TIP3   OH2 1073   2.790   2.067   1.255
  384TIP3    H1 1074   2.831   2.014   1.323
  384TIP3    H2 1075   2.845   2.145   1.248
  385TIP3   OH2 1076   4.478   2.447   0.961
  385TIP3    H1 1077   4.512   2.466   1.048
  385TIP3    H2 1078   4.548   2.473   0.902
  386TIP3   OH2 1079   4.515   2.457   1.244
  386TIP3    H1 1080   4.466   2.375   1.235
  386TIP3    H2 1081   4.584   2.437   1.308
  387TIP3   OH2 1082   4.563   2.150   1.813
  387TIP3    H1 1083   4.490   2.159   1.874
  387TIP3    H2 1084   4.609   2.233   1.818
  388TIP3   OH2 1085   4.381   1.694   0.339
  388TIP3    H1 1086   4.455   1.753   0.351
  388TIP3    H2 1087   4.346   1.681   0.427
  389TIP3   OH2 1088   4.579   1.453   0.804
  389TIP3    H1 1089   4.488   1.469   0.779
  389TIP3    H2 1090   4.624   1.535   0.785
  390TIP3   OH2 1091   4.569   1.921   1.049
  390TIP3    H1 1092   4.621   1.853   1.009
  390TIP3    H2 1093   4.574   1.995   0.988
  391TIP3   OH2 1094   4.367   2.224   1.253
  391TIP3    H1 1095   4.300   2.269   1.304
  391TIP3    H2 1096   4.318   2.181   1.183
  392TIP3   OH2 1097   4.453   1.443   0.246
  392TIP3    H1 1098   4.418   1.418   0.160
  392TIP3    H2 1099   4.425   1.534   0.256
  393TIP3   OH2 1100   4.316   1.438   0.745
  393TIP3    H1 1101   4.323   1.352   0.702
  393TIP3    H2 1102   4.306   1.418   0.838
  394TIP3   OH2 1103   2.985   1.400   1.602
  394TIP3    H1 1104   3.006   1.372   1.513
  394TIP3    H2 1105   3.060   1.454   1.628
  395TIP3   OH2 1106   4.594   1.808   1.620
  395TIP3    H1 1107   4.659   1.740   1.605
  395TIP3    H2 1108   4.620   1.879   1.561
  396TIP3   OH2 1109   4.771   1.597   1.615
  396TIP3    H1 1110   4.699   1.558   1.664
  396TIP3    H2 1111   4.847   1.544   1.637
  397TIP3   OH2 1112   4.267   1.176   0.684
  397TIP3    H1 1113   4.321   1.104   0.716
  397TIP3    H2 1114   4.298   1.192   0.595
  398TIP3   OH2 1115   4.494   1.264   1.218
  398TIP3    H1 1116   4.566   1.289   1.160
  398TIP3    H2 1117   4.509   1.314   1.298
  399TIP3   OH2 1118   4.536   1.441   1.423
  399TIP3    H1 1119   4.461   1.477   1.470
  399TIP3    H2 1120   4.569   1.514   1.371
  400TIP3   OH2 1121   3.137   1.175   2.271
  400TIP3    H1 1122   3.231   1.164   2.285
  400TIP3    H2 1123   3.105   1.209   2.354
  401TIP3   OH2 1124   5.000   1.022   1.939
  401TIP3    H1 1125   5.072   0.971   1.901
  401TIP3    H2 1126   4.966   1.073   1.866
  402TIP3   OH2 1127   4.398   0.765   0.639
  402TIP3    H1 1128   4.461   0.763   0.712
  402TIP3    H2 1129   4.336   0.834   0.663
  403TIP3   OH2 1130   3.088   1.139   1.707
  403TIP3    H1 1131   3.063   1.070   1.645
  403TIP3    H2 1132   3.056   1.219   1.667
  404TIP3   OH2 1133   4.847   1.152   1.750
  404TIP3    H1 1134   4.764   1.191   1.778
  404TIP3    H2 1135   4.821   1.076   1.697
  405TIP3   OH2 1136   4.120   2.299   0.604
  405TIP3    H1 1137   4.190   2.294   0.539
  405TIP3    H2 1138   4.135   2.382   0.650
  406TIP3   OH2 1139   3.105   0.697   1.945
  406TIP3    H1 1140   3.042   0.681   2.015
  406TIP3    H2 1141   3.058   0.751   1.882
  407TIP3   OH2 1142   3.150   2.135   1.977
  407TIP3    H1 1143   3.056   2.121   1.979
  407TIP3    H2 1144   3.181   2.099   2.060
  408TIP3   OH2 1145   3.383   2.193   1.571
  408TIP3    H1 1146   3.333   2.270   1.543
  408TIP3    H2 1147   3.468   2.203   1.530
  409TIP3   OH2 1148   3.762   2.409   1.675
  409TIP3    H1 1149   3.798   2.402   1.764
  409TIP3    H2 1150   3.825   2.462   1.627
  410TIP3   OH2 1151   3.959   2.557   1.549
  410TIP3    H1 1152   4.025   2.503   1.506
  410TIP3    H2 1153   4.009   2.618   1.604
  411TIP3   OH2 1154   4.759   0.913   1.643
  411TIP3    H1 1155   4.673   0.911   1.602
  411TIP3    H2 1156   4.791   0.823   1.636
  412TIP3   OH2 1157   3.034   2.489   1.574
  412TIP3    H1 1158   2.942   2.511   1.560
  412TIP3    H2 1159   3.059   2.537   1.653
  413TIP3   OH2 1160   3.279   2.433   1.459
  413TIP3    H1 1161   3.194   2.450   1.501
  413TIP3    H2 1162   3.262   2.446   1.366
  414TIP3   OH2 1163   3.689   2.427   1.242
  414TIP3    H1 1164   3.613   2.438   1.185
  414TIP3    H2 1165   3.703   2.514   1.279
  415TIP3   OH2 1166   3.946   2.347   1.271
  415TIP3    H1 1167   3.855   2.375   1.262
  415TIP3    H2 1168   3.996   2.413   1.222
  416TIP3   OH2 1169   4.138   2.531   1.173
  416TIP3    H1 1170   4.131   2.618   1.134
  416TIP3    H2 1171   4.166   2.475   1.101
  417TIP3   OH2 1172   2.956   2.283   1.245
  417TIP3    H1 1173   3.019   2.263   1.315
  417TIP3    H2 1174   3.006   2.275   1.164
  418TIP3   OH2 1175   3.086   1.995   1.185
  418TIP3    H1 1176   3.155   1.963   1.243
  418TIP3    H2 1177   3.094   2.091   1.189
  419TIP3   OH2 1178   3.395   2.212   1.255
  419TIP3    H1 1179   3.415   2.126   1.217
  419TIP3    H2 1180   3.465   2.227   1.319
  420TIP3   OH2 1181   3.830   0.762   1.168
  420TIP3    H1 1182   3.891   0.745   1.240
  420TIP3    H2 1183   3.870   0.721   1.092
  421TIP3   OH2 1184   4.515   0.725   1.112
  421TIP3    H1 1185   4.501   0.820   1.114
  421TIP3    H2 1186   4.434   0.688   1.147
  422TIP3   OH2 1187   4.590   0.822   0.824
  422TIP3    H1 1188   4.653   0.751   0.811
  422TIP3    H2 1189   4.639   0.891   0.868
  423TIP3   OH2 1190   4.035   0.572   1.074
  423TIP3    H1 1191   4.026   0.614   0.988
  423TIP3    H2 1192   4.038   0.478   1.054
  424TIP3   OH2 1193   3.538   2.260   0.080
  424TIP3    H1 1194   3.605   2.323   0.052
  424TIP3    H2 1195   3.569   2.229   0.165
  425TIP3   OH2 1196   4.270   2.296   0.370
  425TIP3    H1 1197   4.286   2.214   0.323
  425TIP3    H2 1198   4.223   2.350   0.307
  426TIP3   OH2 1199   3.403   0.770   2.201
  426TIP3    H1 1200   3.384   0.690   2.250
  426TIP3    H2 1201   3.496   0.785   2.214
  427TIP3   OH2 1202   3.664   0.796   2.281
  427TIP3    H1 1203   3.740   0.778   2.226
  427TIP3    H2 1204   3.663   0.724   2.345
  428TIP3   OH2 1205   4.508   0.899   2.066
  428TIP3    H1 1206   4.526   0.871   2.156
  428TIP3    H2 1207   4.593   0.892   2.021
  429TIP3   OH2 1208   4.417   2.426   1.567
  429TIP3    H1 1209   4.341   2.398   1.515
  429TIP3    H2 1210   4.406   2.521   1.575
  430TIP3   OH2 1211   5.692   1.752   0.358
  430TIP3    H1 1212   5.697   1.846   0.344
  430TIP3    H2 1213   5.629   1.721   0.293
  431TIP3   OH2 1214   5.684   1.811   0.733
  431TIP3    H1 1215   5.736   1.794   0.811
  431TIP3    H2 1216   5.646   1.726   0.710
  432TIP3   OH2 1217   5.002   1.678   1.087
  432TIP3    H1 1218   5.043   1.620   1.151
  432TIP3    H2 1219   5.071   1.697   1.024
  433TIP3   OH2 1220   5.961   2.124   0.396
  433TIP3    H1 1221   5.939   2.059   0.463
  433TIP3    H2 1222   5.977   2.205   0.444
  434TIP3   OH2 1223   4.984   2.121   0.781
  434TIP3    H1 1224   4.969   2.026   0.780
  434TIP3    H2 1225   5.078   2.131   0.766
  435TIP3   OH2 1226   4.666   1.304   0.593
  435TIP3    H1 1227   4.638   1.354   0.669
  435TIP3    H2 1228   4.586   1.260   0.562
  436TIP3   OH2 1229   4.811   1.620   0.769
  436TIP3    H1 1230   4.841   1.530   0.781
  436TIP3    H2 1231   4.772   1.620   0.681
  437TIP3   OH2 1232   5.612   2.546   0.410
  437TIP3    H1 1233   5.643   2.477   0.350
  437TIP3    H2 1234   5.614   2.504   0.497
  438TIP3   OH2 1235   5.490   2.031   0.731
  438TIP3    H1 1236   5.534   1.950   0.707
  438TIP3    H2 1237   5.561   2.089   0.760
  439TIP3   OH2 1238   5.911   1.532   0.774
  439TIP3    H1 1239   5.957   1.449   0.786
  439TIP3    H2 1240   5.879   1.528   0.684
  440TIP3   OH2 1241   5.247   1.173   0.733
  440TIP3    H1 1242   5.231   1.235   0.662
  440TIP3    H2 1243   5.229   1.087   0.695
  441TIP3   OH2 1244   4.876   1.354   0.836
  441TIP3    H1 1245   4.961   1.342   0.877
  441TIP3    H2 1246   4.868   1.281   0.775
  442TIP3   OH2 1247   5.308   1.586   0.682
  442TIP3    H1 1248   5.403   1.579   0.694
  442TIP3    H2 1249   5.282   1.502   0.644
  443TIP3   OH2 1250   6.580   1.560   0.968
  443TIP3    H1 1251   6.499   1.596   0.931
  443TIP3    H2 1252   6.586   1.600   1.055
  444TIP3   OH2 1253   5.234   1.191   1.187
  444TIP3    H1 1254   5.186   1.232   1.115
  444TIP3    H2 1255   5.179   1.206   1.264
  445TIP3   OH2 1256   5.619   2.031   0.197
  445TIP3    H1 1257   5.577   1.995   0.119
  445TIP3    H2 1258   5.558   2.097   0.229
  446TIP3   OH2 1259   5.333   1.956   0.946
  446TIP3    H1 1260   5.276   2.026   0.977
  446TIP3    H2 1261   5.378   1.994   0.870
  447TIP3   OH2 1262   5.121   1.286   0.950
  447TIP3    H1 1263   5.176   1.361   0.972
  447TIP3    H2 1264   5.167   1.243   0.878
  448TIP3   OH2 1265   5.176   2.159   1.050
  448TIP3    H1 1266   5.162   2.248   1.019
  448TIP3    H2 1267   5.096   2.137   1.098
  449TIP3   OH2 1268   4.605   1.854   0.370
  449TIP3    H1 1269   4.591   1.864   0.275
  449TIP3    H2 1270   4.613   1.943   0.402
  450TIP3   OH2 1271   5.989   2.368   0.536
  450TIP3    H1 1272   5.905   2.361   0.581
  450TIP3    H2 1273   5.986   2.453   0.493
  451TIP3   OH2 1274   6.305   1.294   0.940
  451TIP3    H1 1275   6.210   1.300   0.927
  451TIP3    H2 1276   6.340   1.281   0.852
  452TIP3   OH2 1277   5.586   0.918   0.942
  452TIP3    H1 1278   5.576   0.822   0.947
  452TIP3    H2 1279   5.501   0.952   0.971
  453TIP3   OH2 1280   5.708   2.382   0.204
  453TIP3    H1 1281   5.758   2.302   0.192
  453TIP3    H2 1282   5.770   2.453   0.184
  454TIP3   OH2 1283   5.857   2.157   0.140
  454TIP3    H1 1284   5.781   2.101   0.150
  454TIP3    H2 1285   5.909   2.141   0.220
  455TIP3   OH2 1286   6.231   2.225   0.885
  455TIP3    H1 1287   6.211   2.158   0.819
  455TIP3    H2 1288   6.212   2.308   0.840
  456TIP3   OH2 1289   5.516   1.694   0.153
  456TIP3    H1 1290   5.432   1.740   0.147
  456TIP3    H2 1291   5.548   1.693   0.062
  457TIP3   OH2 1292   6.408   1.906   0.725
  457TIP3    H1 1293   6.321   1.947   0.723
  457TIP3    H2 1294   6.440   1.915   0.635
  458TIP3   OH2 1295   6.099   1.772   1.063
  458TIP3    H1 1296   6.089   1.852   1.115
  458TIP3    H2 1297   6.019   1.767   1.011
  459TIP3   OH2 1298   5.121   1.737   0.548
  459TIP3    H1 1299   5.086   1.675   0.484
  459TIP3    H2 1300   5.191   1.689   0.593
  460TIP3   OH2 1301   5.241   2.157   0.664
  460TIP3    H1 1302   5.211   2.136   0.576
  460TIP3    H2 1303   5.325   2.112   0.672
  461TIP3   OH2 1304   5.222   1.705   0.920
  461TIP3    H1 1305   5.245   1.676   0.831
  461TIP3    H2 1306   5.256   1.795   0.925
  462TIP3   OH2 1307   5.763   2.370   0.687
  462TIP3    H1 1308   5.755   2.445   0.746
  462TIP3    H2 1309   5.745   2.294   0.742
  463TIP3   OH2 1310   5.375   2.253   1.218
  463TIP3    H1 1311   5.313   2.310   1.264
  463TIP3    H2 1312   5.320   2.201   1.159
  464TIP3   OH2 1313   5.131   1.798   1.373
  464TIP3    H1 1314   5.135   1.893   1.385
  464TIP3    H2 1315   5.038   1.779   1.358
  465TIP3   OH2 1316   5.456   2.259   0.222
  465TIP3    H1 1317   5.535   2.314   0.221
  465TIP3    H2 1318   5.397   2.301   0.159
  466TIP3   OH2 1319   5.164   2.412   1.302
  466TIP3    H1 1320   5.141   2.422   1.210
  466TIP3    H2 1321   5.080   2.398   1.346
  467TIP3   OH2 1322   5.013   1.565   0.357
  467TIP3    H1 1323   4.940   1.615   0.321
  467TIP3    H2 1324   4.971   1.490   0.399
  468TIP3   OH2 1325   4.758   1.969   1.253
  468TIP3    H1 1326   4.694   1.949   1.185
  468TIP3    H2 1327   4.796   1.884   1.277
  469TIP3   OH2 1328   4.649   2.146   0.902
  469TIP3    H1 1329   4.738   2.134   0.870
  469TIP3    H2 1330   4.656   2.222   0.961
  470TIP3   OH2 1331   5.565   2.395   1.080
  470TIP3    H1 1332   5.554   2.486   1.108
  470TIP3    H2 1333   5.498   2.347   1.129
  471TIP3   OH2 1334   5.332   2.502   0.027
  471TIP3    H1 1335   5.284   2.480  -0.053
  471TIP3    H2 1336   5.294   2.584   0.057
  472TIP3   OH2 1337   4.784   2.360   0.420
  472TIP3    H1 1338   4.829   2.356   0.504
  472TIP3    H2 1339   4.735   2.278   0.415
  473TIP3   OH2 1340   8.490   6.574   6.980
  473TIP3    H1 1341   8.527   6.486   6.973
  473TIP3    H2 1342   8.525   6.608   7.063
  474TIP3   OH2 1343   8.560   6.663   7.230
  474TIP3    H1 1344   8.469   6.669   7.258
  474TIP3    H2 1345   8.606   6.627   7.305
  475TIP3   OH2 1346   6.328   1.743   1.235
  475TIP3    H1 1347   6.256   1.743   1.173
  475TIP3    H2 1348   6.367   1.656   1.228
  476TIP3   OH2 1349   4.955   2.159   1.220
  476TIP3    H1 1350   5.009   2.144   1.298
  476TIP3    H2 1351   4.885   2.095   1.226
  477TIP3   OH2 1352   5.333   0.982   1.038
  477TIP3    H1 1353   5.248   0.944   1.014
  477TIP3    H2 1354   5.311   1.063   1.083
  478TIP3   OH2 1355   5.891   1.078   1.243
  478TIP3    H1 1356   5.957   1.048   1.305
  478TIP3    H2 1357   5.807   1.056   1.285
  479TIP3   OH2 1358   6.095   1.509   1.163
  479TIP3    H1 1359   6.058   1.513   1.251
  479TIP3    H2 1360   6.081   1.597   1.127
  480TIP3   OH2 1361   5.284   1.481   1.057
  480TIP3    H1 1362   5.240   1.493   1.142
  480TIP3    H2 1363   5.269   1.564   1.011
  481TIP3   OH2 1364   5.200   1.367   0.544
  481TIP3    H1 1365   5.104   1.371   0.542
  481TIP3    H2 1366   5.227   1.379   0.453
  482TIP3   OH2 1367   5.823   1.718   1.364
  482TIP3    H1 1368   5.798   1.650   1.426
  482TIP3    H2 1369   5.915   1.736   1.383
  483TIP3   OH2 1370   5.824   1.552   0.503
  483TIP3    H1 1371   5.780   1.629   0.466
  483TIP3    H2 1372   5.792   1.479   0.450
  484TIP3   OH2 1373   5.124   1.510   1.277
  484TIP3    H1 1374   5.139   1.575   1.346
  484TIP3    H2 1375   5.104   1.430   1.325
  485TIP3   OH2 1376   4.717   1.036   0.925
  485TIP3    H1 1377   4.779   1.075   0.987
  485TIP3    H2 1378   4.749   1.064   0.839
  486TIP3   OH2 1379   4.640   1.083   0.270
  486TIP3    H1 1380   4.636   1.157   0.209
  486TIP3    H2 1381   4.548   1.064   0.291
  487TIP3   OH2 1382   5.844   1.725   0.949
  487TIP3    H1 1383   5.871   1.659   0.884
  487TIP3    H2 1384   5.799   1.674   1.017
  488TIP3   OH2 1385   5.524   1.239   0.691
  488TIP3    H1 1386   5.433   1.226   0.716
  488TIP3    H2 1387   5.571   1.167   0.732
  489TIP3   OH2 1388   4.929   1.349   0.516
  489TIP3    H1 1389   4.837   1.366   0.538
  489TIP3    H2 1390   4.929   1.261   0.479
  490TIP3   OH2 1391   6.022   1.286   0.870
  490TIP3    H1 1392   5.972   1.307   0.949
  490TIP3    H2 1393   5.988   1.202   0.841
  491TIP3   OH2 1394   6.164   2.926   1.036
  491TIP3    H1 1395   6.157   2.946   0.943
  491TIP3    H2 1396   6.240   2.869   1.043
  492TIP3   OH2 1397   5.111   2.069   1.453
  492TIP3    H1 1398   5.193   2.088   1.499
  492TIP3    H2 1399   5.043   2.077   1.520
  493TIP3   OH2 1400   5.575   1.537   0.735
  493TIP3    H1 1401   5.598   1.461   0.681
  493TIP3    H2 1402   5.573   1.503   0.824
  494TIP3   OH2 1403   5.548   1.435   0.993
  494TIP3    H1 1404   5.460   1.462   1.019
  494TIP3    H2 1405   5.606   1.489   1.046
  495TIP3   OH2 1406   5.264   1.826   0.100
  495TIP3    H1 1407   5.217   1.743   0.095
  495TIP3    H2 1408   5.247   1.858   0.188
  496TIP3   OH2 1409   6.168   2.040   0.696
  496TIP3    H1 1410   6.198   2.090   0.620
  496TIP3    H2 1411   6.082   2.005   0.669
  497TIP3   OH2 1412   5.688   2.124   1.111
  497TIP3    H1 1413   5.738   2.112   1.192
  497TIP3    H2 1414   5.651   2.212   1.119
  498TIP3   OH2 1415   4.970   1.850   0.752
  498TIP3    H1 1416   5.027   1.820   0.681
  498TIP3    H2 1417   4.916   1.774   0.773
  499TIP3   OH2 1418   8.430   6.166   7.245
  499TIP3    H1 1419   8.390   6.251   7.227
  499TIP3    H2 1420   8.358   6.112   7.277
  500TIP3   OH2 1421   4.855   1.740   1.386
  500TIP3    H1 1422   4.858   1.712   1.477
  500TIP3    H2 1423   4.787   1.686   1.346
  501TIP3   OH2 1424   5.594   1.872   1.406
  501TIP3    H1 1425   5.525   1.813   1.375
  501TIP3    H2 1426   5.675   1.831   1.375
  502TIP3   OH2 1427   5.842   2.397   1.018
  502TIP3    H1 1428   5.746   2.396   1.017
  502TIP3    H2 1429   5.864   2.449   1.096
  503TIP3   OH2 1430   6.443   2.383   1.011
  503TIP3    H1 1431   6.376   2.354   1.073
  503TIP3    H2 1432   6.436   2.322   0.937
  504TIP3   OH2 1433   0.011   6.460   7.160
  504TIP3    H1 1434  -0.017   6.429   7.246
  504TIP3    H2 1435   0.024   6.380   7.109
  505TIP3   OH2 1436   5.921   1.935   0.610
  505TIP3    H1 1437   5.835   1.902   0.635
  505TIP3    H2 1438   5.969   1.857   0.583
  506TIP3   OH2 1439   5.091   2.148   0.425
  506TIP3    H1 1440   5.089   2.225   0.368
  506TIP3    H2 1441   4.999   2.127   0.441
  507TIP3   OH2 1442   4.656   1.306   0.061
  507TIP3    H1 1443   4.686   1.390   0.025
  507TIP3    H2 1444   4.563   1.301   0.036
  508TIP3   OH2 1445   5.200   1.908   0.347
  508TIP3    H1 1446   5.173   1.997   0.370
  508TIP3    H2 1447   5.177   1.855   0.422
  509TIP3   OH2 1448   5.385   2.474   0.872
  509TIP3    H1 1449   5.426   2.543   0.820
  509TIP3    H2 1450   5.457   2.436   0.922
  510TIP3   OH2 1451   5.016   2.372   0.274
  510TIP3    H1 1452   4.929   2.378   0.312
  510TIP3    H2 1453   5.051   2.462   0.279
  511TIP3   OH2 1454   5.728   2.135   0.837
  511TIP3    H1 1455   5.718   2.127   0.932
  511TIP3    H2 1456   5.797   2.073   0.814
  512TIP3   OH2 1457   5.065   1.260   1.396
  512TIP3    H1 1458   4.970   1.270   1.402
  512TIP3    H2 1459   5.089   1.207   1.473
  513TIP3   OH2 1460   4.797   2.360   1.048
  513TIP3    H1 1461   4.853   2.299   1.095
  513TIP3    H2 1462   4.818   2.446   1.085
  514TIP3   OH2 1463   8.005   6.195   6.976
  514TIP3    H1 1464   8.000   6.108   6.936
  514TIP3    H2 1465   8.008   6.177   7.070
  515TIP3   OH2 1466   5.058   2.006  -0.012
  515TIP3    H1 1467   5.131   1.962   0.032
  515TIP3    H2 1468   5.070   2.099   0.009
  516TIP3   OH2 1469   4.799   1.695   0.243
  516TIP3    H1 1470   4.752   1.761   0.295
  516TIP3    H2 1471   4.766   1.707   0.154
  517TIP3   OH2 1472   5.897   1.321   1.115
  517TIP3    H1 1473   5.979   1.362   1.145
  517TIP3    H2 1474   5.893   1.238   1.161
  518TIP3   OH2 1475   8.283   6.392   7.197
  518TIP3    H1 1476   8.206   6.428   7.241
  518TIP3    H2 1477   8.262   6.396   7.103
  519TIP3   OH2 1478   5.745   1.556   1.143
  519TIP3    H1 1479   5.771   1.599   1.224
  519TIP3    H2 1480   5.794   1.474   1.143
  520TIP3   OH2 1481   5.072   2.280   0.024
  520TIP3    H1 1482   5.034   2.345  -0.035
  520TIP3    H2 1483   5.052   2.311   0.112
  521TIP3   OH2 1484   6.362   1.471   1.155
  521TIP3    H1 1485   6.268   1.472   1.170
  521TIP3    H2 1486   6.373   1.432   1.069
  522TIP3   OH2 1487   6.056   1.707   0.545
  522TIP3    H1 1488   5.989   1.642   0.527
  522TIP3    H2 1489   6.132   1.656   0.573
  523TIP3   OH2 1490   7.770   6.111   7.202
  523TIP3    H1 1491   7.843   6.163   7.234
  523TIP3    H2 1492   7.809   6.027   7.179
  524TIP3   OH2 1493   5.995   2.635   0.456
  524TIP3    H1 1494   5.952   2.688   0.389
  524TIP3    H2 1495   6.089   2.647   0.440
  525TIP3   OH2 1496   5.081   0.873   1.033
  525TIP3    H1 1497   5.030   0.838   0.960
  525TIP3    H2 1498   5.101   0.797   1.087
  526TIP3   OH2 1499   4.620   2.132   0.416
  526TIP3    H1 1500   4.570   2.169   0.489
  526TIP3    H2 1501   4.576   2.167   0.337
  527TIP3   OH2 1502   4.812   2.666   1.457
  527TIP3    H1 1503   4.893   2.673   1.506
  527TIP3    H2 1504   4.801   2.573   1.440
  528TIP3   OH2 1505   5.274   2.571   1.498
  528TIP3    H1 1506   5.365   2.542   1.505
  528TIP3    H2 1507   5.238   2.519   1.426
  529TIP3   OH2 1508   8.198   6.379   6.930
  529TIP3    H1 1509   8.122   6.323   6.943
  529TIP3    H2 1510   8.259   6.325   6.880
  530TIP3   OH2 1511   5.899   2.522   1.260
  530TIP3    H1 1512   5.915   2.452   1.323
  530TIP3    H2 1513   5.976   2.578   1.267
  531TIP3   OH2 1514   4.911   2.067   1.649
  531TIP3    H1 1515   4.931   1.974   1.659
  531TIP3    H2 1516   4.825   2.068   1.607
  532TIP3   OH2 1517   7.955   5.903   7.138
  532TIP3    H1 1518   8.029   5.875   7.193
  532TIP3    H2 1519   7.984   5.885   7.049
  533TIP3   OH2 1520   5.528   2.147   1.422
  533TIP3    H1 1521   5.484   2.168   1.339
  533TIP3    H2 1522   5.563   2.058   1.408
  534TIP3   OH2 1523   6.002   2.174   1.039
  534TIP3    H1 1524   6.076   2.199   0.984
  534TIP3    H2 1525   5.939   2.245   1.028
  535TIP3   OH2 1526   5.021   1.811   1.652
  535TIP3    H1 1527   5.093   1.795   1.591
  535TIP3    H2 1528   5.065   1.828   1.736
  536TIP3   OH2 1529   5.127   1.589   0.102
  536TIP3    H1 1530   5.100   1.582   0.194
  536TIP3    H2 1531   5.092   1.511   0.060
  537TIP3   OH2 1532   5.388   1.694   1.312
  537TIP3    H1 1533   5.302   1.736   1.322
  537TIP3    H2 1534   5.420   1.724   1.227
  538TIP3   OH2 1535   5.887   2.068   1.395
  538TIP3    H1 1536   5.956   2.030   1.340
  538TIP3    H2 1537   5.883   2.010   1.471
  539TIP3   OH2 1538   5.484   1.461   1.420
  539TIP3    H1 1539   5.491   1.391   1.355
  539TIP3    H2 1540   5.453   1.536   1.370
  540TIP3   OH2 1541   5.498   1.264   1.218
  540TIP3    H1 1542   5.528   1.299   1.134
  540TIP3    H2 1543   5.406   1.242   1.203
  541TIP3   OH2 1544   5.505   1.800   1.092
  541TIP3    H1 1545   5.593   1.831   1.072
  541TIP3    H2 1546   5.447   1.856   1.040
  542TIP3   OH2 1547   6.095   1.747   1.452
  542TIP3    H1 1548   6.098   1.651   1.455
  542TIP3    H2 1549   6.179   1.773   1.414
  543TIP3   OH2 1550   6.111   2.009   1.221
  543TIP3    H1 1551   6.057   2.066   1.166
  543TIP3    H2 1552   6.200   2.026   1.192
  544TIP3   OH2 1553   5.374   1.544   1.663
  544TIP3    H1 1554   5.307   1.479   1.683
  544TIP3    H2 1555   5.402   1.522   1.574
  545TIP3   OH2 1556   5.622   1.035   1.318
  545TIP3    H1 1557   5.583   1.115   1.284
  545TIP3    H2 1558   5.558   0.966   1.299
  546TIP3   OH2 1559   5.741   1.506   1.517
  546TIP3    H1 1560   5.733   1.491   1.612
  546TIP3    H2 1561   5.655   1.483   1.482
  547TIP3   OH2 1562   6.001   1.482   1.414
  547TIP3    H1 1563   5.917   1.469   1.459
  547TIP3    H2 1564   6.065   1.436   1.468
  548TIP3   OH2 1565   6.220   1.404   1.559
  548TIP3    H1 1566   6.237   1.310   1.563
  548TIP3    H2 1567   6.214   1.431   1.651
  549TIP3   OH2 1568   5.209   1.324   1.727
  549TIP3    H1 1569   5.216   1.236   1.689
  549TIP3    H2 1570   5.248   1.316   1.814
  550TIP3   OH2 1571   5.679   1.013   1.585
  550TIP3    H1 1572   5.747   0.945   1.584
  550TIP3    H2 1573   5.655   1.023   1.493
  551TIP3   OH2 1574   5.789   1.229   1.715
  551TIP3    H1 1575   5.758   1.152   1.667
  551TIP3    H2 1576   5.713   1.287   1.720
  552TIP3   OH2 1577   7.967   6.666   7.105
  552TIP3    H1 1578   8.053   6.672   7.063
  552TIP3    H2 1579   7.905   6.671   7.032
  553TIP3   OH2 1580   4.579   1.820   0.100
  553TIP3    H1 1581   4.622   1.879   0.039
  553TIP3    H2 1582   4.529   1.760   0.045
  554TIP3   OH2 1583   4.435   2.468   0.495
  554TIP3    H1 1584   4.381   2.413   0.438
  554TIP3    H2 1585   4.474   2.406   0.556
  555TIP3   OH2 1586   4.545   2.273   0.656
  555TIP3    H1 1587   4.528   2.198   0.712
  555TIP3    H2 1588   4.599   2.331   0.709
  556TIP3   OH2 1589   6.263   2.679   0.438
  556TIP3    H1 1590   6.276   2.699   0.530
  556TIP3    H2 1591   6.330   2.729   0.392
  557TIP3   OH2 1592   6.265   2.705   0.714
  557TIP3    H1 1593   6.225   2.620   0.731
  557TIP3    H2 1594   6.322   2.720   0.789
  558TIP3   OH2 1595   6.357   2.407   1.285
  558TIP3    H1 1596   6.284   2.408   1.346
  558TIP3    H2 1597   6.398   2.493   1.296
  559TIP3   OH2 1598   6.357   2.190   0.547
  559TIP3    H1 1599   6.403   2.120   0.501
  559TIP3    H2 1600   6.351   2.261   0.483
  560TIP3   OH2 1601   6.134   2.456   0.757
  560TIP3    H1 1602   6.055   2.478   0.806
  560TIP3    H2 1603   6.102   2.421   0.674
  561TIP3   OH2 1604   4.744   1.706   1.019
  561TIP3    H1 1605   4.752   1.680   0.927
  561TIP3    H2 1606   4.834   1.708   1.051
  562TIP3   OH2 1607   6.347   2.092   1.101
  562TIP3    H1 1608   6.408   2.023   1.076
  562TIP3    H2 1609   6.313   2.126   1.018
  563TIP3   OH2 1610   6.524   1.889   1.085
  563TIP3    H1 1611   6.477   1.829   1.143
  563TIP3    H2 1612   6.611   1.850   1.076
  564TIP3   OH2 1613   6.287   1.579   0.638
  564TIP3    H1 1614   6.375   1.597   0.605
  564TIP3    H2 1615   6.292   1.600   0.731
  565TIP3   OH2 1616   6.338   1.688   0.889
  565TIP3    H1 1617   6.259   1.713   0.938
  565TIP3    H2 1618   6.367   1.769   0.847
  566TIP3   OH2 1619   4.949   1.393   1.669
  566TIP3    H1 1620   5.044   1.387   1.684
  566TIP3    H2 1621   4.913   1.314   1.709
  567TIP3   OH2 1622   6.823   1.288   1.432
  567TIP3    H1 1623   6.904   1.281   1.380
  567TIP3    H2 1624   6.759   1.324   1.371
  568TIP3   OH2 1625   4.938   1.107   1.070
  568TIP3    H1 1626   4.993   1.029   1.066
  568TIP3    H2 1627   4.991   1.176   1.030
  569TIP3   OH2 1628   4.703   1.362   1.068
  569TIP3    H1 1629   4.738   1.358   0.979
  569TIP3    H2 1630   4.729   1.448   1.100
  570TIP3   OH2 1631   6.607   1.385   1.298
  570TIP3    H1 1632   6.537   1.427   1.347
  570TIP3    H2 1633   6.563   1.338   1.227
  571TIP3   OH2 1634   4.617   0.810   0.469
  571TIP3    H1 1635   4.541   0.776   0.516
  571TIP3    H2 1636   4.580   0.870   0.404
  572TIP3   OH2 1637   5.868   2.580   0.119
  572TIP3    H1 1638   5.910   2.578   0.033
  572TIP3    H2 1639   5.898   2.661   0.159
  573TIP3   OH2 1640   4.916   0.914   1.406
  573TIP3    H1 1641   4.870   0.919   1.490
  573TIP3    H2 1642   4.863   0.967   1.347
  574TIP3   OH2 1643   4.936   2.390   1.466
  574TIP3    H1 1644   4.844   2.365   1.459
  574TIP3    H2 1645   4.959   2.375   1.558
  575TIP3   OH2 1646   5.154   2.435   1.020
  575TIP3    H1 1647   5.104   2.510   0.988
  575TIP3    H2 1648   5.239   2.443   0.977
  576TIP3   OH2 1649   5.542   2.661   1.161
  576TIP3    H1 1650   5.583   2.654   1.248
  576TIP3    H2 1651   5.602   2.716   1.111
  577TIP3   OH2 1652   5.724   2.816   1.025
  577TIP3    H1 1653   5.769   2.759   0.963
  577TIP3    H2 1654   5.794   2.864   1.070
  578TIP3   OH2 1655   6.492   1.189   1.134
  578TIP3    H1 1656   6.414   1.227   1.093
  578TIP3    H2 1657   6.528   1.131   1.067
  579TIP3   OH2 1658   4.812   2.672   1.071
  579TIP3    H1 1659   4.722   2.693   1.048
  579TIP3    H2 1660   4.837   2.738   1.135
  580TIP3   OH2 1661   5.042   2.664   0.918
  580TIP3    H1 1662   4.958   2.668   0.965
  580TIP3    H2 1663   5.020   2.687   0.828
  581TIP3   OH2 1664   5.473   2.679   0.705
  581TIP3    H1 1665   5.401   2.686   0.642
  581TIP3    H2 1666   5.478   2.765   0.746
  582TIP3   OH2 1667   5.740   2.637   0.788
  582TIP3    H1 1668   5.654   2.650   0.748
  582TIP3    H2 1669   5.798   2.696   0.740
  583TIP3   OH2 1670   5.919   2.809   0.658
  583TIP3    H1 1671   5.911   2.890   0.607
  583TIP3    H2 1672   5.947   2.743   0.594
  584TIP3   OH2 1673   4.718   2.450   0.797
  584TIP3    H1 1674   4.746   2.426   0.885
  584TIP3    H2 1675   4.791   2.424   0.741
  585TIP3   OH2 1676   4.929   2.355   0.654
  585TIP3    H1 1677   4.941   2.271   0.698
  585TIP3    H2 1678   5.016   2.394   0.652
  586TIP3   OH2 1679   5.199   2.431   0.668
  586TIP3    H1 1680   5.216   2.339   0.651
  586TIP3    H2 1681   5.253   2.452   0.744
  587TIP3   OH2 1682   4.934   0.783   0.820
  587TIP3    H1 1683   4.873   0.709   0.820
  587TIP3    H2 1684   4.909   0.834   0.743
  588TIP3   OH2 1685   4.510   2.236   0.187
  588TIP3    H1 1686   4.434   2.193   0.148
  588TIP3    H2 1687   4.501   2.328   0.163
  589TIP3   OH2 1688   8.221   6.643   7.004
  589TIP3    H1 1689   8.316   6.653   6.991
  589TIP3    H2 1690   8.202   6.555   6.970
  590TIP3   OH2 1691   0.039   6.733   7.128
  590TIP3    H1 1692   0.033   6.637   7.134
  590TIP3    H2 1693  -0.031   6.757   7.067
  591TIP3   OH2 1694   5.228   1.057   1.643
  591TIP3    H1 1695   5.197   0.991   1.706
  591TIP3    H2 1696   5.322   1.066   1.662
  592TIP3   OH2 1697   5.475   1.054   1.766
  592TIP3    H1 1698   5.549   1.041   1.706
  592TIP3    H2 1699   5.481   0.980   1.827
  593TIP3   OH2 1700   7.607   6.556   7.110
  593TIP3    H1 1701   7.563   6.514   7.184
  593TIP3    H2 1702   7.639   6.484   7.056
  594TIP3   OH2 1703   6.297   1.140   1.554
  594TIP3    H1 1704   6.307   1.110   1.644
  594TIP3    H2 1705   6.382   1.124   1.514
  595TIP3   OH2 1706   6.758   2.027   0.575
  595TIP3    H1 1707   6.772   1.943   0.620
  595TIP3    H2 1708   6.812   2.089   0.623
  596TIP3   OH2 1709   6.712   2.321   0.201
  596TIP3    H1 1710   6.653   2.266   0.253
  596TIP3    H2 1711   6.797   2.312   0.244
  597TIP3   OH2 1712   7.190   2.184   0.482
  597TIP3    H1 1713   7.201   2.275   0.455
  597TIP3    H2 1714   7.253   2.135   0.429
  598TIP3   OH2 1715   6.743   2.451   0.577
  598TIP3    H1 1716   6.766   2.474   0.487
  598TIP3    H2 1717   6.781   2.522   0.630
  599TIP3   OH2 1718   7.132   2.271   0.092
  599TIP3    H1 1719   7.084   2.202   0.139
  599TIP3    H2 1720   7.183   2.316   0.159
  600TIP3   OH2 1721   7.520   2.574   0.141
  600TIP3    H1 1722   7.497   2.663   0.115
  600TIP3    H2 1723   7.612   2.579   0.167
  601TIP3   OH2 1724   7.107   2.604   0.734
  601TIP3    H1 1725   7.035   2.641   0.784
  601TIP3    H2 1726   7.065   2.539   0.677
  602TIP3   OH2 1727   6.885   2.102   0.821
  602TIP3    H1 1728   6.889   2.176   0.882
  602TIP3    H2 1729   6.798   2.065   0.835
  603TIP3   OH2 1730   6.869   2.692   0.843
  603TIP3    H1 1731   6.853   2.716   0.752
  603TIP3    H2 1732   6.789   2.649   0.872
  604TIP3   OH2 1733   6.522   2.268   0.762
  604TIP3    H1 1734   6.463   2.245   0.690
  604TIP3    H2 1735   6.565   2.186   0.786
  605TIP3   OH2 1736   6.376   2.427   0.395
  605TIP3    H1 1737   6.457   2.466   0.426
  605TIP3    H2 1738   6.309   2.492   0.414
  606TIP3   OH2 1739   7.322   2.643   0.574
  606TIP3    H1 1740   7.342   2.737   0.566
  606TIP3    H2 1741   7.252   2.639   0.638
  607TIP3   OH2 1742   0.571   6.935   7.199
  607TIP3    H1 1743   0.641   6.882   7.239
  607TIP3    H2 1744   0.519   6.872   7.150
  608TIP3   OH2 1745   6.663   2.489   0.857
  608TIP3    H1 1746   6.743   2.445   0.887
  608TIP3    H2 1747   6.623   2.427   0.797
  609TIP3   OH2 1748   7.626   2.012   0.822
  609TIP3    H1 1749   7.605   1.942   0.884
  609TIP3    H2 1750   7.719   1.998   0.802
  610TIP3   OH2 1751   6.841   1.773   0.744
  610TIP3    H1 1752   6.904   1.711   0.780
  610TIP3    H2 1753   6.834   1.749   0.651
  611TIP3   OH2 1754   7.955   3.318   0.577
  611TIP3    H1 1755   7.897   3.348   0.507
  611TIP3    H2 1756   7.914   3.239   0.611
  612TIP3   OH2 1757   6.879   2.356   0.955
  612TIP3    H1 1758   6.967   2.386   0.980
  612TIP3    H2 1759   6.836   2.337   1.038
  613TIP3   OH2 1760   7.584   2.506   0.681
  613TIP3    H1 1761   7.593   2.436   0.746
  613TIP3    H2 1762   7.534   2.466   0.610
  614TIP3   OH2 1763   6.621   2.027   0.857
  614TIP3    H1 1764   6.624   1.990   0.946
  614TIP3    H2 1765   6.556   1.973   0.811
  615TIP3   OH2 1766   7.341   2.072   0.908
  615TIP3    H1 1767   7.298   2.112   0.832
  615TIP3    H2 1768   7.432   2.058   0.880
  616TIP3   OH2 1769   7.801   2.619   0.508
  616TIP3    H1 1770   7.752   2.612   0.426
  616TIP3    H2 1771   7.743   2.669   0.566
  617TIP3   OH2 1772   7.109   2.597   0.397
  617TIP3    H1 1773   7.106   2.681   0.351
  617TIP3    H2 1774   7.172   2.612   0.468
  618TIP3   OH2 1775   7.792   2.910   0.401
  618TIP3    H1 1776   7.763   2.819   0.391
  618TIP3    H2 1777   7.742   2.957   0.334
  619TIP3   OH2 1778   6.845   1.490   1.075
  619TIP3    H1 1779   6.769   1.524   1.029
  619TIP3    H2 1780   6.896   1.445   1.007
  620TIP3   OH2 1781   6.553   2.638   0.511
  620TIP3    H1 1782   6.609   2.571   0.549
  620TIP3    H2 1783   6.576   2.719   0.557
  621TIP3   OH2 1784   0.456   6.685   7.137
  621TIP3    H1 1785   0.432   6.690   7.230
  621TIP3    H2 1786   0.399   6.618   7.100
  622TIP3   OH2 1787   7.030   2.876   0.968
  622TIP3    H1 1788   7.101   2.821   0.998
  622TIP3    H2 1789   6.968   2.816   0.927
  623TIP3   OH2 1790   7.653   2.774   0.698
  623TIP3    H1 1791   7.632   2.683   0.719
  623TIP3    H2 1792   7.727   2.795   0.755
  624TIP3   OH2 1793   6.686   2.329   1.158
  624TIP3    H1 1794   6.718   2.239   1.157
  624TIP3    H2 1795   6.595   2.323   1.131
  625TIP3   OH2 1796   7.433   2.357   0.896
  625TIP3    H1 1797   7.353   2.409   0.906
  625TIP3    H2 1798   7.447   2.317   0.981
  626TIP3   OH2 1799   7.716   2.399   0.318
  626TIP3    H1 1800   7.784   2.420   0.255
  626TIP3    H2 1801   7.763   2.378   0.399
  627TIP3   OH2 1802   6.820   2.093   1.135
  627TIP3    H1 1803   6.870   2.018   1.105
  627TIP3    H2 1804   6.856   2.112   1.222
  628TIP3   OH2 1805   7.091   1.916   0.766
  628TIP3    H1 1806   7.001   1.939   0.788
  628TIP3    H2 1807   7.085   1.877   0.679
  629TIP3   OH2 1808   7.746   2.359   0.896
  629TIP3    H1 1809   7.810   2.318   0.837
  629TIP3    H2 1810   7.762   2.317   0.981
  630TIP3   OH2 1811   7.019   1.868   1.136
  630TIP3    H1 1812   7.054   1.852   1.224
  630TIP3    H2 1813   7.096   1.888   1.083
  631TIP3   OH2 1814   7.579   1.828   1.011
  631TIP3    H1 1815   7.633   1.812   1.089
  631TIP3    H2 1816   7.498   1.781   1.029
  632TIP3   OH2 1817   6.884   1.624   1.312
  632TIP3    H1 1818   6.879   1.569   1.233
  632TIP3    H2 1819   6.937   1.573   1.373
  633TIP3   OH2 1820   0.219   6.903   7.249
  633TIP3    H1 1821   0.168   6.844   7.193
  633TIP3    H2 1822   0.279   6.845   7.296
  634TIP3   OH2 1823   6.322   2.538   0.132
  634TIP3    H1 1824   6.316   2.474   0.203
  634TIP3    H2 1825   6.376   2.609   0.168
  635TIP3   OH2 1826   6.514   1.972   0.468
  635TIP3    H1 1827   6.530   1.922   0.388
  635TIP3    H2 1828   6.601   1.996   0.500
  636TIP3   OH2 1829   6.621   1.654   1.225
  636TIP3    H1 1830   6.710   1.676   1.249
  636TIP3    H2 1831   6.609   1.565   1.256
  637TIP3   OH2 1832   6.867   2.717   0.575
  637TIP3    H1 1833   6.845   2.797   0.528
  637TIP3    H2 1834   6.904   2.659   0.507
  638TIP3   OH2 1835   7.326   2.987   0.713
  638TIP3    H1 1836   7.368   2.964   0.796
  638TIP3    H2 1837   7.399   2.999   0.652
  639TIP3   OH2 1838   7.483   3.277   0.552
  639TIP3    H1 1839   7.518   3.194   0.519
  639TIP3    H2 1840   7.519   3.285   0.640
  640TIP3   OH2 1841   6.591   2.943   0.571
  640TIP3    H1 1842   6.499   2.957   0.550
  640TIP3    H2 1843   6.608   3.002   0.645
  641TIP3   OH2 1844   6.814   2.935   0.415
  641TIP3    H1 1845   6.730   2.943   0.461
  641TIP3    H2 1846   6.793   2.955   0.324
  642TIP3   OH2 1847   7.273   3.047   0.203
  642TIP3    H1 1848   7.213   3.056   0.129
  642TIP3    H2 1849   7.252   3.121   0.260
  643TIP3   OH2 1850   7.465   2.840   0.142
  643TIP3    H1 1851   7.378   2.880   0.140
  643TIP3    H2 1852   7.517   2.898   0.198
  644TIP3   OH2 1853   6.506   2.712   0.254
  644TIP3    H1 1854   6.534   2.687   0.342
  644TIP3    H2 1855   6.573   2.675   0.197
  645TIP3   OH2 1856   6.683   2.573   0.084
  645TIP3    H1 1857   6.674   2.479   0.097
  645TIP3    H2 1858   6.759   2.582   0.026
  646TIP3   OH2 1859   6.946   2.780   0.102
  646TIP3    H1 1860   6.951   2.684   0.107
  646TIP3    H2 1861   6.988   2.810   0.182
  647TIP3   OH2 1862   7.979   2.897   0.603
  647TIP3    H1 1863   7.905   2.910   0.544
  647TIP3    H2 1864   7.996   2.984   0.640
  648TIP3   OH2 1865   0.452   3.315   2.104
  648TIP3    H1 1866   0.423   3.246   2.044
  648TIP3    H2 1867   0.439   3.396   2.055
  649TIP3   OH2 1868   0.716   3.654   2.142
  649TIP3    H1 1869   0.717   3.558   2.151
  649TIP3    H2 1870   0.636   3.682   2.187
  650TIP3   OH2 1871   0.614   2.761   2.404
  650TIP3    H1 1872   0.540   2.821   2.399
  650TIP3    H2 1873   0.575   2.674   2.414
  651TIP3   OH2 1874   0.431   4.006   2.228
  651TIP3    H1 1875   0.426   4.023   2.134
  651TIP3    H2 1876   0.509   4.053   2.257
  652TIP3   OH2 1877   0.077   3.509   2.171
  652TIP3    H1 1878  -0.012   3.474   2.181
  652TIP3    H2 1879   0.109   3.520   2.261
  653TIP3   OH2 1880   0.718   3.367   2.150
  653TIP3    H1 1881   0.624   3.356   2.156
  653TIP3    H2 1882   0.741   3.336   2.062
  654TIP3   OH2 1883   0.234   3.703   2.061
  654TIP3    H1 1884   0.168   3.637   2.081
  654TIP3    H2 1885   0.202   3.747   1.983
  655TIP3   OH2 1886   8.479   3.560   2.589
  655TIP3    H1 1887   8.556   3.504   2.596
  655TIP3    H2 1888   8.503   3.641   2.634
  656TIP3   OH2 1889   0.158   3.542   2.431
  656TIP3    H1 1890   0.148   3.478   2.501
  656TIP3    H2 1891   0.234   3.594   2.456
  657TIP3   OH2 1892   0.300   3.194   2.311
  657TIP3    H1 1893   0.358   3.247   2.257
  657TIP3    H2 1894   0.226   3.251   2.331
  658TIP3   OH2 1895   0.129   3.107   2.604
  658TIP3    H1 1896   0.193   3.063   2.547
  658TIP3    H2 1897   0.123   3.051   2.681
  659TIP3   OH2 1898   0.371   2.799   2.664
  659TIP3    H1 1899   0.410   2.713   2.673
  659TIP3    H2 1900   0.418   2.840   2.591
  660TIP3   OH2 1901   0.447   2.985   2.410
  660TIP3    H1 1902   0.377   3.041   2.377
  660TIP3    H2 1903   0.526   3.019   2.368
  661TIP3   OH2 1904   0.481   2.543   2.720
  661TIP3    H1 1905   0.445   2.455   2.719
  661TIP3    H2 1906   0.467   2.574   2.810
  662TIP3   OH2 1907   0.518   3.734   1.652
  662TIP3    H1 1908   0.548   3.764   1.737
  662TIP3    H2 1909   0.579   3.774   1.589
  663TIP3   OH2 1910   0.572   3.767   1.925
  663TIP3    H1 1911   0.524   3.684   1.931
  663TIP3    H2 1912   0.648   3.755   1.982
  664TIP3   OH2 1913   0.584   3.464   2.474
  664TIP3    H1 1914   0.521   3.463   2.546
  664TIP3    H2 1915   0.635   3.544   2.487
  665TIP3   OH2 1916   0.416   3.534   1.940
  665TIP3    H1 1917   0.350   3.589   1.982
  665TIP3    H2 1918   0.389   3.530   1.848
  666TIP3   OH2 1919   0.669   3.092   2.285
  666TIP3    H1 1920   0.730   3.020   2.272
  666TIP3    H2 1921   0.694   3.157   2.219
  667TIP3   OH2 1922   0.828   2.864   2.265
  667TIP3    H1 1923   0.753   2.820   2.305
  667TIP3    H2 1924   0.905   2.828   2.309
  668TIP3   OH2 1925   1.074   2.384   2.581
  668TIP3    H1 1926   1.114   2.301   2.604
  668TIP3    H2 1927   1.028   2.367   2.499
  669TIP3   OH2 1928   0.870   2.478   2.385
  669TIP3    H1 1929   0.823   2.492   2.467
  669TIP3    H2 1930   0.817   2.415   2.337
  670TIP3   OH2 1931   8.725   3.696   2.301
  670TIP3    H1 1932   8.764   3.679   2.387
  670TIP3    H2 1933   8.793   3.743   2.253
  671TIP3   OH2 1934   0.029   3.855   2.199
  671TIP3    H1 1935   0.103   3.809   2.161
  671TIP3    H2 1936   0.067   3.913   2.264
  672TIP3   OH2 1937   0.226   3.852   1.821
  672TIP3    H1 1938   0.197   3.939   1.793
  672TIP3    H2 1939   0.266   3.814   1.743
  673TIP3   OH2 1940   0.464   3.731   2.231
  673TIP3    H1 1941   0.385   3.709   2.182
  673TIP3    H2 1942   0.458   3.826   2.244
  674TIP3   OH2 1943   1.705   3.205   0.972
  674TIP3    H1 1944   1.633   3.257   0.937
  674TIP3    H2 1945   1.724   3.246   1.057
  675TIP3   OH2 1946   1.783   3.184   1.429
  675TIP3    H1 1947   1.758   3.128   1.502
  675TIP3    H2 1948   1.727   3.156   1.356
  676TIP3   OH2 1949   1.019   2.984   1.820
  676TIP3    H1 1950   1.052   2.909   1.869
  676TIP3    H2 1951   1.075   3.057   1.845
  677TIP3   OH2 1952   2.007   3.422   1.122
  677TIP3    H1 1953   2.084   3.366   1.121
  677TIP3    H2 1954   2.034   3.500   1.171
  678TIP3   OH2 1955   1.044   3.522   1.486
  678TIP3    H1 1956   1.047   3.515   1.582
  678TIP3    H2 1957   1.132   3.496   1.457
  679TIP3   OH2 1958   1.587   3.817   1.165
  679TIP3    H1 1959   1.656   3.847   1.106
  679TIP3    H2 1960   1.621   3.833   1.253
  680TIP3   OH2 1961   1.565   3.465   1.413
  680TIP3    H1 1962   1.585   3.508   1.330
  680TIP3    H2 1963   1.644   3.476   1.465
  681TIP3   OH2 1964   2.659   2.725   1.384
  681TIP3    H1 1965   2.696   2.780   1.453
  681TIP3    H2 1966   2.565   2.746   1.386
  682TIP3   OH2 1967   2.126   2.904   1.499
  682TIP3    H1 1968   2.131   2.812   1.521
  682TIP3    H2 1969   2.033   2.926   1.505
  683TIP3   OH2 1970   2.676   2.880   1.608
  683TIP3    H1 1971   2.583   2.900   1.603
  683TIP3    H2 1972   2.704   2.919   1.691
  684TIP3   OH2 1973   1.502   3.364   0.862
  684TIP3    H1 1974   1.568   3.346   0.795
  684TIP3    H2 1975   1.510   3.458   0.878
  685TIP3   OH2 1976   1.382   3.291   1.694
  685TIP3    H1 1977   1.314   3.357   1.704
  685TIP3    H2 1978   1.410   3.299   1.603
  686TIP3   OH2 1979   2.255   2.562   1.260
  686TIP3    H1 1980   2.188   2.617   1.301
  686TIP3    H2 1981   2.306   2.623   1.207
  687TIP3   OH2 1982   1.195   3.482   1.741
  687TIP3    H1 1983   1.196   3.577   1.727
  687TIP3    H2 1984   1.122   3.468   1.801
  688TIP3   OH2 1985   2.051   3.661   1.250
  688TIP3    H1 1986   1.961   3.651   1.281
  688TIP3    H2 1987   2.053   3.748   1.210
  689TIP3   OH2 1988   2.336   2.572   1.640
  689TIP3    H1 1989   2.252   2.599   1.603
  689TIP3    H2 1990   2.392   2.557   1.564
  690TIP3   OH2 1991   1.817   3.654   1.040
  690TIP3    H1 1992   1.803   3.633   0.948
  690TIP3    H2 1993   1.813   3.750   1.043
  691TIP3   OH2 1994   1.963   3.367   0.856
  691TIP3    H1 1995   1.870   3.347   0.848
  691TIP3    H2 1996   1.975   3.390   0.948
  692TIP3   OH2 1997   2.354   3.238   1.392
  692TIP3    H1 1998   2.350   3.328   1.361
  692TIP3    H2 1999   2.412   3.194   1.330
  693TIP3   OH2 2000   1.857   3.019   0.849
  693TIP3    H1 2001   1.802   3.091   0.882
  693TIP3    H2 2002   1.933   3.019   0.906
  694TIP3   OH2 2003   2.166   3.187   1.655
  694TIP3    H1 2004   2.191   3.252   1.721
  694TIP3    H2 2005   2.085   3.149   1.689
  695TIP3   OH2 2006   1.291   3.466   1.400
  695TIP3    H1 2007   1.268   3.443   1.309
  695TIP3    H2 2008   1.386   3.475   1.400
  696TIP3   OH2 2009   1.263   3.054   1.633
  696TIP3    H1 2010   1.209   3.084   1.560
  696TIP3    H2 2011   1.299   3.135   1.671
  697TIP3   OH2 2012   1.803   3.643   1.363
  697TIP3    H1 2013   1.788   3.734   1.389
  697TIP3    H2 2014   1.822   3.598   1.445
  698TIP3   OH2 2015   1.427   3.549   1.897
  698TIP3    H1 2016   1.371   3.609   1.947
  698TIP3    H2 2017   1.366   3.498   1.844
  699TIP3   OH2 2018   1.161   3.149   1.997
  699TIP3    H1 2019   1.172   3.237   2.033
  699TIP3    H2 2020   1.080   3.117   2.036
  700TIP3   OH2 2021   1.268   3.511   0.884
  700TIP3    H1 2022   1.287   3.518   0.977
  700TIP3    H2 2023   1.229   3.596   0.862
  701TIP3   OH2 2024   1.224   3.713   1.983
  701TIP3    H1 2025   1.200   3.742   1.895
  701TIP3    H2 2026   1.141   3.704   2.029
  702TIP3   OH2 2027   2.099   3.478   0.052
  702TIP3    H1 2028   2.087   3.573   0.059
  702TIP3    H2 2029   2.190   3.464   0.080
  703TIP3   OH2 2030   0.807   3.248   1.914
  703TIP3    H1 2031   0.796   3.211   1.827
  703TIP3    H2 2032   0.844   3.176   1.966
  704TIP3   OH2 2033   0.604   3.472   1.594
  704TIP3    H1 2034   0.698   3.489   1.582
  704TIP3    H2 2035   0.567   3.558   1.614
  705TIP3   OH2 2036   2.520   3.944   1.616
  705TIP3    H1 2037   2.524   3.848   1.618
  705TIP3    H2 2038   2.439   3.965   1.662
  706TIP3   OH2 2039   1.611   3.695   1.753
  706TIP3    H1 2040   1.608   3.784   1.788
  706TIP3    H2 2041   1.546   3.647   1.805
  707TIP3   OH2 2042   1.357   3.842   0.699
  707TIP3    H1 2043   1.264   3.824   0.683
  707TIP3    H2 2044   1.361   3.873   0.789
  708TIP3   OH2 2045   1.641   3.812   0.290
  708TIP3    H1 2046   1.610   3.813   0.200
  708TIP3    H2 2047   1.562   3.801   0.343
  709TIP3   OH2 2048   1.631   3.890   0.714
  709TIP3    H1 2049   1.538   3.893   0.693
  709TIP3    H2 2050   1.665   3.819   0.660
  710TIP3   OH2 2051   2.390   3.039   1.935
  710TIP3    H1 2052   2.306   3.009   1.901
  710TIP3    H2 2053   2.434   2.960   1.964
  711TIP3   OH2 2054   0.980   3.464   1.907
  711TIP3    H1 2055   1.032   3.459   1.988
  711TIP3    H2 2056   0.920   3.390   1.914
  712TIP3   OH2 2057   1.922   2.379   1.888
  712TIP3    H1 2058   1.994   2.358   1.948
  712TIP3    H2 2059   1.843   2.366   1.941
  713TIP3   OH2 2060   2.170   2.905   1.838
  713TIP3    H1 2061   2.127   2.858   1.909
  713TIP3    H2 2062   2.099   2.948   1.791
  714TIP3   OH2 2063   1.384   2.841   1.736
  714TIP3    H1 2064   1.324   2.803   1.799
  714TIP3    H2 2065   1.336   2.915   1.699
  715TIP3   OH2 2066   1.893   3.012   2.030
  715TIP3    H1 2067   1.862   2.948   2.095
  715TIP3    H2 2068   1.983   3.031   2.057
  716TIP3   OH2 2069   1.628   2.725   1.152
  716TIP3    H1 2070   1.694   2.741   1.085
  716TIP3    H2 2071   1.632   2.631   1.168
  717TIP3   OH2 2072   1.178   2.787   1.944
  717TIP3    H1 2073   1.247   2.837   1.987
  717TIP3    H2 2074   1.170   2.708   1.996
  718TIP3   OH2 2075   1.952   3.037   1.728
  718TIP3    H1 2076   1.903   2.990   1.660
  718TIP3    H2 2077   1.893   3.037   1.804
  719TIP3   OH2 2078   2.087   2.626   1.540
  719TIP3    H1 2079   2.035   2.630   1.621
  719TIP3    H2 2080   2.087   2.533   1.516
  720TIP3   OH2 2081   2.221   4.262   1.707
  720TIP3    H1 2082   2.219   4.281   1.613
  720TIP3    H2 2083   2.299   4.308   1.739
  721TIP3   OH2 2084   1.155   3.393   2.128
  721TIP3    H1 2085   1.238   3.403   2.174
  721TIP3    H2 2086   1.088   3.408   2.195
  722TIP3   OH2 2087   1.578   2.805   1.408
  722TIP3    H1 2088   1.595   2.775   1.318
  722TIP3    H2 2089   1.624   2.741   1.463
  723TIP3   OH2 2090   1.599   2.693   1.690
  723TIP3    H1 2091   1.523   2.748   1.704
  723TIP3    H2 2092   1.671   2.740   1.730
  724TIP3   OH2 2093   1.763   3.448   1.813
  724TIP3    H1 2094   1.802   3.449   1.900
  724TIP3    H2 2095   1.717   3.532   1.807
  725TIP3   OH2 2096   0.906   3.077   2.104
  725TIP3    H1 2097   0.946   3.115   2.183
  725TIP3    H2 2098   0.885   2.987   2.128
  726TIP3   OH2 2099   1.685   3.191   2.077
  726TIP3    H1 2100   1.627   3.169   2.003
  726TIP3    H2 2101   1.765   3.143   2.058
  727TIP3   OH2 2102   1.857   3.748   1.636
  727TIP3    H1 2103   1.769   3.723   1.664
  727TIP3    H2 2104   1.908   3.750   1.717
  728TIP3   OH2 2105   2.522   3.661   1.631
  728TIP3    H1 2106   2.428   3.655   1.646
  728TIP3    H2 2107   2.536   3.613   1.550
  729TIP3   OH2 2108   1.903   3.468   0.549
  729TIP3    H1 2109   1.990   3.461   0.589
  729TIP3    H2 2110   1.906   3.550   0.499
  730TIP3   OH2 2111   2.065   3.157   1.364
  730TIP3    H1 2112   1.971   3.166   1.379
  730TIP3    H2 2113   2.079   3.194   1.277
  731TIP3   OH2 2114   1.427   3.783   1.556
  731TIP3    H1 2115   1.462   3.860   1.511
  731TIP3    H2 2116   1.502   3.748   1.605
  732TIP3   OH2 2117   1.809   3.434   1.544
  732TIP3    H1 2118   1.805   3.434   1.640
  732TIP3    H2 2119   1.817   3.342   1.520
  733TIP3   OH2 2120   2.037   3.936   1.555
  733TIP3    H1 2121   1.967   3.873   1.570
  733TIP3    H2 2122   2.005   3.991   1.483
  734TIP3   OH2 2123   2.035   3.739   0.086
  734TIP3    H1 2124   2.101   3.805   0.065
  734TIP3    H2 2125   1.974   3.784   0.146
  735TIP3   OH2 2126   1.134   2.585   2.136
  735TIP3    H1 2127   1.051   2.571   2.180
  735TIP3    H2 2128   1.190   2.513   2.166
  736TIP3   OH2 2129   1.863   3.183   0.549
  736TIP3    H1 2130   1.911   3.121   0.494
  736TIP3    H2 2131   1.902   3.268   0.529
  737TIP3   OH2 2132   0.868   3.659   1.724
  737TIP3    H1 2133   0.882   3.587   1.785
  737TIP3    H2 2134   0.920   3.731   1.759
  738TIP3   OH2 2135   1.978   2.629   1.796
  738TIP3    H1 2136   2.018   2.670   1.873
  738TIP3    H2 2137   1.960   2.539   1.824
  739TIP3   OH2 2138   1.782   2.827   1.838
  739TIP3    H1 2139   1.807   2.876   1.917
  739TIP3    H2 2140   1.852   2.763   1.827
  740TIP3   OH2 2141   2.413   2.777   1.802
  740TIP3    H1 2142   2.324   2.808   1.821
  740TIP3    H2 2143   2.399   2.697   1.751
  741TIP3   OH2 2144   2.069   3.915   1.148
  741TIP3    H1 2145   2.032   3.976   1.084
  741TIP3    H2 2146   2.163   3.920   1.134
  742TIP3   OH2 2147   0.848   3.970   2.118
  742TIP3    H1 2148   0.926   3.980   2.172
  742TIP3    H2 2149   0.837   3.876   2.108
  743TIP3   OH2 2150   1.304   3.907   2.170
  743TIP3    H1 2151   1.398   3.917   2.185
  743TIP3    H2 2152   1.297   3.836   2.106
  744TIP3   OH2 2153   1.984   3.774   1.872
  744TIP3    H1 2154   1.955   3.732   1.953
  744TIP3    H2 2155   2.037   3.848   1.902
  745TIP3   OH2 2156   0.943   3.401   2.309
  745TIP3    H1 2157   0.968   3.310   2.328
  745TIP3    H2 2158   0.858   3.393   2.265
  746TIP3   OH2 2159   1.585   3.450   2.101
  746TIP3    H1 2160   1.544   3.468   2.016
  746TIP3    H2 2161   1.629   3.366   2.088
  747TIP3   OH2 2162   1.045   3.146   2.326
  747TIP3    H1 2163   1.090   3.068   2.293
  747TIP3    H2 2164   1.085   3.161   2.412
  748TIP3   OH2 2165   1.375   2.971   2.009
  748TIP3    H1 2166   1.303   3.032   2.020
  748TIP3    H2 2167   1.439   3.018   1.956
  749TIP3   OH2 2168   1.963   3.378   2.107
  749TIP3    H1 2169   2.058   3.377   2.116
  749TIP3    H2 2170   1.932   3.314   2.171
  750TIP3   OH2 2171   1.541   2.760   2.093
  750TIP3    H1 2172   1.532   2.684   2.036
  750TIP3    H2 2173   1.493   2.830   2.048
  751TIP3   OH2 2174   1.517   2.547   1.908
  751TIP3    H1 2175   1.554   2.591   1.832
  751TIP3    H2 2176   1.446   2.493   1.873
  752TIP3   OH2 2177   1.540   3.129   1.853
  752TIP3    H1 2178   1.588   3.092   1.779
  752TIP3    H2 2179   1.485   3.198   1.815
  753TIP3   OH2 2180   2.147   3.038   2.149
  753TIP3    H1 2181   2.173   2.974   2.216
  753TIP3    H2 2182   2.229   3.074   2.117
  754TIP3   OH2 2183   2.235   3.372   1.847
  754TIP3    H1 2184   2.183   3.452   1.843
  754TIP3    H2 2185   2.323   3.402   1.872
  755TIP3   OH2 2186   1.407   2.843   2.323
  755TIP3    H1 2187   1.362   2.766   2.357
  755TIP3    H2 2188   1.453   2.812   2.245
  756TIP3   OH2 2189   1.671   2.332   1.987
  756TIP3    H1 2190   1.613   2.405   1.967
  756TIP3    H2 2191   1.634   2.257   1.941
  757TIP3   OH2 2192   1.806   2.800   2.180
  757TIP3    H1 2193   1.804   2.788   2.274
  757TIP3    H2 2194   1.717   2.780   2.151
  758TIP3   OH2 2195   2.047   2.747   2.031
  758TIP3    H1 2196   1.975   2.752   2.094
  758TIP3    H2 2197   2.124   2.728   2.084
  759TIP3   OH2 2198   2.280   2.706   2.173
  759TIP3    H1 2199   2.292   2.614   2.196
  759TIP3    H2 2200   2.264   2.750   2.256
  760TIP3   OH2 2201   1.269   2.627   2.422
  760TIP3    H1 2202   1.264   2.543   2.377
  760TIP3    H2 2203   1.311   2.608   2.505
  761TIP3   OH2 2204   1.732   2.311   2.253
  761TIP3    H1 2205   1.799   2.243   2.251
  761TIP3    H2 2206   1.705   2.320   2.161
  762TIP3   OH2 2207   1.828   2.531   2.386
  762TIP3    H1 2208   1.796   2.456   2.337
  762TIP3    H2 2209   1.753   2.591   2.389
  763TIP3   OH2 2210   2.336   3.962   1.123
  763TIP3    H1 2211   2.352   3.990   1.213
  763TIP3    H2 2212   2.373   4.032   1.069
  764TIP3   OH2 2213   2.348   4.020   1.395
  764TIP3    H1 2214   2.305   3.935   1.406
  764TIP3    H2 2215   2.423   4.017   1.454
  765TIP3   OH2 2216   2.392   3.695   1.943
  765TIP3    H1 2217   2.324   3.705   2.010
  765TIP3    H2 2218   2.440   3.778   1.945
  766TIP3   OH2 2219   2.233   3.195   0.516
  766TIP3    H1 2220   2.196   3.283   0.509
  766TIP3    H2 2221   2.171   3.147   0.572
  767TIP3   OH2 2222   2.368   3.462   1.221
  767TIP3    H1 2223   2.457   3.432   1.204
  767TIP3    H2 2224   2.367   3.553   1.189
  768TIP3   OH2 2225   2.231   3.774   1.436
  768TIP3    H1 2226   2.163   3.815   1.489
  768TIP3    H2 2227   2.183   3.716   1.376
  769TIP3   OH2 2228   2.268   2.925   0.453
  769TIP3    H1 2229   2.242   2.891   0.367
  769TIP3    H2 2230   2.258   3.020   0.444
  770TIP3   OH2 2231   2.576   3.137   1.754
  770TIP3    H1 2232   2.509   3.124   1.821
  770TIP3    H2 2233   2.655   3.097   1.791
  771TIP3   OH2 2234   2.410   2.821   1.396
  771TIP3    H1 2235   2.410   2.878   1.319
  771TIP3    H2 2236   2.390   2.879   1.469
  772TIP3   OH2 2237   2.386   3.018   1.584
  772TIP3    H1 2238   2.338   2.986   1.660
  772TIP3    H2 2239   2.452   3.077   1.620
  773TIP3   OH2 2240   1.010   2.711   2.409
  773TIP3    H1 2241   1.101   2.682   2.412
  773TIP3    H2 2242   0.959   2.630   2.405
  774TIP3   OH2 2243   2.830   2.587   2.084
  774TIP3    H1 2244   2.897   2.528   2.049
  774TIP3    H2 2245   2.798   2.636   2.008
  775TIP3   OH2 2246   2.682   2.716   1.891
  775TIP3    H1 2247   2.599   2.752   1.921
  775TIP3    H2 2248   2.658   2.640   1.838
  776TIP3   OH2 2249   1.920   3.974   0.745
  776TIP3    H1 2250   1.945   3.954   0.655
  776TIP3    H2 2251   2.002   3.996   0.789
  777TIP3   OH2 2252   0.990   3.694   2.132
  777TIP3    H1 2253   0.898   3.669   2.133
  777TIP3    H2 2254   1.014   3.702   2.224
  778TIP3   OH2 2255   1.197   3.753   1.705
  778TIP3    H1 2256   1.150   3.827   1.667
  778TIP3    H2 2257   1.285   3.759   1.666
  779TIP3   OH2 2258   1.603   3.964   1.823
  779TIP3    H1 2259   1.641   3.949   1.909
  779TIP3    H2 2260   1.668   4.015   1.776
  780TIP3   OH2 2261   1.800   4.110   1.694
  780TIP3    H1 2262   1.868   4.051   1.663
  780TIP3    H2 2263   1.846   4.173   1.749
  781TIP3   OH2 2264   2.598   2.467   1.794
  781TIP3    H1 2265   2.509   2.437   1.777
  781TIP3    H2 2266   2.652   2.387   1.792
  782TIP3   OH2 2267   0.864   4.017   1.723
  782TIP3    H1 2268   0.771   4.021   1.704
  782TIP3    H2 2269   0.877   4.077   1.796
  783TIP3   OH2 2270   1.087   3.968   1.579
  783TIP3    H1 2271   1.008   3.986   1.630
  783TIP3    H2 2272   1.064   3.991   1.489
  784TIP3   OH2 2273   1.491   4.002   1.396
  784TIP3    H1 2274   1.419   4.020   1.336
  784TIP3    H2 2275   1.506   4.085   1.441
  785TIP3   OH2 2276   1.751   3.915   1.377
  785TIP3    H1 2277   1.669   3.960   1.397
  785TIP3    H2 2278   1.814   3.985   1.364
  786TIP3   OH2 2279   1.963   4.089   1.333
  786TIP3    H1 2280   1.971   4.176   1.293
  786TIP3    H2 2281   2.001   4.030   1.268
  787TIP3   OH2 2282   0.748   3.792   1.502
  787TIP3    H1 2283   0.792   3.764   1.583
  787TIP3    H2 2284   0.788   3.739   1.433
  788TIP3   OH2 2285   0.876   3.649   1.313
  788TIP3    H1 2286   0.933   3.600   1.371
  788TIP3    H2 2287   0.922   3.650   1.229
  789TIP3   OH2 2288   1.227   3.766   1.369
  789TIP3    H1 2289   1.155   3.719   1.411
  789TIP3    H2 2290   1.296   3.767   1.434
  790TIP3   OH2 2291   2.293   2.291   1.251
  790TIP3    H1 2292   2.323   2.278   1.161
  790TIP3    H2 2293   2.257   2.379   1.252
  791TIP3   OH2 2294   2.404   2.376   1.009
  791TIP3    H1 2295   2.439   2.304   0.956
  791TIP3    H2 2296   2.475   2.396   1.071
  792TIP3   OH2 2297   2.046   3.912   0.506
  792TIP3    H1 2298   2.070   3.838   0.562
  792TIP3    H2 2299   2.078   3.888   0.419
  793TIP3   OH2 2300   1.265   2.381   2.296
  793TIP3    H1 2301   1.228   2.303   2.337
  793TIP3    H2 2302   1.357   2.380   2.320
  794TIP3   OH2 2303   1.515   2.378   2.415
  794TIP3    H1 2304   1.594   2.351   2.367
  794TIP3    H2 2305   1.500   2.308   2.478
  795TIP3   OH2 2306   2.339   2.438   2.210
  795TIP3    H1 2307   2.352   2.411   2.301
  795TIP3    H2 2308   2.426   2.437   2.171
  796TIP3   OH2 2309   2.265   3.990   1.712
  796TIP3    H1 2310   2.187   3.959   1.667
  796TIP3    H2 2311   2.250   4.084   1.726
  797TIP3   OH2 2312   3.529   3.375   0.465
  797TIP3    H1 2313   3.496   3.460   0.435
  797TIP3    H2 2314   3.461   3.313   0.437
  798TIP3   OH2 2315   3.542   3.366   0.881
  798TIP3    H1 2316   3.595   3.354   0.960
  798TIP3    H2 2317   3.509   3.279   0.860
  799TIP3   OH2 2318   2.847   3.208   1.250
  799TIP3    H1 2319   2.895   3.163   1.320
  799TIP3    H2 2320   2.916   3.243   1.193
  800TIP3   OH2 2321   3.796   3.675   0.548
  800TIP3    H1 2322   3.787   3.607   0.614
  800TIP3    H2 2323   3.818   3.754   0.597
  801TIP3   OH2 2324   2.832   3.667   0.922
  801TIP3    H1 2325   2.817   3.573   0.937
  801TIP3    H2 2326   2.927   3.674   0.909
  802TIP3   OH2 2327   2.497   2.918   0.672
  802TIP3    H1 2328   2.452   2.991   0.713
  802TIP3    H2 2329   2.427   2.854   0.654
  803TIP3   OH2 2330   2.527   3.248   0.952
  803TIP3    H1 2331   2.479   3.171   0.980
  803TIP3    H2 2332   2.598   3.214   0.898
  804TIP3   OH2 2333   3.457   4.098   0.564
  804TIP3    H1 2334   3.485   4.032   0.501
  804TIP3    H2 2335   3.461   4.053   0.649
  805TIP3   OH2 2336   3.337   3.577   0.891
  805TIP3    H1 2337   3.383   3.499   0.862
  805TIP3    H2 2338   3.406   3.637   0.920
  806TIP3   OH2 2339   4.367   2.903   0.897
  806TIP3    H1 2340   4.385   2.988   0.937
  806TIP3    H2 2341   4.394   2.913   0.806
  807TIP3   OH2 2342   3.766   3.075   0.927
  807TIP3    H1 2343   3.806   2.991   0.950
  807TIP3    H2 2344   3.723   3.059   0.843
  808TIP3   OH2 2345   3.192   2.821   0.992
  808TIP3    H1 2346   3.181   2.889   1.058
  808TIP3    H2 2347   3.104   2.805   0.959
  809TIP3   OH2 2348   3.818   2.855   0.523
  809TIP3    H1 2349   3.882   2.836   0.592
  809TIP3    H2 2350   3.870   2.878   0.447
  810TIP3   OH2 2351   2.680   2.867   1.006
  810TIP3    H1 2352   2.685   2.960   0.982
  810TIP3    H2 2353   2.695   2.820   0.925
  811TIP3   OH2 2354   3.203   3.188   0.858
  811TIP3    H1 2355   3.296   3.163   0.862
  811TIP3    H2 2356   3.159   3.113   0.819
  812TIP3   OH2 2357   4.426   3.125   1.061
  812TIP3    H1 2358   4.337   3.159   1.058
  812TIP3    H2 2359   4.462   3.158   1.144
  813TIP3   OH2 2360   3.093   2.732   1.361
  813TIP3    H1 2361   3.024   2.750   1.297
  813TIP3    H2 2362   3.052   2.744   1.446
  814TIP3   OH2 2363   3.432   3.592   0.321
  814TIP3    H1 2364   3.400   3.571   0.233
  814TIP3    H2 2365   3.378   3.665   0.350
  815TIP3   OH2 2366   3.184   3.513   1.116
  815TIP3    H1 2367   3.126   3.585   1.143
  815TIP3    H2 2368   3.230   3.547   1.039
  816TIP3   OH2 2369   3.981   2.848   0.742
  816TIP3    H1 2370   3.939   2.828   0.826
  816TIP3    H2 2371   4.032   2.928   0.759
  817TIP3   OH2 2372   2.918   2.818   1.169
  817TIP3    H1 2373   2.972   2.897   1.176
  817TIP3    H2 2374   2.930   2.789   1.079
  818TIP3   OH2 2375   3.015   3.713   1.204
  818TIP3    H1 2376   3.002   3.802   1.173
  818TIP3    H2 2377   2.936   3.693   1.254
  819TIP3   OH2 2378   2.432   3.464   0.679
  819TIP3    H1 2379   2.443   3.434   0.589
  819TIP3    H2 2380   2.521   3.460   0.716
  820TIP3   OH2 2381   3.832   3.921   0.690
  820TIP3    H1 2382   3.745   3.912   0.729
  820TIP3    H2 2383   3.830   4.005   0.645
  821TIP3   OH2 2384   4.167   2.795   1.067
  821TIP3    H1 2385   4.081   2.815   1.030
  821TIP3    H2 2386   4.229   2.822   1.000
  822TIP3   OH2 2387   3.448   2.441   1.108
  822TIP3    H1 2388   3.432   2.353   1.143
  822TIP3    H2 2389   3.376   2.494   1.143
  823TIP3   OH2 2390   3.545   3.942   0.351
  823TIP3    H1 2391   3.598   3.863   0.338
  823TIP3    H2 2392   3.602   4.014   0.325
  824TIP3   OH2 2393   3.685   3.713   0.297
  824TIP3    H1 2394   3.610   3.654   0.302
  824TIP3    H2 2395   3.736   3.695   0.376
  825TIP3   OH2 2396   4.071   3.806   1.035
  825TIP3    H1 2397   4.052   3.731   0.978
  825TIP3    H2 2398   4.056   3.883   0.980
  826TIP3   OH2 2399   3.371   3.205   0.291
  826TIP3    H1 2400   3.305   3.272   0.275
  826TIP3    H2 2401   3.432   3.214   0.218
  827TIP3   OH2 2402   6.318   7.283   7.264
  827TIP3    H1 2403   6.405   7.306   7.297
  827TIP3    H2 2404   6.307   7.337   7.186
  828TIP3   OH2 2405   4.248   3.468   0.903
  828TIP3    H1 2406   4.163   3.513   0.901
  828TIP3    H2 2407   4.283   3.479   0.815
  829TIP3   OH2 2408   3.734   3.327   0.289
  829TIP3    H1 2409   3.676   3.347   0.363
  829TIP3    H2 2410   3.815   3.297   0.330
  830TIP3   OH2 2411   3.949   3.328   1.217
  830TIP3    H1 2412   3.945   3.412   1.263
  830TIP3    H2 2413   3.867   3.325   1.167
  831TIP3   OH2 2414   3.026   3.333   0.705
  831TIP3    H1 2415   2.989   3.252   0.671
  831TIP3    H2 2416   3.102   3.306   0.756
  832TIP3   OH2 2417   3.091   3.705   0.818
  832TIP3    H1 2418   3.067   3.687   0.727
  832TIP3    H2 2419   3.175   3.661   0.830
  833TIP3   OH2 2420   3.062   3.274   1.074
  833TIP3    H1 2421   3.113   3.247   0.997
  833TIP3    H2 2422   3.101   3.357   1.101
  834TIP3   OH2 2423   3.593   3.910   0.821
  834TIP3    H1 2424   3.581   3.992   0.871
  834TIP3    H2 2425   3.577   3.841   0.885
  835TIP3   OH2 2426   3.219   3.807   1.368
  835TIP3    H1 2427   3.160   3.866   1.415
  835TIP3    H2 2428   3.161   3.756   1.311
  836TIP3   OH2 2429   3.582   3.199   0.104
  836TIP3    H1 2430   3.639   3.248   0.163
  836TIP3    H2 2431   3.602   3.235   0.017
  837TIP3   OH2 2432   2.984   3.377   1.494
  837TIP3    H1 2433   2.984   3.468   1.522
  837TIP3    H2 2434   2.892   3.352   1.490
  838TIP3   OH2 2435   3.291   3.830   0.350
  838TIP3    H1 2436   3.374   3.877   0.361
  838TIP3    H2 2437   3.235   3.890   0.302
  839TIP3   OH2 2438   3.013   3.965   1.455
  839TIP3    H1 2439   2.982   3.979   1.365
  839TIP3    H2 2440   2.933   3.947   1.505
  840TIP3   OH2 2441   4.141   2.458   0.188
  840TIP3    H1 2442   4.054   2.420   0.175
  840TIP3    H2 2443   4.159   2.506   0.108
  841TIP3   OH2 2444   2.766   3.042   0.520
  841TIP3    H1 2445   2.736   3.120   0.473
  841TIP3    H2 2446   2.710   2.972   0.487
  842TIP3   OH2 2447   6.807   7.969   6.993
  842TIP3    H1 2448   6.833   8.061   6.986
  842TIP3    H2 2449   6.889   7.920   6.983
  843TIP3   OH2 2450   2.615   3.502   1.423
  843TIP3    H1 2451   2.604   3.456   1.340
  843TIP3    H2 2452   2.647   3.436   1.483
  844TIP3   OH2 2453   2.426   3.702   1.061
  844TIP3    H1 2454   2.520   3.719   1.069
  844TIP3    H2 2455   2.385   3.783   1.092
  845TIP3   OH2 2456   4.301   4.175   1.103
  845TIP3    H1 2457   4.307   4.080   1.114
  845TIP3    H2 2458   4.221   4.200   1.150
  846TIP3   OH2 2459   3.408   3.953   1.233
  846TIP3    H1 2460   3.399   4.044   1.263
  846TIP3    H2 2461   3.341   3.905   1.281
  847TIP3   OH2 2462   3.182   4.048   0.185
  847TIP3    H1 2463   3.151   4.038   0.095
  847TIP3    H2 2464   3.145   4.132   0.213
  848TIP3   OH2 2465   2.646   3.957   0.599
  848TIP3    H1 2466   2.698   3.951   0.679
  848TIP3    H2 2467   2.602   3.872   0.594
  849TIP3   OH2 2468   6.364   8.177   7.089
  849TIP3    H1 2469   6.418   8.111   7.045
  849TIP3    H2 2470   6.395   8.177   7.179
  850TIP3   OH2 2471   3.441   4.020   0.094
  850TIP3    H1 2472   3.352   4.022   0.130
  850TIP3    H2 2473   3.494   3.983   0.164
  851TIP3   OH2 2474   4.194   3.279   1.369
  851TIP3    H1 2475   4.110   3.290   1.325
  851TIP3    H2 2476   4.211   3.185   1.365
  852TIP3   OH2 2477   2.793   3.710   1.372
  852TIP3    H1 2478   2.844   3.709   1.452
  852TIP3    H2 2479   2.725   3.644   1.386
  853TIP3   OH2 2480   3.215   2.539   1.209
  853TIP3    H1 2481   3.150   2.522   1.142
  853TIP3    H2 2482   3.178   2.610   1.261
  854TIP3   OH2 2483   3.749   2.650   1.389
  854TIP3    H1 2484   3.818   2.624   1.450
  854TIP3    H2 2485   3.668   2.639   1.438
  855TIP3   OH2 2486   3.945   3.062   1.302
  855TIP3    H1 2487   3.908   3.058   1.390
  855TIP3    H2 2488   3.934   3.154   1.276
  856TIP3   OH2 2489   6.577   7.458   7.102
  856TIP3    H1 2490   6.586   7.364   7.087
  856TIP3    H2 2491   6.655   7.497   7.064
  857TIP3   OH2 2492   3.446   2.565   0.107
  857TIP3    H1 2493   3.420   2.589   0.196
  857TIP3    H2 2494   3.377   2.505   0.078
  858TIP3   OH2 2495   3.111   3.022   1.179
  858TIP3    H1 2496   3.086   3.032   1.271
  858TIP3    H2 2497   3.094   3.108   1.140
  859TIP3   OH2 2498   3.025   3.017   0.743
  859TIP3    H1 2499   2.941   3.037   0.785
  859TIP3    H2 2500   3.011   2.932   0.702
  860TIP3   OH2 2501   3.496   3.025   0.451
  860TIP3    H1 2502   3.446   3.091   0.402
  860TIP3    H2 2503   3.556   2.988   0.387
  861TIP3   OH2 2504   3.676   3.271   1.516
  861TIP3    H1 2505   3.647   3.204   1.578
  861TIP3    H2 2506   3.768   3.285   1.537
  862TIP3   OH2 2507   3.661   3.024   0.676
  862TIP3    H1 2508   3.594   3.044   0.612
  862TIP3    H2 2509   3.714   2.956   0.634
  863TIP3   OH2 2510   2.979   3.036   1.424
  863TIP3    H1 2511   3.047   3.087   1.467
  863TIP3    H2 2512   2.963   2.963   1.483
  864TIP3   OH2 2513   3.038   2.606   0.140
  864TIP3    H1 2514   3.078   2.670   0.199
  864TIP3    H2 2515   2.966   2.568   0.191
  865TIP3   OH2 2516   3.698   3.275   1.097
  865TIP3    H1 2517   3.727   3.209   1.034
  865TIP3    H2 2518   3.654   3.224   1.166
  866TIP3   OH2 2519   3.388   2.794   0.807
  866TIP3    H1 2520   3.331   2.806   0.884
  866TIP3    H2 2521   3.464   2.746   0.841
  867TIP3   OH2 2522   2.718   2.783   0.737
  867TIP3    H1 2523   2.645   2.838   0.708
  867TIP3    H2 2524   2.758   2.751   0.656
  868TIP3   OH2 2525   2.973   2.796   0.583
  868TIP3    H1 2526   3.064   2.766   0.577
  868TIP3    H2 2527   2.946   2.807   0.492
  869TIP3   OH2 2528   3.843   2.812   0.982
  869TIP3    H1 2529   3.811   2.830   1.070
  869TIP3    H2 2530   3.781   2.748   0.946
  870TIP3   OH2 2531   2.913   2.843   0.318
  870TIP3    H1 2532   2.856   2.856   0.242
  870TIP3    H2 2533   3.000   2.867   0.288
  871TIP3   OH2 2534   4.014   4.514   1.197
  871TIP3    H1 2535   4.012   4.529   1.102
  871TIP3    H2 2536   4.093   4.558   1.226
  872TIP3   OH2 2537   2.956   3.631   1.607
  872TIP3    H1 2538   3.039   3.648   1.652
  872TIP3    H2 2539   2.889   3.657   1.670
  873TIP3   OH2 2540   3.457   3.094   0.882
  873TIP3    H1 2541   3.507   3.037   0.824
  873TIP3    H2 2542   3.449   3.045   0.963
  874TIP3   OH2 2543   2.908   2.522   0.774
  874TIP3    H1 2544   2.849   2.504   0.700
  874TIP3    H2 2545   2.980   2.571   0.735
  875TIP3   OH2 2546   3.396   2.999   1.141
  875TIP3    H1 2547   3.311   3.034   1.168
  875TIP3    H2 2548   3.460   3.046   1.196
  876TIP3   OH2 2549   3.174   3.389   0.267
  876TIP3    H1 2550   3.088   3.348   0.265
  876TIP3    H2 2551   3.173   3.443   0.346
  877TIP3   OH2 2552   4.013   3.605   0.856
  877TIP3    H1 2553   4.050   3.653   0.782
  877TIP3    H2 2554   3.934   3.564   0.820
  878TIP3   OH2 2555   3.632   2.754   0.044
  878TIP3    H1 2556   3.551   2.709   0.068
  878TIP3    H2 2557   3.641   2.822   0.110
  879TIP3   OH2 2558   3.534   3.684   1.274
  879TIP3    H1 2559   3.588   3.673   1.353
  879TIP3    H2 2560   3.496   3.771   1.283
  880TIP3   OH2 2561   3.681   2.960   0.239
  880TIP3    H1 2562   3.775   2.963   0.252
  880TIP3    H2 2563   3.661   3.037   0.185
  881TIP3   OH2 2564   2.850   3.391   0.929
  881TIP3    H1 2565   2.882   3.385   0.839
  881TIP3    H2 2566   2.916   3.345   0.981
  882TIP3   OH2 2567   3.303   3.539   0.076
  882TIP3    H1 2568   3.249   3.618   0.080
  882TIP3    H2 2569   3.255   3.475   0.128
  883TIP3   OH2 2570   2.716   3.314   1.590
  883TIP3    H1 2571   2.778   3.332   1.661
  883TIP3    H2 2572   2.656   3.249   1.626
  884TIP3   OH2 2573   3.455   3.440   1.536
  884TIP3    H1 2574   3.407   3.420   1.456
  884TIP3    H2 2575   3.538   3.392   1.528
  885TIP3   OH2 2576   3.676   3.975   1.153
  885TIP3    H1 2577   3.582   3.961   1.158
  885TIP3    H2 2578   3.700   4.012   1.239
  886TIP3   OH2 2579   4.096   3.024   0.050
  886TIP3    H1 2580   4.059   2.948   0.005
  886TIP3    H2 2581   4.071   3.098  -0.004
  887TIP3   OH2 2582   4.316   3.897   1.123
  887TIP3    H1 2583   4.222   3.878   1.121
  887TIP3    H2 2584   4.349   3.864   1.039
  888TIP3   OH2 2585   3.786   3.834   0.011
  888TIP3    H1 2586   3.760   3.776   0.082
  888TIP3    H2 2587   3.781   3.780  -0.068
  889TIP3   OH2 2588   3.786   3.472   0.750
  889TIP3    H1 2589   3.697   3.450   0.777
  889TIP3    H2 2590   3.822   3.390   0.717
  890TIP3   OH2 2591   2.926   3.716   0.579
  890TIP3    H1 2592   2.916   3.788   0.518
  890TIP3    H2 2593   2.845   3.714   0.629
  891TIP3   OH2 2594   2.366   3.115   0.214
  891TIP3    H1 2595   2.437   3.109   0.150
  891TIP3    H2 2596   2.287   3.097   0.164
  892TIP3   OH2 2597   3.085   3.511   0.495
  892TIP3    H1 2598   3.037   3.590   0.519
  892TIP3    H2 2599   3.069   3.450   0.567
  893TIP3   OH2 2600   3.227   4.029   1.029
  893TIP3    H1 2601   3.262   4.104   0.981
  893TIP3    H2 2602   3.300   3.997   1.081
  894TIP3   OH2 2603   2.847   3.927   0.413
  894TIP3    H1 2604   2.766   3.943   0.461
  894TIP3    H2 2605   2.894   4.010   0.417
  895TIP3   OH2 2606   3.568   3.692   0.999
  895TIP3    H1 2607   3.557   3.687   1.094
  895TIP3    H2 2608   3.649   3.643   0.983
  896TIP3   OH2 2609   6.509   7.784   7.184
  896TIP3    H1 2610   6.585   7.742   7.224
  896TIP3    H2 2611   6.437   7.767   7.245
  897TIP3   OH2 2612   3.829   4.184   1.036
  897TIP3    H1 2613   3.759   4.121   1.055
  897TIP3    H2 2614   3.793   4.238   0.965
  898TIP3   OH2 2615   6.856   8.242   6.950
  898TIP3    H1 2616   6.840   8.248   6.855
  898TIP3    H2 2617   6.783   8.290   6.989
  899TIP3   OH2 2618   2.944   2.806   1.584
  899TIP3    H1 2619   2.850   2.819   1.597
  899TIP3    H2 2620   2.972   2.753   1.659
  900TIP3   OH2 2621   3.752   3.480   0.059
  900TIP3    H1 2622   3.741   3.441   0.146
  900TIP3    H2 2623   3.847   3.487   0.047
  901TIP3   OH2 2624   2.646   3.918   1.188
  901TIP3    H1 2625   2.699   3.859   1.242
  901TIP3    H2 2626   2.663   4.005   1.225
  902TIP3   OH2 2627   5.896   7.683   7.212
  902TIP3    H1 2628   5.951   7.604   7.203
  902TIP3    H2 2629   5.903   7.706   7.304
  903TIP3   OH2 2630   2.927   3.561   0.206
  903TIP3    H1 2631   2.974   3.543   0.288
  903TIP3    H2 2632   2.897   3.652   0.216
  904TIP3   OH2 2633   2.665   3.256   0.379
  904TIP3    H1 2634   2.580   3.294   0.398
  904TIP3    H2 2635   2.681   3.276   0.287
  905TIP3   OH2 2636   3.755   2.876   1.234
  905TIP3    H1 2637   3.832   2.926   1.263
  905TIP3    H2 2638   3.753   2.800   1.292
  906TIP3   OH2 2639   3.578   2.733   0.457
  906TIP3    H1 2640   3.551   2.776   0.375
  906TIP3    H2 2641   3.663   2.771   0.477
  907TIP3   OH2 2642   3.135   3.750   0.069
  907TIP3    H1 2643   3.060   3.787   0.116
  907TIP3    H2 2644   3.131   3.790  -0.018
  908TIP3   OH2 2645   3.289   2.875   0.564
  908TIP3    H1 2646   3.361   2.925   0.524
  908TIP3    H2 2647   3.326   2.844   0.647
  909TIP3   OH2 2648   3.596   3.109   1.294
  909TIP3    H1 2649   3.624   3.152   1.375
  909TIP3    H2 2650   3.647   3.028   1.291
  910TIP3   OH2 2651   3.531   2.523   0.636
  910TIP3    H1 2652   3.520   2.564   0.722
  910TIP3    H2 2653   3.565   2.593   0.580
  911TIP3   OH2 2654   2.877   3.843   0.153
  911TIP3    H1 2655   2.862   3.925   0.104
  911TIP3    H2 2656   2.863   3.867   0.244
  912TIP3   OH2 2657   2.995   2.528   0.418
  912TIP3    H1 2658   3.037   2.612   0.399
  912TIP3    H2 2659   3.065   2.475   0.456
  913TIP3   OH2 2660   4.209   3.002   1.278
  913TIP3    H1 2661   4.115   3.013   1.290
  913TIP3    H2 2662   4.217   2.941   1.206
  914TIP3   OH2 2663   3.879   3.214   0.675
  914TIP3    H1 2664   3.803   3.157   0.685
  914TIP3    H2 2665   3.947   3.174   0.728
  915TIP3   OH2 2666   2.743   3.363   0.151
  915TIP3    H1 2667   2.801   3.431   0.182
  915TIP3    H2 2668   2.698   3.401   0.076
  916TIP3   OH2 2669   3.853   4.187   0.606
  916TIP3    H1 2670   3.814   4.240   0.536
  916TIP3    H2 2671   3.948   4.197   0.593
  917TIP3   OH2 2672   2.960   2.505   1.085
  917TIP3    H1 2673   2.925   2.452   1.013
  917TIP3    H2 2674   2.954   2.448   1.162
  918TIP3   OH2 2675   2.540   3.710   0.558
  918TIP3    H1 2676   2.465   3.665   0.598
  918TIP3    H2 2677   2.502   3.755   0.482
  919TIP3   OH2 2678   2.638   4.214   1.602
  919TIP3    H1 2679   2.721   4.213   1.650
  919TIP3    H2 2680   2.607   4.124   1.605
  920TIP3   OH2 2681   3.110   4.133   1.651
  920TIP3    H1 2682   3.202   4.110   1.664
  920TIP3    H2 2683   3.081   4.078   1.579
  921TIP3   OH2 2684   6.080   7.968   7.050
  921TIP3    H1 2685   6.011   7.917   7.007
  921TIP3    H2 2686   6.156   7.910   7.050
  922TIP3   OH2 2687   3.733   4.073   1.402
  922TIP3    H1 2688   3.745   4.003   1.467
  922TIP3    H2 2689   3.806   4.133   1.417
  923TIP3   OH2 2690   6.528   7.976   6.987
  923TIP3    H1 2691   6.510   7.905   7.049
  923TIP3    H2 2692   6.623   7.973   6.974
  924TIP3   OH2 2693   2.744   3.624   1.796
  924TIP3    H1 2694   2.772   3.533   1.786
  924TIP3    H2 2695   2.665   3.632   1.742
  925TIP3   OH2 2696   5.745   7.409   7.163
  925TIP3    H1 2697   5.794   7.398   7.244
  925TIP3    H2 2698   5.798   7.363   7.097
  926TIP3   OH2 2699   3.374   3.709   1.574
  926TIP3    H1 2700   3.330   3.729   1.492
  926TIP3    H2 2701   3.415   3.624   1.559
  927TIP3   OH2 2702   6.225   7.727   7.067
  927TIP3    H1 2703   6.240   7.731   7.161
  927TIP3    H2 2704   6.281   7.656   7.036
  928TIP3   OH2 2705   3.844   3.749   1.184
  928TIP3    H1 2706   3.922   3.777   1.137
  928TIP3    H2 2707   3.781   3.820   1.170
  929TIP3   OH2 2708   2.885   3.373   1.795
  929TIP3    H1 2709   2.972   3.359   1.756
  929TIP3    H2 2710   2.903   3.394   1.886
  930TIP3   OH2 2711   2.920   3.124   0.119
  930TIP3    H1 2712   2.905   3.197   0.181
  930TIP3    H2 2713   3.010   3.097   0.136
  931TIP3   OH2 2714   3.194   3.213   1.426
  931TIP3    H1 2715   3.128   3.277   1.453
  931TIP3    H2 2716   3.256   3.263   1.373
  932TIP3   OH2 2717   3.057   2.887  -0.006
  932TIP3    H1 2718   3.118   2.820  -0.035
  932TIP3    H2 2719   3.100   2.929   0.068
  933TIP3   OH2 2720   3.725   3.625   1.535
  933TIP3    H1 2721   3.798   3.589   1.484
  933TIP3    H2 2722   3.723   3.571   1.614
  934TIP3   OH2 2723   6.816   7.480   6.950
  934TIP3    H1 2724   6.817   7.389   6.919
  934TIP3    H2 2725   6.820   7.533   6.870
  935TIP3   OH2 2726   3.328   3.020   1.569
  935TIP3    H1 2727   3.342   2.947   1.509
  935TIP3    H2 2728   3.290   3.090   1.515
  936TIP3   OH2 2729   3.351   2.826   1.368
  936TIP3    H1 2730   3.375   2.856   1.280
  936TIP3    H2 2731   3.262   2.794   1.359
  937TIP3   OH2 2732   3.359   3.376   1.280
  937TIP3    H1 2733   3.445   3.387   1.238
  937TIP3    H2 2734   3.300   3.430   1.227
  938TIP3   OH2 2735   3.940   3.308   1.616
  938TIP3    H1 2736   3.988   3.226   1.626
  938TIP3    H2 2737   4.008   3.375   1.610
  939TIP3   OH2 2738   3.966   3.574   1.353
  939TIP3    H1 2739   3.913   3.635   1.301
  939TIP3    H2 2740   4.055   3.588   1.322
  940TIP3   OH2 2741   3.213   3.109   1.809
  940TIP3    H1 2742   3.144   3.047   1.832
  940TIP3    H2 2743   3.244   3.080   1.723
  941TIP3   OH2 2744   3.489   2.610   1.475
  941TIP3    H1 2745   3.447   2.689   1.440
  941TIP3    H2 2746   3.423   2.542   1.468
  942TIP3   OH2 2747   3.587   3.062   1.671
  942TIP3    H1 2748   3.581   3.049   1.766
  942TIP3    H2 2749   3.499   3.043   1.638
  943TIP3   OH2 2750   3.833   3.013   1.542
  943TIP3    H1 2751   3.755   3.014   1.597
  943TIP3    H2 2752   3.904   2.991   1.601
  944TIP3   OH2 2753   4.068   2.981   1.691
  944TIP3    H1 2754   4.084   2.887   1.698
  944TIP3    H2 2755   4.063   3.011   1.781
  945TIP3   OH2 2756   3.044   2.900   1.889
  945TIP3    H1 2757   3.051   2.811   1.855
  945TIP3    H2 2758   3.083   2.895   1.976
  946TIP3   OH2 2759   3.533   2.562   1.741
  946TIP3    H1 2760   3.601   2.496   1.735
  946TIP3    H2 2761   3.513   2.584   1.649
  947TIP3   OH2 2762   3.623   2.784   1.878
  947TIP3    H1 2763   3.593   2.708   1.827
  947TIP3    H2 2764   3.548   2.843   1.879
  948TIP3   OH2 2765   5.831   8.240   7.232
  948TIP3    H1 2766   5.924   8.255   7.216
  948TIP3    H2 2767   5.793   8.229   7.145
  949TIP3   OH2 2768   2.367   3.393   0.110
  949TIP3    H1 2769   2.428   3.381   0.037
  949TIP3    H2 2770   2.334   3.306   0.129
  950TIP3   OH2 2771   2.264   4.038   0.635
  950TIP3    H1 2772   2.197   3.996   0.581
  950TIP3    H2 2773   2.299   3.967   0.690
  951TIP3   OH2 2774   2.375   3.856   0.810
  951TIP3    H1 2775   2.362   3.786   0.873
  951TIP3    H2 2776   2.439   3.914   0.850
  952TIP3   OH2 2777   4.126   4.231   0.600
  952TIP3    H1 2778   4.145   4.260   0.690
  952TIP3    H2 2779   4.184   4.285   0.546
  953TIP3   OH2 2780   4.144   4.265   0.880
  953TIP3    H1 2781   4.097   4.182   0.875
  953TIP3    H2 2782   4.213   4.250   0.944
  954TIP3   OH2 2783   4.197   3.964   1.449
  954TIP3    H1 2784   4.125   3.973   1.511
  954TIP3    H2 2785   4.244   4.048   1.456
  955TIP3   OH2 2786   4.030   3.474   0.053
  955TIP3    H1 2787   4.090   3.544   0.029
  955TIP3    H2 2788   4.068   3.435   0.132
  956TIP3   OH2 2789   4.149   3.351   0.268
  956TIP3    H1 2790   4.084   3.310   0.326
  956TIP3    H2 2791   4.216   3.384   0.328
  957TIP3   OH2 2792   4.194   3.741   0.694
  957TIP3    H1 2793   4.247   3.673   0.654
  957TIP3    H2 2794   4.196   3.813   0.632
  958TIP3   OH2 2795   4.002   4.026   0.885
  958TIP3    H1 2796   3.935   4.071   0.937
  958TIP3    H2 2797   3.954   3.986   0.813
  959TIP3   OH2 2798   7.001   7.443   7.163
  959TIP3    H1 2799   6.931   7.448   7.098
  959TIP3    H2 2800   6.988   7.521   7.217
  960TIP3   OH2 2801   6.873   7.181   7.018
  960TIP3    H1 2802   6.887   7.149   6.929
  960TIP3    H2 2803   6.919   7.117   7.073
  961TIP3   OH2 2804   3.955   3.213   0.410
  961TIP3    H1 2805   3.961   3.120   0.388
  961TIP3    H2 2806   3.935   3.215   0.503
  962TIP3   OH2 2807   2.610   3.338   1.199
  962TIP3    H1 2808   2.591   3.312   1.109
  962TIP3    H2 2809   2.695   3.298   1.218
  963TIP3   OH2 2810   4.224   3.615   1.257
  963TIP3    H1 2811   4.292   3.549   1.243
  963TIP3    H2 2812   4.233   3.675   1.184
  964TIP3   OH2 2813   4.405   3.406   1.250
  964TIP3    H1 2814   4.331   3.363   1.293
  964TIP3    H2 2815   4.480   3.350   1.270
  965TIP3   OH2 2816   6.816   6.796   7.110
  965TIP3    H1 2817   6.820   6.729   7.041
  965TIP3    H2 2818   6.789   6.749   7.188
  966TIP3   OH2 2819   3.962   2.957   0.289
  966TIP3    H1 2820   4.007   2.875   0.307
  966TIP3    H2 2821   4.006   2.993   0.212
  967TIP3   OH2 2822   4.096   3.093   0.808
  967TIP3    H1 2823   4.176   3.110   0.760
  967TIP3    H2 2824   4.110   3.131   0.894
  968TIP3   OH2 2825   4.167   3.239   1.036
  968TIP3    H1 2826   4.095   3.268   1.092
  968TIP3    H2 2827   4.197   3.320   0.994
  969TIP3   OH2 2828   2.781   2.972   1.849
  969TIP3    H1 2829   2.876   2.965   1.859
  969TIP3    H2 2830   2.747   2.889   1.883
  970TIP3   OH2 2831   4.629   2.832   1.573
  970TIP3    H1 2832   4.695   2.777   1.531
  970TIP3    H2 2833   4.591   2.883   1.501
  971TIP3   OH2 2834   4.075   2.717   0.342
  971TIP3    H1 2835   4.120   2.687   0.421
  971TIP3    H2 2836   4.010   2.649   0.324
  972TIP3   OH2 2837   2.688   2.979   1.266
  972TIP3    H1 2838   2.603   3.009   1.235
  972TIP3    H2 2839   2.740   3.059   1.275
  973TIP3   OH2 2840   4.477   2.953   1.380
  973TIP3    H1 2841   4.397   2.992   1.416
  973TIP3    H2 2842   4.446   2.882   1.324
  974TIP3   OH2 2843   7.178   6.792   7.210
  974TIP3    H1 2844   7.163   6.742   7.130
  974TIP3    H2 2845   7.265   6.830   7.200
  975TIP3   OH2 2846   3.690   4.144   0.252
  975TIP3    H1 2847   3.742   4.139   0.172
  975TIP3    H2 2848   3.727   4.217   0.301
  976TIP3   OH2 2849   2.769   2.543   1.574
  976TIP3    H1 2850   2.701   2.520   1.637
  976TIP3    H2 2851   2.721   2.583   1.501
  977TIP3   OH2 2852   2.799   3.921   1.627
  977TIP3    H1 2853   2.704   3.927   1.617
  977TIP3    H2 2854   2.813   3.933   1.721
  978TIP3   OH2 2855   2.993   3.988   1.170
  978TIP3    H1 2856   2.942   4.063   1.139
  978TIP3    H2 2857   3.079   3.998   1.129
  979TIP3   OH2 2858   3.389   4.220   1.308
  979TIP3    H1 2859   3.426   4.213   1.396
  979TIP3    H2 2860   3.452   4.275   1.261
  980TIP3   OH2 2861   3.582   4.376   1.185
  980TIP3    H1 2862   3.646   4.322   1.138
  980TIP3    H2 2863   3.635   4.435   1.239
  981TIP3   OH2 2864   4.389   2.704   1.271
  981TIP3    H1 2865   4.304   2.693   1.230
  981TIP3    H2 2866   4.430   2.617   1.265
  982TIP3   OH2 2867   2.652   4.220   1.219
  982TIP3    H1 2868   2.561   4.235   1.194
  982TIP3    H2 2869   2.671   4.288   1.284
  983TIP3   OH2 2870   2.883   4.219   1.069
  983TIP3    H1 2871   2.800   4.222   1.116
  983TIP3    H2 2872   2.861   4.245   0.980
  984TIP3   OH2 2873   3.298   4.239   0.862
  984TIP3    H1 2874   3.227   4.251   0.800
  984TIP3    H2 2875   3.308   4.325   0.904
  985TIP3   OH2 2876   3.562   4.172   0.906
  985TIP3    H1 2877   3.470   4.194   0.889
  985TIP3    H2 2878   3.611   4.241   0.863
  986TIP3   OH2 2879   3.762   4.346   0.812
  986TIP3    H1 2880   3.760   4.433   0.773
  986TIP3    H2 2881   3.793   4.289   0.741
  987TIP3   OH2 2882   2.564   4.014   0.940
  987TIP3    H1 2883   2.580   3.988   1.031
  987TIP3    H2 2884   2.643   3.987   0.893
  988TIP3   OH2 2885   2.788   3.916   0.825
  988TIP3    H1 2886   2.796   3.830   0.866
  988TIP3    H2 2887   2.878   3.951   0.825
  989TIP3   OH2 2888   3.055   3.984   0.818
  989TIP3    H1 2889   3.073   3.891   0.802
  989TIP3    H2 2890   3.108   4.006   0.895
  990TIP3   OH2 2891   3.597   2.638   0.903
  990TIP3    H1 2892   3.570   2.575   0.969
  990TIP3    H2 2893   3.674   2.598   0.862
  991TIP3   OH2 2894   4.102   2.524   0.777
  991TIP3    H1 2895   4.142   2.580   0.711
  991TIP3    H2 2896   4.012   2.556   0.784
  992TIP3   OH2 2897   4.225   2.634   0.562
  992TIP3    H1 2898   4.300   2.579   0.540
  992TIP3    H2 2899   4.256   2.724   0.552
  993TIP3   OH2 2900   2.814   2.300   0.963
  993TIP3    H1 2901   2.749   2.334   0.901
  993TIP3    H2 2902   2.874   2.248   0.909
  994TIP3   OH2 2903   3.333   2.466   0.861
  994TIP3    H1 2904   3.360   2.386   0.815
  994TIP3    H2 2905   3.375   2.458   0.947
  995TIP3   OH2 2906   3.821   2.530   0.798
  995TIP3    H1 2907   3.817   2.485   0.714
  995TIP3    H2 2908   3.836   2.460   0.862
  996TIP3   OH2 2909   3.874   2.530   0.332
  996TIP3    H1 2910   3.780   2.527   0.348
  996TIP3    H2 2911   3.911   2.465   0.392
  997TIP3   OH2 2912   2.493   3.855   0.334
  997TIP3    H1 2913   2.510   3.838   0.241
  997TIP3    H2 2914   2.442   3.936   0.334
  998TIP3   OH2 2915   3.361   2.558   0.405
  998TIP3    H1 2916   3.343   2.520   0.491
  998TIP3    H2 2917   3.446   2.602   0.416
  999TIP3   OH2 2918   6.100   8.211   7.174
  999TIP3    H1 2919   6.189   8.235   7.147
  999TIP3    H2 2920   6.078   8.136   7.119
 1000TIP3   OH2 2921   6.794   8.301   7.279
 1000TIP3    H1 2922   6.786   8.205   7.281
 1000TIP3    H2 2923   6.747   8.326   7.199
 1001TIP3   OH2 2924   3.067   2.636   1.804
 1001TIP3    H1 2925   3.031   2.565   1.857
 1001TIP3    H2 2926   3.159   2.640   1.829
 1002TIP3   OH2 2927   3.317   2.619   1.914
 1002TIP3    H1 2928   3.394   2.595   1.863
 1002TIP3    H2 2929   3.311   2.552   1.982
 1003TIP3   OH2 2930   5.476   8.083   7.290
 1003TIP3    H1 2931   5.411   8.015   7.309
 1003TIP3    H2 2932   5.496   8.072   7.197
 1004TIP3   OH2 2933   4.136   2.711   1.698
 1004TIP3    H1 2934   4.153   2.681   1.788
 1004TIP3    H2 2935   4.221   2.705   1.655
 1005TIP3   OH2 2936   4.050   4.240   1.199
 1005TIP3    H1 2937   3.975   4.209   1.148
 1005TIP3    H2 2938   4.036   4.334   1.209
 1006TIP3   OH2 2939   8.240   7.765   7.229
 1006TIP3    H1 2940   8.297   7.841   7.237
 1006TIP3    H2 2941   8.163   7.797   7.183
 1007TIP3   OH2 2942   5.331   3.608   0.359
 1007TIP3    H1 2943   5.374   3.587   0.442
 1007TIP3    H2 2944   5.283   3.528   0.336
 1008TIP3   OH2 2945   4.622   3.477   0.711
 1008TIP3    H1 2946   4.661   3.425   0.782
 1008TIP3    H2 2947   4.696   3.499   0.655
 1009TIP3   OH2 2948   5.523   3.871   0.047
 1009TIP3    H1 2949   5.543   3.813   0.120
 1009TIP3    H2 2950   5.553   3.958   0.075
 1010TIP3   OH2 2951   4.613   3.911   0.397
 1010TIP3    H1 2952   4.595   3.817   0.404
 1010TIP3    H2 2953   4.709   3.916   0.393
 1011TIP3   OH2 2954   4.313   3.139   0.180
 1011TIP3    H1 2955   4.272   3.220   0.211
 1011TIP3    H2 2956   4.241   3.089   0.142
 1012TIP3   OH2 2957   4.382   3.422   0.406
 1012TIP3    H1 2958   4.431   3.343   0.430
 1012TIP3    H2 2959   4.449   3.485   0.379
 1013TIP3   OH2 2960   5.221   4.408   0.048
 1013TIP3    H1 2961   5.279   4.387  -0.026
 1013TIP3    H2 2962   5.190   4.322   0.078
 1014TIP3   OH2 2963   5.126   3.834   0.363
 1014TIP3    H1 2964   5.162   3.756   0.320
 1014TIP3    H2 2965   5.202   3.875   0.405
 1015TIP3   OH2 2966   6.154   3.146   0.380
 1015TIP3    H1 2967   6.166   3.230   0.424
 1015TIP3    H2 2968   6.189   3.160   0.292
 1016TIP3   OH2 2969   5.541   3.328   0.409
 1016TIP3    H1 2970   5.573   3.242   0.435
 1016TIP3    H2 2971   5.507   3.316   0.321
 1017TIP3   OH2 2972   4.900   2.985   0.359
 1017TIP3    H1 2973   4.879   3.059   0.303
 1017TIP3    H2 2974   4.847   2.913   0.325
 1018TIP3   OH2 2975   5.573   3.079   0.008
 1018TIP3    H1 2976   5.630   3.076   0.085
 1018TIP3    H2 2977   5.632   3.070  -0.066
 1019TIP3   OH2 2978   4.522   3.199   0.491
 1019TIP3    H1 2979   4.605   3.179   0.535
 1019TIP3    H2 2980   4.525   3.148   0.410
 1020TIP3   OH2 2981   4.939   3.397   0.317
 1020TIP3    H1 2982   5.033   3.384   0.319
 1020TIP3    H2 2983   4.904   3.317   0.278
 1021TIP3   OH2 2984   6.188   3.358   0.559
 1021TIP3    H1 2985   6.120   3.421   0.534
 1021TIP3    H2 2986   6.153   3.316   0.637
 1022TIP3   OH2 2987   4.875   2.990   0.815
 1022TIP3    H1 2988   4.825   3.023   0.740
 1022TIP3    H2 2989   4.819   3.006   0.890
 1023TIP3   OH2 2990   4.967   3.763   0.578
 1023TIP3    H1 2991   4.914   3.834   0.612
 1023TIP3    H2 2992   5.014   3.801   0.504
 1024TIP3   OH2 2993   5.736   3.115   0.225
 1024TIP3    H1 2994   5.698   3.091   0.310
 1024TIP3    H2 2995   5.795   3.187   0.245
 1025TIP3   OH2 2996   4.769   3.094   0.581
 1025TIP3    H1 2997   4.825   3.169   0.604
 1025TIP3    H2 2998   4.815   3.051   0.509
 1026TIP3   OH2 2999   4.810   3.963   0.686
 1026TIP3    H1 3000   4.798   4.053   0.658
 1026TIP3    H2 3001   4.732   3.943   0.738
 1027TIP3   OH2 3002   7.173   7.862   7.219
 1027TIP3    H1 3003   7.123   7.884   7.140
 1027TIP3    H2 3004   7.187   7.947   7.262
 1028TIP3   OH2 3005   5.600   4.116   0.165
 1028TIP3    H1 3006   5.529   4.100   0.227
 1028TIP3    H2 3007   5.587   4.206   0.136
 1029TIP3   OH2 3008   5.936   3.060   0.537
 1029TIP3    H1 3009   5.852   3.072   0.493
 1029TIP3    H2 3010   6.001   3.077   0.469
 1030TIP3   OH2 3011   5.225   2.687   0.549
 1030TIP3    H1 3012   5.218   2.595   0.574
 1030TIP3    H2 3013   5.148   2.728   0.587
 1031TIP3   OH2 3014   5.864   4.040   0.536
 1031TIP3    H1 3015   5.843   3.960   0.488
 1031TIP3    H2 3016   5.852   4.110   0.472
 1032TIP3   OH2 3017   6.065   3.736   0.392
 1032TIP3    H1 3018   5.975   3.769   0.387
 1032TIP3    H2 3019   6.095   3.735   0.301
 1033TIP3   OH2 3020   5.740   3.584   0.695
 1033TIP3    H1 3021   5.734   3.664   0.747
 1033TIP3    H2 3022   5.658   3.580   0.647
 1034TIP3   OH2 3023   4.736   3.527   0.171
 1034TIP3    H1 3024   4.695   3.465   0.111
 1034TIP3    H2 3025   4.810   3.479   0.209
 1035TIP3   OH2 3026   4.879   3.959   0.307
 1035TIP3    H1 3027   4.847   3.937   0.220
 1035TIP3    H2 3028   4.965   3.917   0.313
 1036TIP3   OH2 3029   4.834   3.527   0.537
 1036TIP3    H1 3030   4.873   3.488   0.458
 1036TIP3    H2 3031   4.884   3.607   0.551
 1037TIP3   OH2 3032   5.395   4.120   0.341
 1037TIP3    H1 3033   5.375   4.197   0.394
 1037TIP3    H2 3034   5.377   4.046   0.398
 1038TIP3   OH2 3035   5.003   4.056   0.863
 1038TIP3    H1 3036   4.942   4.114   0.908
 1038TIP3    H2 3037   4.948   4.005   0.804
 1039TIP3   OH2 3038   4.765   3.611   1.001
 1039TIP3    H1 3039   4.768   3.705   1.019
 1039TIP3    H2 3040   4.671   3.592   0.993
 1040TIP3   OH2 3041   4.798   4.222   0.944
 1040TIP3    H1 3042   4.771   4.230   0.852
 1040TIP3    H2 3043   4.717   4.207   0.992
 1041TIP3   OH2 3044   7.563   7.553   7.262
 1041TIP3    H1 3045   7.487   7.594   7.222
 1041TIP3    H2 3046   7.532   7.467   7.289
 1042TIP3   OH2 3047   4.396   3.781   0.889
 1042TIP3    H1 3048   4.326   3.762   0.827
 1042TIP3    H2 3049   4.430   3.695   0.914
 1043TIP3   OH2 3050   4.236   3.976   0.541
 1043TIP3    H1 3051   4.329   3.996   0.557
 1043TIP3    H2 3052   4.189   4.052   0.575
 1044TIP3   OH2 3053   6.152   4.388   0.684
 1044TIP3    H1 3054   6.160   4.294   0.666
 1044TIP3    H2 3055   6.059   4.401   0.701
 1045TIP3   OH2 3056   5.179   4.208   0.718
 1045TIP3    H1 3057   5.169   4.296   0.753
 1045TIP3    H2 3058   5.118   4.155   0.770
 1046TIP3   OH2 3059   4.401   4.155   0.054
 1046TIP3    H1 3060   4.452   4.152   0.135
 1046TIP3    H2 3061   4.355   4.071   0.052
 1047TIP3   OH2 3062   5.991   3.532   0.853
 1047TIP3    H1 3063   5.909   3.539   0.805
 1047TIP3    H2 3064   6.008   3.438   0.859
 1048TIP3   OH2 3065   4.593   3.970   0.858
 1048TIP3    H1 3066   4.644   3.957   0.938
 1048TIP3    H2 3067   4.522   3.906   0.864
 1049TIP3   OH2 3068   4.984   2.775   0.672
 1049TIP3    H1 3069   4.901   2.740   0.641
 1049TIP3    H2 3070   4.960   2.855   0.718
 1050TIP3   OH2 3071   5.510   2.901   0.868
 1050TIP3    H1 3072   5.578   2.875   0.929
 1050TIP3    H2 3073   5.428   2.883   0.913
 1051TIP3   OH2 3074   5.758   3.325   0.801
 1051TIP3    H1 3075   5.711   3.319   0.884
 1051TIP3    H2 3076   5.731   3.409   0.764
 1052TIP3   OH2 3077   8.164   7.017   6.943
 1052TIP3    H1 3078   8.099   7.015   7.013
 1052TIP3    H2 3079   8.141   6.942   6.888
 1053TIP3   OH2 3080   4.919   3.305   0.683
 1053TIP3    H1 3081   4.872   3.311   0.766
 1053TIP3    H2 3082   4.896   3.387   0.637
 1054TIP3   OH2 3083   4.803   3.187   0.201
 1054TIP3    H1 3084   4.715   3.159   0.225
 1054TIP3    H2 3085   4.815   3.155   0.111
 1055TIP3   OH2 3086   8.240   7.492   7.207
 1055TIP3    H1 3087   8.226   7.587   7.213
 1055TIP3    H2 3088   8.298   7.482   7.131
 1056TIP3   OH2 3089   5.460   3.526   1.003
 1056TIP3    H1 3090   5.434   3.457   1.064
 1056TIP3    H2 3091   5.552   3.542   1.023
 1057TIP3   OH2 3092   5.451   3.284   0.154
 1057TIP3    H1 3093   5.382   3.311   0.095
 1057TIP3    H2 3094   5.494   3.210   0.109
 1058TIP3   OH2 3095   4.756   3.322   0.904
 1058TIP3    H1 3096   4.768   3.385   0.975
 1058TIP3    H2 3097   4.737   3.239   0.948
 1059TIP3   OH2 3098   7.676   7.023   6.916
 1059TIP3    H1 3099   7.695   6.997   7.006
 1059TIP3    H2 3100   7.647   6.942   6.873
 1060TIP3   OH2 3101   4.343   2.863   0.483
 1060TIP3    H1 3102   4.422   2.888   0.532
 1060TIP3    H2 3103   4.377   2.830   0.400
 1061TIP3   OH2 3104   7.303   7.062   7.274
 1061TIP3    H1 3105   7.353   7.099   7.202
 1061TIP3    H2 3106   7.229   7.123   7.285
 1062TIP3   OH2 3107   5.488   3.531   0.579
 1062TIP3    H1 3108   5.514   3.464   0.516
 1062TIP3    H2 3109   5.443   3.483   0.649
 1063TIP3   OH2 3110   5.170   2.986   0.252
 1063TIP3    H1 3111   5.090   2.981   0.305
 1063TIP3    H2 3112   5.241   2.973   0.314
 1064TIP3   OH2 3113   4.566   3.062   0.257
 1064TIP3    H1 3114   4.477   3.069   0.222
 1064TIP3    H2 3115   4.592   2.972   0.238
 1065TIP3   OH2 3116   7.792   7.263   7.221
 1065TIP3    H1 3117   7.886   7.276   7.212
 1065TIP3    H2 3118   7.755   7.288   7.136
 1066TIP3   OH2 3119   5.614   3.066   0.470
 1066TIP3    H1 3120   5.594   3.085   0.562
 1066TIP3    H2 3121   5.546   3.003   0.444
 1067TIP3   OH2 3122   7.645   7.291   6.988
 1067TIP3    H1 3123   7.555   7.272   7.015
 1067TIP3    H2 3124   7.673   7.213   6.941
 1068TIP3   OH2 3125   5.873   4.688   0.683
 1068TIP3    H1 3126   5.897   4.711   0.593
 1068TIP3    H2 3127   5.848   4.771   0.723
 1069TIP3   OH2 3128   4.750   3.881   1.090
 1069TIP3    H1 3129   4.831   3.899   1.138
 1069TIP3    H2 3130   4.681   3.889   1.155
 1070TIP3   OH2 3131   5.212   3.345   0.358
 1070TIP3    H1 3132   5.274   3.292   0.309
 1070TIP3    H2 3133   5.209   3.305   0.445
 1071TIP3   OH2 3134   4.711   2.819   0.228
 1071TIP3    H1 3135   4.687   2.743   0.281
 1071TIP3    H2 3136   4.727   2.783   0.141
 1072TIP3   OH2 3137   5.185   3.251   0.622
 1072TIP3    H1 3138   5.097   3.281   0.647
 1072TIP3    H2 3139   5.244   3.303   0.676
 1073TIP3   OH2 3140   7.956   7.764   7.072
 1073TIP3    H1 3141   7.886   7.706   7.042
 1073TIP3    H2 3142   7.915   7.819   7.138
 1074TIP3   OH2 3143   5.810   3.835   0.360
 1074TIP3    H1 3144   5.836   3.885   0.283
 1074TIP3    H2 3145   5.728   3.793   0.335
 1075TIP3   OH2 3146   5.327   3.911   0.775
 1075TIP3    H1 3147   5.383   3.899   0.852
 1075TIP3    H2 3148   5.286   3.996   0.789
 1076TIP3   OH2 3149   4.607   3.624   0.392
 1076TIP3    H1 3150   4.644   3.601   0.307
 1076TIP3    H2 3151   4.671   3.593   0.456
 1077TIP3   OH2 3152   4.490   3.548   1.021
 1077TIP3    H1 3153   4.492   3.521   1.112
 1077TIP3    H2 3154   4.415   3.501   0.984
 1078TIP3   OH2 3155   5.231   3.684   1.044
 1078TIP3    H1 3156   5.161   3.624   1.017
 1078TIP3    H2 3157   5.311   3.641   1.014
 1079TIP3   OH2 3158   5.448   4.198   0.663
 1079TIP3    H1 3159   5.352   4.197   0.667
 1079TIP3    H2 3160   5.475   4.245   0.742
 1080TIP3   OH2 3161   6.119   4.121   0.628
 1080TIP3    H1 3162   6.025   4.122   0.645
 1080TIP3    H2 3163   6.127   4.094   0.536
 1081TIP3   OH2 3164   5.581   3.704   0.265
 1081TIP3    H1 3165   5.492   3.679   0.290
 1081TIP3    H2 3166   5.618   3.626   0.224
 1082TIP3   OH2 3167   4.730   3.938   0.073
 1082TIP3    H1 3168   4.722   4.017   0.021
 1082TIP3    H2 3169   4.640   3.916   0.098
 1083TIP3   OH2 3170   7.251   7.439   7.046
 1083TIP3    H1 3171   7.289   7.524   7.069
 1083TIP3    H2 3172   7.164   7.440   7.086
 1084TIP3   OH2 3173   4.869   3.709   0.008
 1084TIP3    H1 3174   4.827   3.794   0.021
 1084TIP3    H2 3175   4.823   3.650   0.068
 1085TIP3   OH2 3176   5.011   4.290   0.510
 1085TIP3    H1 3177   5.054   4.364   0.468
 1085TIP3    H2 3178   5.080   4.251   0.564
 1086TIP3   OH2 3179   1.689  -0.026   7.214
 1086TIP3    H1 3180   1.595  -0.024   7.229
 1086TIP3    H2 3181   1.714   0.067   7.207
 1087TIP3   OH2 3182   5.359   3.900   0.501
 1087TIP3    H1 3183   5.351   3.903   0.597
 1087TIP3    H2 3184   5.426   3.834   0.485
 1088TIP3   OH2 3185   5.633   4.324   0.507
 1088TIP3    H1 3186   5.561   4.276   0.548
 1088TIP3    H2 3187   5.625   4.413   0.540
 1089TIP3   OH2 3188   4.701   3.068   1.020
 1089TIP3    H1 3189   4.606   3.077   1.023
 1089TIP3    H2 3190   4.723   3.009   1.092
 1090TIP3   OH2 3191   4.445   4.171   0.673
 1090TIP3    H1 3192   4.496   4.109   0.726
 1090TIP3    H2 3193   4.455   4.255   0.718
 1091TIP3   OH2 3194   7.360   7.684   7.125
 1091TIP3    H1 3195   7.297   7.741   7.168
 1091TIP3    H2 3196   7.415   7.742   7.073
 1092TIP3   OH2 3197   5.556   3.136   0.731
 1092TIP3    H1 3198   5.638   3.170   0.767
 1092TIP3    H2 3199   5.540   3.056   0.781
 1093TIP3   OH2 3200   8.390   7.059   7.172
 1093TIP3    H1 3201   8.348   7.082   7.089
 1093TIP3    H2 3202   8.433   7.140   7.200
 1094TIP3   OH2 3203   5.104   3.080  -0.006
 1094TIP3    H1 3204   5.157   3.156  -0.031
 1094TIP3    H2 3205   5.129   3.061   0.084
 1095TIP3   OH2 3206   5.391   3.364   0.774
 1095TIP3    H1 3207   5.415   3.404   0.858
 1095TIP3    H2 3208   5.443   3.283   0.771
 1096TIP3   OH2 3209   5.252   2.768   0.095
 1096TIP3    H1 3210   5.232   2.847   0.145
 1096TIP3    H2 3211   5.320   2.795   0.033
 1097TIP3   OH2 3212   7.741   6.987   7.193
 1097TIP3    H1 3213   7.737   7.081   7.212
 1097TIP3    H2 3214   7.834   6.968   7.186
 1098TIP3   OH2 3215   6.008   3.242   0.737
 1098TIP3    H1 3216   5.920   3.267   0.765
 1098TIP3    H2 3217   5.994   3.170   0.674
 1099TIP3   OH2 3218   5.672   3.465   0.159
 1099TIP3    H1 3219   5.597   3.406   0.159
 1099TIP3    H2 3220   5.739   3.419   0.210
 1100TIP3   OH2 3221   7.384   7.204   7.044
 1100TIP3    H1 3222   7.337   7.288   7.044
 1100TIP3    H2 3223   7.343   7.154   6.974
 1101TIP3   OH2 3224   5.549   4.389   0.130
 1101TIP3    H1 3225   5.503   4.395   0.046
 1101TIP3    H2 3226   5.637   4.423   0.112
 1102TIP3   OH2 3227   4.722   2.688   0.638
 1102TIP3    H1 3228   4.699   2.658   0.550
 1102TIP3    H2 3229   4.707   2.612   0.694
 1103TIP3   OH2 3230   4.234   3.927   0.054
 1103TIP3    H1 3231   4.196   3.967   0.132
 1103TIP3    H2 3232   4.186   3.967  -0.019
 1104TIP3   OH2 3233   4.443   4.476   1.093
 1104TIP3    H1 3234   4.525   4.478   1.141
 1104TIP3    H2 3235   4.422   4.382   1.084
 1105TIP3   OH2 3236   4.910   4.387   1.134
 1105TIP3    H1 3237   5.000   4.356   1.143
 1105TIP3    H2 3238   4.873   4.333   1.064
 1106TIP3   OH2 3239   5.526   4.325   0.894
 1106TIP3    H1 3240   5.539   4.254   0.957
 1106TIP3    H2 3241   5.603   4.381   0.904
 1107TIP3   OH2 3242   4.545   3.882   1.279
 1107TIP3    H1 3243   4.563   3.788   1.291
 1107TIP3    H2 3244   4.458   3.884   1.239
 1108TIP3   OH2 3245   5.169   3.960   1.060
 1108TIP3    H1 3246   5.117   3.978   0.981
 1108TIP3    H2 3247   5.202   3.871   1.047
 1109TIP3   OH2 3248   5.634   3.990   0.686
 1109TIP3    H1 3249   5.708   4.026   0.637
 1109TIP3    H2 3250   5.563   4.053   0.672
 1110TIP3   OH2 3251   4.660   3.627   1.290
 1110TIP3    H1 3252   4.735   3.605   1.235
 1110TIP3    H2 3253   4.697   3.645   1.376
 1111TIP3   OH2 3254   7.725   7.585   7.033
 1111TIP3    H1 3255   7.679   7.578   7.116
 1111TIP3    H2 3256   7.709   7.502   6.989
 1112TIP3   OH2 3257   5.024   3.510   0.951
 1112TIP3    H1 3258   4.937   3.549   0.960
 1112TIP3    H2 3259   5.054   3.537   0.864
 1113TIP3   OH2 3260   5.519   3.874   1.021
 1113TIP3    H1 3261   5.594   3.841   0.971
 1113TIP3    H2 3262   5.517   3.820   1.100
 1114TIP3   OH2 3263   5.124   3.275   1.055
 1114TIP3    H1 3264   5.127   3.205   0.989
 1114TIP3    H2 3265   5.091   3.351   1.007
 1115TIP3   OH2 3266   5.132   3.079   0.851
 1115TIP3    H1 3267   5.161   3.113   0.767
 1115TIP3    H2 3268   5.042   3.051   0.837
 1116TIP3   OH2 3269   5.137   3.603   0.722
 1116TIP3    H1 3270   5.225   3.641   0.716
 1116TIP3    H2 3271   5.082   3.661   0.671
 1117TIP3   OH2 3272   5.729   3.555   1.101
 1117TIP3    H1 3273   5.753   3.463   1.105
 1117TIP3    H2 3274   5.810   3.601   1.082
 1118TIP3   OH2 3275   5.760   3.820   0.853
 1118TIP3    H1 3276   5.708   3.881   0.800
 1118TIP3    H2 3277   5.849   3.830   0.820
 1119TIP3   OH2 3278   5.012   3.357   1.299
 1119TIP3    H1 3279   4.942   3.295   1.320
 1119TIP3    H2 3280   5.039   3.334   1.210
 1120TIP3   OH2 3281   5.251   2.848   0.956
 1120TIP3    H1 3282   5.210   2.927   0.922
 1120TIP3    H2 3283   5.186   2.779   0.942
 1121TIP3   OH2 3284   5.380   3.313   1.157
 1121TIP3    H1 3285   5.369   3.300   1.251
 1121TIP3    H2 3286   5.295   3.292   1.119
 1122TIP3   OH2 3287   5.632   3.278   1.035
 1122TIP3    H1 3288   5.551   3.271   1.085
 1122TIP3    H2 3289   5.699   3.241   1.092
 1123TIP3   OH2 3290   5.871   3.233   1.177
 1123TIP3    H1 3291   5.883   3.138   1.181
 1123TIP3    H2 3292   5.866   3.260   1.269
 1124TIP3   OH2 3293   4.843   3.139   1.361
 1124TIP3    H1 3294   4.849   3.052   1.323
 1124TIP3    H2 3295   4.882   3.131   1.448
 1125TIP3   OH2 3296   5.320   2.822   1.221
 1125TIP3    H1 3297   5.387   2.754   1.214
 1125TIP3    H2 3298   5.290   2.834   1.131
 1126TIP3   OH2 3299   5.419   3.035   1.365
 1126TIP3    H1 3300   5.388   2.963   1.310
 1126TIP3    H2 3301   5.346   3.097   1.366
 1127TIP3   OH2 3302   7.057   7.844   6.959
 1127TIP3    H1 3303   7.111   7.868   6.884
 1127TIP3    H2 3304   7.048   7.749   6.953
 1128TIP3   OH2 3305   4.031   4.258   0.113
 1128TIP3    H1 3306   3.964   4.204   0.070
 1128TIP3    H2 3307   4.075   4.197   0.173
 1129TIP3   OH2 3308   4.176   4.090   0.283
 1129TIP3    H1 3309   4.167   4.023   0.352
 1129TIP3    H2 3310   4.232   4.157   0.322
 1130TIP3   OH2 3311   5.942   4.425   0.438
 1130TIP3    H1 3312   5.902   4.355   0.385
 1130TIP3    H2 3313   6.032   4.431   0.404
 1131TIP3   OH2 3314   5.985   4.206   0.939
 1131TIP3    H1 3315   5.910   4.213   0.997
 1131TIP3    H2 3316   6.032   4.289   0.950
 1132TIP3   OH2 3317   5.960   3.969   0.168
 1132TIP3    H1 3318   6.023   3.915   0.120
 1132TIP3    H2 3319   5.916   4.020   0.100
 1133TIP3   OH2 3320   5.800   4.214   0.330
 1133TIP3    H1 3321   5.737   4.257   0.387
 1133TIP3    H2 3322   5.747   4.169   0.264
 1134TIP3   OH2 3323   8.668   7.556   7.163
 1134TIP3    H1 3324   8.743   7.497   7.175
 1134TIP3    H2 3325   8.664   7.606   7.245
 1135TIP3   OH2 3326   4.360   3.521   0.659
 1135TIP3    H1 3327   4.351   3.487   0.570
 1135TIP3    H2 3328   4.454   3.516   0.677
 1136TIP3   OH2 3329   6.013   3.857   0.747
 1136TIP3    H1 3330   6.085   3.796   0.733
 1136TIP3    H2 3331   6.015   3.915   0.671
 1137TIP3   OH2 3332   6.209   3.661   0.748
 1137TIP3    H1 3333   6.132   3.615   0.781
 1137TIP3    H2 3334   6.283   3.607   0.774
 1138TIP3   OH2 3335   5.885   3.341   0.295
 1138TIP3    H1 3336   5.968   3.354   0.248
 1138TIP3    H2 3337   5.897   3.387   0.378
 1139TIP3   OH2 3338   5.954   3.507   0.512
 1139TIP3    H1 3339   5.881   3.532   0.568
 1139TIP3    H2 3340   5.989   3.589   0.479
 1140TIP3   OH2 3341   4.579   3.197   1.298
 1140TIP3    H1 3342   4.673   3.193   1.316
 1140TIP3    H2 3343   4.545   3.116   1.336
 1141TIP3   OH2 3344   6.465   3.069   1.019
 1141TIP3    H1 3345   6.458   2.975   1.004
 1141TIP3    H2 3346   6.392   3.107   0.969
 1142TIP3   OH2 3347   8.745   7.158   7.132
 1142TIP3    H1 3348   8.818   7.145   7.193
 1142TIP3    H2 3349   8.713   7.070   7.114
 1143TIP3   OH2 3350   4.559   2.913   0.652
 1143TIP3    H1 3351   4.611   2.833   0.659
 1143TIP3    H2 3352   4.623   2.981   0.630
 1144TIP3   OH2 3353   4.338   3.177   0.708
 1144TIP3    H1 3354   4.386   3.162   0.626
 1144TIP3    H2 3355   4.376   3.258   0.743
 1145TIP3   OH2 3356   6.274   3.210   0.869
 1145TIP3    H1 3357   6.210   3.248   0.929
 1145TIP3    H2 3358   6.224   3.146   0.818
 1146TIP3   OH2 3359   4.346   2.708   0.232
 1146TIP3    H1 3360   4.253   2.697   0.254
 1146TIP3    H2 3361   4.346   2.763   0.153
 1147TIP3   OH2 3362   4.555   2.760   1.045
 1147TIP3    H1 3363   4.500   2.746   1.123
 1147TIP3    H2 3364   4.495   2.799   0.981
 1148TIP3   OH2 3365   4.577   4.194   1.113
 1148TIP3    H1 3366   4.484   4.177   1.102
 1148TIP3    H2 3367   4.593   4.183   1.206
 1149TIP3   OH2 3368   4.785   4.237   0.660
 1149TIP3    H1 3369   4.727   4.303   0.624
 1149TIP3    H2 3370   4.869   4.252   0.616
 1150TIP3   OH2 3371   5.172   4.470   0.803
 1150TIP3    H1 3372   5.214   4.464   0.889
 1150TIP3    H2 3373   5.237   4.513   0.747
 1151TIP3   OH2 3374   5.356   4.614   0.662
 1151TIP3    H1 3375   5.428   4.577   0.610
 1151TIP3    H2 3376   5.400   4.659   0.734
 1152TIP3   OH2 3377   6.157   2.955   0.755
 1152TIP3    H1 3378   6.065   2.941   0.732
 1152TIP3    H2 3379   6.197   2.869   0.744
 1153TIP3   OH2 3380   4.443   4.483   0.710
 1153TIP3    H1 3381   4.352   4.501   0.687
 1153TIP3    H2 3382   4.466   4.551   0.773
 1154TIP3   OH2 3383   4.663   4.455   0.550
 1154TIP3    H1 3384   4.583   4.465   0.602
 1154TIP3    H2 3385   4.640   4.487   0.463
 1155TIP3   OH2 3386   5.088   4.515   0.350
 1155TIP3    H1 3387   5.020   4.504   0.283
 1155TIP3    H2 3388   5.050   4.578   0.412
 1156TIP3   OH2 3389   5.336   4.391   0.391
 1156TIP3    H1 3390   5.250   4.428   0.367
 1156TIP3    H2 3391   5.382   4.383   0.308
 1157TIP3   OH2 3392   5.601   4.596   0.324
 1157TIP3    H1 3393   5.551   4.672   0.294
 1157TIP3    H2 3394   5.567   4.523   0.271
 1158TIP3   OH2 3395   4.358   4.263   0.424
 1158TIP3    H1 3396   4.385   4.238   0.513
 1158TIP3    H2 3397   4.429   4.232   0.368
 1159TIP3   OH2 3398   4.560   4.152   0.281
 1159TIP3    H1 3399   4.572   4.067   0.324
 1159TIP3    H2 3400   4.647   4.191   0.280
 1160TIP3   OH2 3401   4.831   4.234   0.306
 1160TIP3    H1 3402   4.848   4.140   0.293
 1160TIP3    H2 3403   4.883   4.257   0.383
 1161TIP3   OH2 3404   5.391   2.887   0.398
 1161TIP3    H1 3405   5.351   2.815   0.446
 1161TIP3    H2 3406   5.459   2.845   0.344
 1162TIP3   OH2 3407   5.887   2.815   0.278
 1162TIP3    H1 3408   5.919   2.868   0.205
 1162TIP3    H2 3409   5.792   2.829   0.278
 1163TIP3   OH2 3410   5.987   2.914   0.043
 1163TIP3    H1 3411   6.048   2.843   0.021
 1163TIP3    H2 3412   6.033   2.994   0.018
 1164TIP3   OH2 3413   4.651   2.599   0.385
 1164TIP3    H1 3414   4.562   2.569   0.404
 1164TIP3    H2 3415   4.703   2.519   0.379
 1165TIP3   OH2 3416   4.448   2.483   0.094
 1165TIP3    H1 3417   4.486   2.534   0.022
 1165TIP3    H2 3418   4.413   2.549   0.153
 1166TIP3   OH2 3419   5.111   2.628   0.293
 1166TIP3    H1 3420   5.158   2.673   0.223
 1166TIP3    H2 3421   5.154   2.655   0.374
 1167TIP3   OH2 3422   5.604   2.774   0.262
 1167TIP3    H1 3423   5.613   2.742   0.172
 1167TIP3    H2 3424   5.610   2.695   0.316
 1168TIP3   OH2 3425   8.627   6.910   7.128
 1168TIP3    H1 3426   8.540   6.949   7.134
 1168TIP3    H2 3427   8.614   6.819   7.158
 1169TIP3   OH2 3428   7.083   8.246   7.109
 1169TIP3    H1 3429   7.003   8.236   7.058
 1169TIP3    H2 3430   7.117   8.332   7.085
 1170TIP3   OH2 3431   7.522   6.816   7.149
 1170TIP3    H1 3432   7.560   6.733   7.118
 1170TIP3    H2 3433   7.598   6.871   7.166
 1171TIP3   OH2 3434   8.015   7.017   7.176
 1171TIP3    H1 3435   8.073   6.970   7.236
 1171TIP3    H2 3436   8.031   7.109   7.195
 1172TIP3   OH2 3437   4.860   2.869   1.273
 1172TIP3    H1 3438   4.826   2.802   1.332
 1172TIP3    H2 3439   4.952   2.878   1.298
 1173TIP3   OH2 3440   5.107   2.876   1.398
 1173TIP3    H1 3441   5.183   2.853   1.344
 1173TIP3    H2 3442   5.101   2.805   1.463
 1174TIP3   OH2 3443   5.926   2.960   1.173
 1174TIP3    H1 3444   5.942   2.929   1.263
 1174TIP3    H2 3445   6.010   2.947   1.129
 1175TIP3   OH2 3446   5.880   4.423   0.721
 1175TIP3    H1 3447   5.859   4.391   0.633
 1175TIP3    H2 3448   5.882   4.519   0.711
 1176TIP3   OH2 3449   6.450   3.752   0.239
 1176TIP3    H1 3450   6.461   3.680   0.301
 1176TIP3    H2 3451   6.482   3.829   0.287
 1177TIP3   OH2 3452   6.636   3.270   0.330
 1177TIP3    H1 3453   6.586   3.306   0.256
 1177TIP3    H2 3454   6.578   3.279   0.405
 1178TIP3   OH2 3455   6.547   3.356   0.081
 1178TIP3    H1 3456   6.594   3.437   0.098
 1178TIP3    H2 3457   6.582   3.325  -0.003
 1179TIP3   OH2 3458   7.786   6.841   1.589
 1179TIP3    H1 3459   7.727   6.825   1.516
 1179TIP3    H2 3460   7.763   6.774   1.654
 1180TIP3   OH2 3461   0.858   7.133   7.212
 1180TIP3    H1 3462   0.903   7.071   7.268
 1180TIP3    H2 3463   0.827   7.201   7.271
 1181TIP3   OH2 3464   6.734   4.299   0.402
 1181TIP3    H1 3465   6.768   4.379   0.441
 1181TIP3    H2 3466   6.756   4.306   0.309
 1182TIP3   OH2 3467   6.562   3.891   0.459
 1182TIP3    H1 3468   6.576   3.976   0.501
 1182TIP3    H2 3469   6.476   3.863   0.491
 1183TIP3   OH2 3470   6.505   4.430   0.317
 1183TIP3    H1 3471   6.543   4.472   0.239
 1183TIP3    H2 3472   6.480   4.503   0.374
 1184TIP3   OH2 3473   6.148   4.023   0.374
 1184TIP3    H1 3474   6.078   4.025   0.308
 1184TIP3    H2 3475   6.167   3.930   0.386
 1185TIP3   OH2 3476   6.384   4.174   0.379
 1185TIP3    H1 3477   6.314   4.113   0.402
 1185TIP3    H2 3478   6.354   4.216   0.298
 1186TIP3   OH2 3479   6.715   3.056   0.182
 1186TIP3    H1 3480   6.629   3.019   0.161
 1186TIP3    H2 3481   6.695   3.131   0.238
 1187TIP3   OH2 3482   7.253   3.227   0.405
 1187TIP3    H1 3483   7.314   3.245   0.477
 1187TIP3    H2 3484   7.174   3.194   0.447
 1188TIP3   OH2 3485   7.539   3.636   0.280
 1188TIP3    H1 3486   7.502   3.614   0.366
 1188TIP3    H2 3487   7.462   3.651   0.224
 1189TIP3   OH2 3488   6.675   3.587   0.172
 1189TIP3    H1 3489   6.653   3.569   0.263
 1189TIP3    H2 3490   6.618   3.660   0.147
 1190TIP3   OH2 3491   7.256   3.789   0.480
 1190TIP3    H1 3492   7.241   3.719   0.543
 1190TIP3    H2 3493   7.346   3.817   0.496
 1191TIP3   OH2 3494   6.551   3.562   0.420
 1191TIP3    H1 3495   6.581   3.616   0.493
 1191TIP3    H2 3496   6.520   3.481   0.461
 1192TIP3   OH2 3497   0.215   7.311   7.221
 1192TIP3    H1 3498   0.284   7.334   7.283
 1192TIP3    H2 3499   0.262   7.274   7.146
 1193TIP3   OH2 3500   6.584   4.134   0.600
 1193TIP3    H1 3501   6.659   4.139   0.658
 1193TIP3    H2 3502   6.508   4.130   0.658
 1194TIP3   OH2 3503   6.935   3.483   0.137
 1194TIP3    H1 3504   6.854   3.534   0.135
 1194TIP3    H2 3505   7.001   3.543   0.172
 1195TIP3   OH2 3506   6.306   3.799   0.522
 1195TIP3    H1 3507   6.305   3.772   0.614
 1195TIP3    H2 3508   6.228   3.759   0.484
 1196TIP3   OH2 3509   7.022   3.912   0.545
 1196TIP3    H1 3510   6.955   3.856   0.505
 1196TIP3    H2 3511   7.105   3.879   0.510
 1197TIP3   OH2 3512   6.466   3.325   0.540
 1197TIP3    H1 3513   6.372   3.336   0.551
 1197TIP3    H2 3514   6.491   3.265   0.611
 1198TIP3   OH2 3515   6.291   4.296   0.142
 1198TIP3    H1 3516   6.314   4.237   0.070
 1198TIP3    H2 3517   6.292   4.383   0.103
 1199TIP3   OH2 3518   7.320   3.441   0.249
 1199TIP3    H1 3519   7.407   3.408   0.224
 1199TIP3    H2 3520   7.282   3.369   0.300
 1200TIP3   OH2 3521   7.125   3.633   0.279
 1200TIP3    H1 3522   7.165   3.697   0.338
 1200TIP3    H2 3523   7.193   3.566   0.265
 1201TIP3   OH2 3524   6.472   2.947   0.113
 1201TIP3    H1 3525   6.478   2.900   0.030
 1201TIP3    H2 3526   6.467   2.878   0.179
 1202TIP3   OH2 3527   6.117   4.693   0.506
 1202TIP3    H1 3528   6.124   4.669   0.598
 1202TIP3    H2 3529   6.138   4.613   0.458
 1203TIP3   OH2 3530   6.697   4.577   0.719
 1203TIP3    H1 3531   6.742   4.661   0.727
 1203TIP3    H2 3532   6.749   4.527   0.656
 1204TIP3   OH2 3533   6.357   4.111   0.767
 1204TIP3    H1 3534   6.384   4.019   0.774
 1204TIP3    H2 3535   6.271   4.108   0.726
 1205TIP3   OH2 3536   6.950   4.174   0.551
 1205TIP3    H1 3537   6.893   4.175   0.475
 1205TIP3    H2 3538   6.995   4.090   0.546
 1206TIP3   OH2 3539   6.497   3.867   0.773
 1206TIP3    H1 3540   6.574   3.814   0.752
 1206TIP3    H2 3541   6.510   3.893   0.864
 1207TIP3   OH2 3542   6.813   3.776   0.411
 1207TIP3    H1 3543   6.729   3.817   0.429
 1207TIP3    H2 3544   6.826   3.786   0.317
 1208TIP3   OH2 3545   7.331   4.120   0.580
 1208TIP3    H1 3546   7.425   4.135   0.570
 1208TIP3    H2 3547   7.324   4.050   0.645
 1209TIP3   OH2 3548   6.916   3.557   0.550
 1209TIP3    H1 3549   6.914   3.478   0.497
 1209TIP3    H2 3550   6.889   3.627   0.491
 1210TIP3   OH2 3551   6.895   3.347   0.372
 1210TIP3    H1 3552   6.923   3.383   0.288
 1210TIP3    H2 3553   6.804   3.319   0.357
 1211TIP3   OH2 3554   7.530   3.803   0.606
 1211TIP3    H1 3555   7.529   3.710   0.583
 1211TIP3    H2 3556   7.622   3.829   0.597
 1212TIP3   OH2 3557   6.791   3.640   0.784
 1212TIP3    H1 3558   6.734   3.567   0.809
 1212TIP3    H2 3559   6.829   3.612   0.700
 1213TIP3   OH2 3560   7.010   3.122   0.474
 1213TIP3    H1 3561   6.966   3.200   0.439
 1213TIP3    H2 3562   6.950   3.050   0.453
 1214TIP3   OH2 3563   7.181   3.579   0.642
 1214TIP3    H1 3564   7.170   3.571   0.737
 1214TIP3    H2 3565   7.094   3.563   0.606
 1215TIP3   OH2 3566   7.435   3.549   0.526
 1215TIP3    H1 3567   7.350   3.554   0.570
 1215TIP3    H2 3568   7.460   3.457   0.531
 1216TIP3   OH2 3569   7.715   3.527   0.672
 1216TIP3    H1 3570   7.690   3.438   0.697
 1216TIP3    H2 3571   7.687   3.581   0.746
 1217TIP3   OH2 3572   6.656   3.407   0.852
 1217TIP3    H1 3573   6.658   3.319   0.814
 1217TIP3    H2 3574   6.690   3.396   0.941
 1218TIP3   OH2 3575   7.092   3.127   0.732
 1218TIP3    H1 3576   7.172   3.074   0.732
 1218TIP3    H2 3577   7.059   3.121   0.643
 1219TIP3   OH2 3578   7.209   3.326   0.871
 1219TIP3    H1 3579   7.171   3.256   0.819
 1219TIP3    H2 3580   7.142   3.394   0.873
 1220TIP3   OH2 3581   6.189   3.774   0.145
 1220TIP3    H1 3582   6.193   3.735   0.058
 1220TIP3    H2 3583   6.280   3.776   0.174
 1221TIP3   OH2 3584   6.391   3.477   0.839
 1221TIP3    H1 3585   6.485   3.459   0.843
 1221TIP3    H2 3586   6.351   3.391   0.851
 1222TIP3   OH2 3587   6.336   3.187   0.145
 1222TIP3    H1 3588   6.375   3.100   0.145
 1222TIP3    H2 3589   6.408   3.247   0.124
 1223TIP3   OH2 3590   6.140   3.398   0.198
 1223TIP3    H1 3591   6.193   3.332   0.153
 1223TIP3    H2 3592   6.202   3.468   0.218
 1224TIP3   OH2 3593   8.013   3.572   0.394
 1224TIP3    H1 3594   7.940   3.514   0.372
 1224TIP3    H2 3595   8.082   3.548   0.331
 1225TIP3   OH2 3596   6.328   3.001   0.535
 1225TIP3    H1 3597   6.275   2.990   0.614
 1225TIP3    H2 3598   6.269   3.041   0.472
 1226TIP3   OH2 3599   6.436   4.373   0.608
 1226TIP3    H1 3600   6.341   4.383   0.620
 1226TIP3    H2 3601   6.473   4.394   0.694
 1227TIP3   OH2 3602   6.621   3.133   0.782
 1227TIP3    H1 3603   6.571   3.108   0.859
 1227TIP3    H2 3604   6.713   3.130   0.810
 1228TIP3   OH2 3605   6.869   3.150   0.894
 1228TIP3    H1 3606   6.951   3.136   0.847
 1228TIP3    H2 3607   6.872   3.089   0.967
 1229TIP3   OH2 3608   7.644   3.284   0.772
 1229TIP3    H1 3609   7.674   3.268   0.862
 1229TIP3    H2 3610   7.695   3.224   0.719
 1230TIP3   OH2 3611   0.419   4.213   1.560
 1230TIP3    H1 3612   0.442   4.296   1.602
 1230TIP3    H2 3613   0.452   4.221   1.470
 1231TIP3   OH2 3614   8.675   4.343   1.632
 1231TIP3    H1 3615   8.686   4.277   1.699
 1231TIP3    H2 3616   8.720   4.307   1.555
 1232TIP3   OH2 3617   0.491   4.422   1.736
 1232TIP3    H1 3618   0.402   4.454   1.728
 1232TIP3    H2 3619   0.524   4.462   1.817
 1233TIP3   OH2 3620   0.224   4.120   1.734
 1233TIP3    H1 3621   0.145   4.170   1.712
 1233TIP3    H2 3622   0.287   4.144   1.666
 1234TIP3   OH2 3623   0.164   5.176   1.745
 1234TIP3    H1 3624   0.167   5.142   1.656
 1234TIP3    H2 3625   0.164   5.271   1.735
 1235TIP3   OH2 3626   0.319   4.762   1.578
 1235TIP3    H1 3627   0.247   4.824   1.584
 1235TIP3    H2 3628   0.355   4.775   1.490
 1236TIP3   OH2 3629   8.934   4.636   1.848
 1236TIP3    H1 3630   8.881   4.685   1.911
 1236TIP3    H2 3631   8.878   4.629   1.770
 1237TIP3   OH2 3632   0.372   5.474   1.752
 1237TIP3    H1 3633   0.338   5.491   1.665
 1237TIP3    H2 3634   0.294   5.461   1.806
 1238TIP3   OH2 3635   0.216   4.590   2.060
 1238TIP3    H1 3636   0.158   4.585   1.984
 1238TIP3    H2 3637   0.254   4.503   2.067
 1239TIP3   OH2 3638   8.727   3.977   2.038
 1239TIP3    H1 3639   8.794   3.934   2.091
 1239TIP3    H2 3640   8.644   3.944   2.072
 1240TIP3   OH2 3641   8.912   4.355   1.940
 1240TIP3    H1 3642   8.876   4.338   2.027
 1240TIP3    H2 3643   8.862   4.430   1.908
 1241TIP3   OH2 3644   8.659   4.564   2.180
 1241TIP3    H1 3645   8.617   4.488   2.220
 1241TIP3    H2 3646   8.749   4.561   2.212
 1242TIP3   OH2 3647   8.734   4.614   1.666
 1242TIP3    H1 3648   8.720   4.526   1.632
 1242TIP3    H2 3649   8.667   4.624   1.734
 1243TIP3   OH2 3650   0.124   4.957   1.554
 1243TIP3    H1 3651   0.159   4.993   1.472
 1243TIP3    H2 3652   0.035   4.930   1.532
 1244TIP3   OH2 3653   8.588   4.885   1.837
 1244TIP3    H1 3654   8.502   4.849   1.816
 1244TIP3    H2 3655   8.575   4.980   1.841
 1245TIP3   OH2 3656   8.486   4.816   2.110
 1245TIP3    H1 3657   8.427   4.791   2.039
 1245TIP3    H2 3658   8.486   4.740   2.170
 1246TIP3   OH2 3659   8.708   4.184   1.860
 1246TIP3    H1 3660   8.789   4.228   1.886
 1246TIP3    H2 3661   8.706   4.105   1.913
 1247TIP3   OH2 3662   8.657   4.475   1.918
 1247TIP3    H1 3663   8.646   4.504   2.008
 1247TIP3    H2 3664   8.636   4.382   1.920
 1248TIP3   OH2 3665   0.278   4.319   1.949
 1248TIP3    H1 3666   0.183   4.329   1.952
 1248TIP3    H2 3667   0.294   4.256   1.878
 1249TIP3   OH2 3668   8.760   4.448   1.361
 1249TIP3    H1 3669   8.784   4.479   1.274
 1249TIP3    H2 3670   8.843   4.443   1.409
 1250TIP3   OH2 3671   8.879   5.274   2.001
 1250TIP3    H1 3672   8.796   5.320   2.008
 1250TIP3    H2 3673   8.917   5.279   2.089
 1251TIP3   OH2 3674   8.834   5.019   1.819
 1251TIP3    H1 3675   8.782   5.099   1.830
 1251TIP3    H2 3676   8.769   4.950   1.805
 1252TIP3   OH2 3677   8.769   4.926   2.252
 1252TIP3    H1 3678   8.763   4.868   2.175
 1252TIP3    H2 3679   8.766   4.866   2.326
 1253TIP3   OH2 3680   8.240   4.296   2.306
 1253TIP3    H1 3681   8.261   4.205   2.328
 1253TIP3    H2 3682   8.219   4.294   2.213
 1254TIP3   OH2 3683   8.334   4.712   1.910
 1254TIP3    H1 3684   8.375   4.651   1.848
 1254TIP3    H2 3685   8.253   4.740   1.867
 1255TIP3   OH2 3686   0.023   4.583   2.271
 1255TIP3    H1 3687   0.055   4.526   2.341
 1255TIP3    H2 3688   0.096   4.588   2.209
 1256TIP3   OH2 3689   0.098   4.901   2.018
 1256TIP3    H1 3690   0.012   4.861   2.021
 1256TIP3    H2 3691   0.152   4.847   2.076
 1257TIP3   OH2 3692   8.532   4.333   2.303
 1257TIP3    H1 3693   8.573   4.338   2.390
 1257TIP3    H2 3694   8.439   4.321   2.321
 1258TIP3   OH2 3695   8.796   4.300   2.176
 1258TIP3    H1 3696   8.723   4.262   2.227
 1258TIP3    H2 3697   8.874   4.278   2.227
 1259TIP3   OH2 3698   0.130   4.256   2.311
 1259TIP3    H1 3699   0.144   4.166   2.340
 1259TIP3    H2 3700   0.121   4.306   2.393
 1260TIP3   OH2 3701   8.539   3.867   2.397
 1260TIP3    H1 3702   8.608   3.806   2.372
 1260TIP3    H2 3703   8.499   3.893   2.315
 1261TIP3   OH2 3704   8.621   4.093   2.524
 1261TIP3    H1 3705   8.607   4.015   2.470
 1261TIP3    H2 3706   8.533   4.130   2.536
 1262TIP3   OH2 3707   0.238   5.518   1.510
 1262TIP3    H1 3708   0.169   5.455   1.490
 1262TIP3    H2 3709   0.316   5.483   1.468
 1263TIP3   OH2 3710   0.280   5.055   1.350
 1263TIP3    H1 3711   0.323   4.972   1.330
 1263TIP3    H2 3712   0.298   5.110   1.273
 1264TIP3   OH2 3713   0.330   4.987   1.878
 1264TIP3    H1 3714   0.364   4.901   1.901
 1264TIP3    H2 3715   0.366   5.005   1.792
 1265TIP3   OH2 3716   0.425   4.736   1.948
 1265TIP3    H1 3717   0.354   4.684   1.985
 1265TIP3    H2 3718   0.503   4.682   1.961
 1266TIP3   OH2 3719   0.117   4.426   1.469
 1266TIP3    H1 3720   0.196   4.429   1.415
 1266TIP3    H2 3721   0.146   4.453   1.556
 1267TIP3   OH2 3722   0.240   4.531   1.698
 1267TIP3    H1 3723   0.172   4.562   1.758
 1267TIP3    H2 3724   0.272   4.611   1.655
 1268TIP3   OH2 3725   0.674   4.145   2.237
 1268TIP3    H1 3726   0.738   4.085   2.200
 1268TIP3    H2 3727   0.642   4.196   2.163
 1269TIP3   OH2 3728   0.534   4.260   2.033
 1269TIP3    H1 3729   0.447   4.298   2.045
 1269TIP3    H2 3730   0.518   4.178   1.985
 1270TIP3   OH2 3731   0.444   4.009   1.941
 1270TIP3    H1 3732   0.356   3.988   1.910
 1270TIP3    H2 3733   0.490   3.926   1.941
 1271TIP3   OH2 3734   8.293   3.876   2.574
 1271TIP3    H1 3735   8.344   3.819   2.517
 1271TIP3    H2 3736   8.253   3.817   2.638
 1272TIP3   OH2 3737   0.193   3.997   2.368
 1272TIP3    H1 3738   0.213   3.974   2.458
 1272TIP3    H2 3739   0.278   3.998   2.324
 1273TIP3   OH2 3740   0.113   5.453   1.837
 1273TIP3    H1 3741   0.066   5.391   1.894
 1273TIP3    H2 3742   0.080   5.539   1.863
 1274TIP3   OH2 3743   1.377   4.960   0.601
 1274TIP3    H1 3744   1.349   5.050   0.585
 1274TIP3    H2 3745   1.295   4.910   0.603
 1275TIP3   OH2 3746   1.370   4.914   1.033
 1275TIP3    H1 3747   1.423   4.905   1.112
 1275TIP3    H2 3748   1.330   4.828   1.019
 1276TIP3   OH2 3749   0.677   4.783   1.392
 1276TIP3    H1 3750   0.714   4.723   1.457
 1276TIP3    H2 3751   0.751   4.807   1.336
 1277TIP3   OH2 3752   1.638   5.219   0.694
 1277TIP3    H1 3753   1.625   5.152   0.761
 1277TIP3    H2 3754   1.658   5.298   0.744
 1278TIP3   OH2 3755   0.637   5.195   1.068
 1278TIP3    H1 3756   0.645   5.100   1.069
 1278TIP3    H2 3757   0.728   5.227   1.065
 1279TIP3   OH2 3758   0.407   4.715   1.079
 1279TIP3    H1 3759   0.456   4.635   1.100
 1279TIP3    H2 3760   0.456   4.755   1.007
 1280TIP3   OH2 3761   1.261   5.585   0.734
 1280TIP3    H1 3762   1.317   5.551   0.664
 1280TIP3    H2 3763   1.294   5.544   0.814
 1281TIP3   OH2 3764   1.182   5.130   1.056
 1281TIP3    H1 3765   1.228   5.052   1.026
 1281TIP3    H2 3766   1.251   5.191   1.081
 1282TIP3   OH2 3767   2.220   4.462   1.049
 1282TIP3    H1 3768   2.233   4.545   1.095
 1282TIP3    H2 3769   2.247   4.480   0.959
 1283TIP3   OH2 3770   1.594   4.638   1.090
 1283TIP3    H1 3771   1.609   4.547   1.116
 1283TIP3    H2 3772   1.550   4.631   1.005
 1284TIP3   OH2 3773   0.929   4.269   1.066
 1284TIP3    H1 3774   0.909   4.326   0.992
 1284TIP3    H2 3775   0.957   4.187   1.026
 1285TIP3   OH2 3776   1.684   4.468   0.689
 1285TIP3    H1 3777   1.727   4.439   0.769
 1285TIP3    H2 3778   1.754   4.508   0.637
 1286TIP3   OH2 3779   0.558   4.497   1.153
 1286TIP3    H1 3780   0.639   4.478   1.200
 1286TIP3    H2 3781   0.565   4.447   1.072
 1287TIP3   OH2 3782   0.989   4.700   0.987
 1287TIP3    H1 3783   1.083   4.684   0.995
 1287TIP3    H2 3784   0.952   4.614   0.968
 1288TIP3   OH2 3785   2.267   4.683   1.213
 1288TIP3    H1 3786   2.178   4.716   1.211
 1288TIP3    H2 3787   2.304   4.718   1.294
 1289TIP3   OH2 3788   0.921   4.299   1.489
 1289TIP3    H1 3789   0.865   4.336   1.421
 1289TIP3    H2 3790   0.872   4.309   1.570
 1290TIP3   OH2 3791   1.286   5.202   0.494
 1290TIP3    H1 3792   1.219   5.203   0.425
 1290TIP3    H2 3793   1.299   5.294   0.516
 1291TIP3   OH2 3794   1.023   5.059   1.271
 1291TIP3    H1 3795   0.965   5.131   1.297
 1291TIP3    H2 3796   1.073   5.095   1.198
 1292TIP3   OH2 3797   1.799   4.398   0.925
 1292TIP3    H1 3798   1.746   4.396   1.004
 1292TIP3    H2 3799   1.857   4.473   0.936
 1293TIP3   OH2 3800   0.793   4.396   1.263
 1293TIP3    H1 3801   0.851   4.470   1.280
 1293TIP3    H2 3802   0.837   4.345   1.195
 1294TIP3   OH2 3803   0.859   5.262   1.363
 1294TIP3    H1 3804   0.842   5.352   1.335
 1294TIP3    H2 3805   0.787   5.243   1.424
 1295TIP3   OH2 3806   1.661   5.470   0.830
 1295TIP3    H1 3807   1.574   5.461   0.870
 1295TIP3    H2 3808   1.648   5.526   0.754
 1296TIP3   OH2 3809   2.029   4.353   1.228
 1296TIP3    H1 3810   1.943   4.372   1.191
 1296TIP3    H2 3811   2.091   4.378   1.159
 1297TIP3   OH2 3812   1.250   4.010   1.235
 1297TIP3    H1 3813   1.248   3.921   1.268
 1297TIP3    H2 3814   1.173   4.052   1.274
 1298TIP3   OH2 3815   1.432   5.498   0.539
 1298TIP3    H1 3816   1.480   5.425   0.499
 1298TIP3    H2 3817   1.472   5.576   0.502
 1299TIP3   OH2 3818   1.559   5.273   0.436
 1299TIP3    H1 3819   1.478   5.222   0.433
 1299TIP3    H2 3820   1.600   5.248   0.519
 1300TIP3   OH2 3821   1.904   5.367   1.181
 1300TIP3    H1 3822   1.891   5.291   1.124
 1300TIP3    H2 3823   1.889   5.442   1.124
 1301TIP3   OH2 3824   1.133   4.824   0.551
 1301TIP3    H1 3825   1.060   4.882   0.574
 1301TIP3    H2 3826   1.135   4.825   0.455
 1302TIP3   OH2 3827   1.169   4.539   0.340
 1302TIP3    H1 3828   1.177   4.635   0.339
 1302TIP3    H2 3829   1.162   4.515   0.248
 1303TIP3   OH2 3830   2.091   5.022   1.054
 1303TIP3    H1 3831   2.007   5.067   1.054
 1303TIP3    H2 3832   2.129   5.040   0.968
 1304TIP3   OH2 3833   1.585   4.911   0.432
 1304TIP3    H1 3834   1.524   4.939   0.500
 1304TIP3    H2 3835   1.666   4.891   0.479
 1305TIP3   OH2 3836   1.787   4.888   1.366
 1305TIP3    H1 3837   1.789   4.972   1.413
 1305TIP3    H2 3838   1.704   4.888   1.319
 1306TIP3   OH2 3839   0.807   4.839   0.832
 1306TIP3    H1 3840   0.786   4.773   0.765
 1306TIP3    H2 3841   0.879   4.800   0.882
 1307TIP3   OH2 3842   0.914   5.216   0.992
 1307TIP3    H1 3843   0.924   5.276   0.918
 1307TIP3    H2 3844   1.003   5.185   1.010
 1308TIP3   OH2 3845   0.886   4.830   1.209
 1308TIP3    H1 3846   0.927   4.798   1.129
 1308TIP3    H2 3847   0.935   4.910   1.230
 1309TIP3   OH2 3848   1.419   5.455   0.960
 1309TIP3    H1 3849   1.418   5.535   1.012
 1309TIP3    H2 3850   1.413   5.384   1.024
 1310TIP3   OH2 3851   1.064   5.365   1.522
 1310TIP3    H1 3852   1.005   5.422   1.572
 1310TIP3    H2 3853   1.005   5.315   1.465
 1311TIP3   OH2 3854   1.534   4.753   0.172
 1311TIP3    H1 3855   1.571   4.821   0.228
 1311TIP3    H2 3856   1.527   4.795   0.086
 1312TIP3   OH2 3857   0.828   4.929   1.663
 1312TIP3    H1 3858   0.830   5.021   1.691
 1312TIP3    H2 3859   0.737   4.913   1.642
 1313TIP3   OH2 3860   0.863   5.522   1.627
 1313TIP3    H1 3861   0.837   5.535   1.535
 1313TIP3    H2 3862   0.781   5.501   1.672
 1314TIP3   OH2 3863   1.891   3.901   0.242
 1314TIP3    H1 3864   1.802   3.873   0.264
 1314TIP3    H2 3865   1.890   3.996   0.259
 1315TIP3   OH2 3866   0.430   5.095   1.588
 1315TIP3    H1 3867   0.380   5.080   1.508
 1315TIP3    H2 3868   0.473   5.011   1.605
 1316TIP3   OH2 3869   2.148   5.724   1.263
 1316TIP3    H1 3870   2.149   5.630   1.275
 1316TIP3    H2 3871   2.066   5.752   1.305
 1317TIP3   OH2 3872   1.251   5.509   1.382
 1317TIP3    H1 3873   1.242   5.601   1.409
 1317TIP3    H2 3874   1.185   5.462   1.434
 1318TIP3   OH2 3875   2.033   4.839   1.527
 1318TIP3    H1 3876   1.949   4.847   1.484
 1318TIP3    H2 3877   2.052   4.745   1.526
 1319TIP3   OH2 3878   0.661   5.244   1.554
 1319TIP3    H1 3879   0.715   5.234   1.633
 1319TIP3    H2 3880   0.581   5.195   1.574
 1320TIP3   OH2 3881   1.008   4.084   1.341
 1320TIP3    H1 3882   0.923   4.052   1.311
 1320TIP3    H2 3883   0.988   4.163   1.391
 1321TIP3   OH2 3884   1.577   4.207   1.556
 1321TIP3    H1 3885   1.651   4.180   1.610
 1321TIP3    H2 3886   1.500   4.192   1.612
 1322TIP3   OH2 3887   1.791   4.623   1.445
 1322TIP3    H1 3888   1.750   4.616   1.531
 1322TIP3    H2 3889   1.777   4.713   1.418
 1323TIP3   OH2 3890   7.431   0.681   7.185
 1323TIP3    H1 3891   7.395   0.666   7.097
 1323TIP3    H2 3892   7.517   0.720   7.169
 1324TIP3   OH2 3893   0.964   4.599   1.338
 1324TIP3    H1 3894   0.928   4.608   1.426
 1324TIP3    H2 3895   0.942   4.682   1.294
 1325TIP3   OH2 3896   0.839   4.477   0.901
 1325TIP3    H1 3897   0.749   4.445   0.914
 1325TIP3    H2 3898   0.847   4.487   0.807
 1326TIP3   OH2 3899   1.286   4.626   0.658
 1326TIP3    H1 3900   1.213   4.687   0.652
 1326TIP3    H2 3901   1.346   4.652   0.588
 1327TIP3   OH2 3902   1.518   4.827   1.668
 1327TIP3    H1 3903   1.489   4.760   1.729
 1327TIP3    H2 3904   1.611   4.840   1.690
 1328TIP3   OH2 3905   1.494   4.609   0.839
 1328TIP3    H1 3906   1.415   4.626   0.788
 1328TIP3    H2 3907   1.541   4.542   0.788
 1329TIP3   OH2 3908   0.804   4.606   1.568
 1329TIP3    H1 3909   0.872   4.653   1.614
 1329TIP3    H2 3910   0.788   4.528   1.621
 1330TIP3   OH2 3911   0.441   4.190   1.088
 1330TIP3    H1 3912   0.479   4.199   1.175
 1330TIP3    H2 3913   0.367   4.131   1.100
 1331TIP3   OH2 3914   1.527   4.838   1.256
 1331TIP3    H1 3915   1.559   4.772   1.194
 1331TIP3    H2 3916   1.487   4.787   1.327
 1332TIP3   OH2 3917   1.192   4.351   0.983
 1332TIP3    H1 3918   1.125   4.333   1.050
 1332TIP3    H2 3919   1.272   4.313   1.019
 1333TIP3   OH2 3920   0.598   4.340   0.924
 1333TIP3    H1 3921   0.538   4.286   0.976
 1333TIP3    H2 3922   0.605   4.294   0.841
 1334TIP3   OH2 3923   0.883   4.492   0.633
 1334TIP3    H1 3924   0.977   4.481   0.646
 1334TIP3    H2 3925   0.872   4.490   0.538
 1335TIP3   OH2 3926   1.625   4.367   1.133
 1335TIP3    H1 3927   1.617   4.382   1.227
 1335TIP3    H2 3928   1.551   4.309   1.112
 1336TIP3   OH2 3929   1.859   6.071   1.346
 1336TIP3    H1 3930   1.857   6.083   1.252
 1336TIP3    H2 3931   1.939   6.114   1.375
 1337TIP3   OH2 3932   0.806   5.179   1.781
 1337TIP3    H1 3933   0.889   5.200   1.824
 1337TIP3    H2 3934   0.740   5.198   1.846
 1338TIP3   OH2 3935   1.259   4.650   1.036
 1338TIP3    H1 3936   1.308   4.589   0.981
 1338TIP3    H2 3937   1.256   4.607   1.122
 1339TIP3   OH2 3938   1.234   4.545   1.294
 1339TIP3    H1 3939   1.146   4.576   1.317
 1339TIP3    H2 3940   1.292   4.596   1.350
 1340TIP3   OH2 3941   1.857   5.160   1.004
 1340TIP3    H1 3942   1.895   5.211   0.932
 1340TIP3    H2 3943   1.776   5.124   0.968
 1341TIP3   OH2 3944   1.320   4.285   0.196
 1341TIP3    H1 3945   1.336   4.264   0.104
 1341TIP3    H2 3946   1.372   4.364   0.211
 1342TIP3   OH2 3947   1.373   5.241   1.424
 1342TIP3    H1 3948   1.431   5.230   1.500
 1342TIP3    H2 3949   1.341   5.330   1.431
 1343TIP3   OH2 3950   1.495   4.486   0.236
 1343TIP3    H1 3951   1.489   4.502   0.331
 1343TIP3    H2 3952   1.509   4.573   0.198
 1344TIP3   OH2 3953   0.666   4.924   1.055
 1344TIP3    H1 3954   0.708   4.905   0.971
 1344TIP3    H2 3955   0.727   4.889   1.120
 1345TIP3   OH2 3956   0.550   4.880   1.706
 1345TIP3    H1 3957   0.587   4.864   1.793
 1345TIP3    H2 3958   0.494   4.804   1.689
 1346TIP3   OH2 3959   1.298   4.998   1.689
 1346TIP3    H1 3960   1.250   4.976   1.610
 1346TIP3    H2 3961   1.382   4.951   1.680
 1347TIP3   OH2 3962   1.522   5.524   1.306
 1347TIP3    H1 3963   1.427   5.517   1.309
 1347TIP3    H2 3964   1.545   5.570   1.387
 1348TIP3   OH2 3965   1.998   4.617   0.148
 1348TIP3    H1 3966   1.922   4.571   0.182
 1348TIP3    H2 3967   1.962   4.698   0.111
 1349TIP3   OH2 3968   2.149   5.437   1.279
 1349TIP3    H1 3969   2.054   5.428   1.267
 1349TIP3    H2 3970   2.186   5.413   1.193
 1350TIP3   OH2 3971   1.640   5.391   0.192
 1350TIP3    H1 3972   1.628   5.356   0.281
 1350TIP3    H2 3973   1.595   5.328   0.136
 1351TIP3   OH2 3974   1.621   5.031   0.905
 1351TIP3    H1 3975   1.532   5.010   0.933
 1351TIP3    H2 3976   1.659   4.948   0.879
 1352TIP3   OH2 3977   0.931   4.990   0.626
 1352TIP3    H1 3978   0.918   5.085   0.620
 1352TIP3    H2 3979   0.884   4.964   0.705
 1353TIP3   OH2 3980   1.053   5.558   1.181
 1353TIP3    H1 3981   1.084   5.633   1.129
 1353TIP3    H2 3982   1.131   5.528   1.227
 1354TIP3   OH2 3983   1.419   5.246   1.150
 1354TIP3    H1 3984   1.401   5.242   1.244
 1354TIP3    H2 3985   1.508   5.212   1.142
 1355TIP3   OH2 3986   1.672   5.753   1.170
 1355TIP3    H1 3987   1.597   5.695   1.182
 1355TIP3    H2 3988   1.651   5.802   1.090
 1356TIP3   OH2 3989   0.763   4.362   1.707
 1356TIP3    H1 3990   0.668   4.368   1.711
 1356TIP3    H2 3991   0.788   4.310   1.783
 1357TIP3   OH2 3992   1.597   5.054   0.194
 1357TIP3    H1 3993   1.576   5.023   0.282
 1357TIP3    H2 3994   1.693   5.063   0.195
 1358TIP3   OH2 3995   0.483   5.417   1.427
 1358TIP3    H1 3996   0.491   5.342   1.369
 1358TIP3    H2 3997   0.549   5.403   1.495
 1359TIP3   OH2 3998   1.599   4.427   1.395
 1359TIP3    H1 3999   1.675   4.478   1.423
 1359TIP3    H2 4000   1.593   4.355   1.457
 1360TIP3   OH2 4001   1.473   4.136   0.532
 1360TIP3    H1 4002   1.382   4.162   0.547
 1360TIP3    H2 4003   1.516   4.215   0.498
 1361TIP3   OH2 4004   1.130   4.399   0.718
 1361TIP3    H1 4005   1.192   4.469   0.698
 1361TIP3    H2 4006   1.148   4.376   0.810
 1362TIP3   OH2 4007   1.434   4.663   1.450
 1362TIP3    H1 4008   1.460   4.710   1.529
 1362TIP3    H2 4009   1.486   4.583   1.451
 1363TIP3   OH2 4010   1.280   4.090   0.834
 1363TIP3    H1 4011   1.323   4.176   0.842
 1363TIP3    H2 4012   1.269   4.077   0.740
 1364TIP3   OH2 4013   2.055   4.563   1.428
 1364TIP3    H1 4014   1.961   4.576   1.439
 1364TIP3    H2 4015   2.062   4.498   1.358
 1365TIP3   OH2 4016   1.720   4.778   0.839
 1365TIP3    H1 4017   1.641   4.724   0.847
 1365TIP3    H2 4018   1.786   4.732   0.890
 1366TIP3   OH2 4019   0.751   3.984   1.301
 1366TIP3    H1 4020   0.745   3.923   1.228
 1366TIP3    H2 4021   0.744   3.930   1.379
 1367TIP3   OH2 4022   0.477   5.767   1.777
 1367TIP3    H1 4023   0.558   5.767   1.828
 1367TIP3    H2 4024   0.458   5.674   1.762
 1368TIP3   OH2 4025   0.954   5.706   1.807
 1368TIP3    H1 4026   1.047   5.686   1.821
 1368TIP3    H2 4027   0.926   5.645   1.739
 1369TIP3   OH2 4028   1.571   5.640   1.550
 1369TIP3    H1 4029   1.579   5.566   1.611
 1369TIP3    H2 4030   1.649   5.692   1.566
 1370TIP3   OH2 4031   0.580   5.166   1.949
 1370TIP3    H1 4032   0.613   5.076   1.955
 1370TIP3    H2 4033   0.511   5.161   1.883
 1371TIP3   OH2 4034   1.216   5.266   1.728
 1371TIP3    H1 4035   1.173   5.287   1.645
 1371TIP3    H2 4036   1.259   5.182   1.713
 1372TIP3   OH2 4037   1.683   5.298   1.330
 1372TIP3    H1 4038   1.762   5.327   1.284
 1372TIP3    H2 4039   1.622   5.371   1.321
 1373TIP3   OH2 4040   0.709   4.913   1.940
 1373TIP3    H1 4041   0.788   4.903   1.887
 1373TIP3    H2 4042   0.741   4.931   2.028
 1374TIP3   OH2 4043   1.034   4.766   1.590
 1374TIP3    H1 4044   0.971   4.831   1.619
 1374TIP3    H2 4045   1.096   4.814   1.535
 1375TIP3   OH2 4046   1.568   5.180   1.683
 1375TIP3    H1 4047   1.643   5.146   1.634
 1375TIP3    H2 4048   1.566   5.128   1.764
 1376TIP3   OH2 4049   7.679   0.746   7.090
 1376TIP3    H1 4050   7.707   0.663   7.050
 1376TIP3    H2 4051   7.705   0.813   7.027
 1377TIP3   OH2 4052   1.172   4.571   1.728
 1377TIP3    H1 4053   1.184   4.498   1.668
 1377TIP3    H2 4054   1.132   4.640   1.674
 1378TIP3   OH2 4055   1.184   4.375   1.521
 1378TIP3    H1 4056   1.213   4.412   1.438
 1378TIP3    H2 4057   1.092   4.351   1.507
 1379TIP3   OH2 4058   1.198   4.927   1.437
 1379TIP3    H1 4059   1.282   4.940   1.394
 1379TIP3    H2 4060   1.136   4.977   1.384
 1380TIP3   OH2 4061   1.775   4.858   1.779
 1380TIP3    H1 4062   1.804   4.794   1.844
 1380TIP3    H2 4063   1.855   4.904   1.754
 1381TIP3   OH2 4064   1.810   5.132   1.504
 1381TIP3    H1 4065   1.756   5.191   1.451
 1381TIP3    H2 4066   1.900   5.148   1.474
 1382TIP3   OH2 4067   1.056   4.662   1.966
 1382TIP3    H1 4068   0.987   4.598   1.985
 1382TIP3    H2 4069   1.090   4.636   1.880
 1383TIP3   OH2 4070   1.303   4.144   1.620
 1383TIP3    H1 4071   1.266   4.227   1.588
 1383TIP3    H2 4072   1.235   4.079   1.605
 1384TIP3   OH2 4073   1.436   4.619   1.825
 1384TIP3    H1 4074   1.444   4.605   1.919
 1384TIP3    H2 4075   1.346   4.596   1.804
 1385TIP3   OH2 4076   1.665   4.558   1.673
 1385TIP3    H1 4077   1.593   4.565   1.736
 1385TIP3    H2 4078   1.742   4.543   1.727
 1386TIP3   OH2 4079   1.909   4.531   1.807
 1386TIP3    H1 4080   1.922   4.439   1.830
 1386TIP3    H2 4081   1.892   4.575   1.890
 1387TIP3   OH2 4082   0.880   4.452   2.033
 1387TIP3    H1 4083   0.884   4.363   1.997
 1387TIP3    H2 4084   0.922   4.445   2.118
 1388TIP3   OH2 4085   1.371   4.116   1.883
 1388TIP3    H1 4086   1.445   4.055   1.879
 1388TIP3    H2 4087   1.342   4.126   1.792
 1389TIP3   OH2 4088   1.472   4.336   2.015
 1389TIP3    H1 4089   1.439   4.261   1.966
 1389TIP3    H2 4090   1.397   4.394   2.024
 1390TIP3   OH2 4091   1.928   5.770   0.741
 1390TIP3    H1 4092   1.946   5.820   0.820
 1390TIP3    H2 4093   1.864   5.823   0.693
 1391TIP3   OH2 4094   1.975   5.824   1.026
 1391TIP3    H1 4095   1.934   5.739   1.015
 1391TIP3    H2 4096   2.050   5.808   1.083
 1392TIP3   OH2 4097   2.027   5.519   1.609
 1392TIP3    H1 4098   1.960   5.529   1.677
 1392TIP3    H2 4099   2.073   5.604   1.609
 1393TIP3   OH2 4100   1.872   5.042   0.229
 1393TIP3    H1 4101   1.933   5.113   0.206
 1393TIP3    H2 4102   1.914   4.999   0.304
 1394TIP3   OH2 4103   2.005   4.903   0.426
 1394TIP3    H1 4104   1.936   4.884   0.489
 1394TIP3    H2 4105   2.073   4.947   0.477
 1395TIP3   OH2 4106   2.034   5.304   0.845
 1395TIP3    H1 4107   2.090   5.240   0.801
 1395TIP3    H2 4108   2.039   5.382   0.790
 1396TIP3   OH2 4109   1.837   5.580   1.023
 1396TIP3    H1 4110   1.771   5.629   1.073
 1396TIP3    H2 4111   1.788   5.543   0.949
 1397TIP3   OH2 4112   1.890   4.847   0.040
 1397TIP3    H1 4113   1.832   4.884  -0.027
 1397TIP3    H2 4114   1.883   4.909   0.113
 1398TIP3   OH2 4115   7.658   0.314   7.231
 1398TIP3    H1 4116   7.667   0.344   7.141
 1398TIP3    H2 4117   7.718   0.240   7.239
 1399TIP3   OH2 4118   1.796   4.806   0.577
 1399TIP3    H1 4119   1.826   4.716   0.560
 1399TIP3    H2 4120   1.772   4.806   0.669
 1400TIP3   OH2 4121   0.416   4.820   1.329
 1400TIP3    H1 4122   0.404   4.786   1.240
 1400TIP3    H2 4123   0.510   4.814   1.345
 1401TIP3   OH2 4124   2.069   5.177   1.410
 1401TIP3    H1 4125   2.132   5.109   1.391
 1401TIP3    H2 4126   2.092   5.249   1.351
 1402TIP3   OH2 4127   2.239   4.961   1.396
 1402TIP3    H1 4128   2.168   4.919   1.443
 1402TIP3    H2 4129   2.316   4.908   1.416
 1403TIP3   OH2 4130   1.629   4.064  -0.009
 1403TIP3    H1 4131   1.714   4.023  -0.021
 1403TIP3    H2 4132   1.617   4.069   0.086
 1404TIP3   OH2 4133   1.890   4.549   0.524
 1404TIP3    H1 4134   1.981   4.529   0.546
 1404TIP3    H2 4135   1.883   4.532   0.430
 1405TIP3   OH2 4136   1.935   4.637   0.962
 1405TIP3    H1 4137   2.013   4.658   0.911
 1405TIP3    H2 4138   1.949   4.681   1.046
 1406TIP3   OH2 4139   2.004   4.793   1.184
 1406TIP3    H1 4140   1.934   4.822   1.243
 1406TIP3    H2 4141   2.037   4.874   1.144
 1407TIP3   OH2 4142   0.615   4.521   1.974
 1407TIP3    H1 4143   0.710   4.517   1.984
 1407TIP3    H2 4144   0.583   4.441   2.014
 1408TIP3   OH2 4145   2.473   4.392   1.728
 1408TIP3    H1 4146   2.536   4.335   1.684
 1408TIP3    H2 4147   2.437   4.446   1.658
 1409TIP3   OH2 4148   1.940   4.228   0.496
 1409TIP3    H1 4149   1.986   4.239   0.579
 1409TIP3    H2 4150   1.889   4.148   0.506
 1410TIP3   OH2 4151   0.586   4.208   1.324
 1410TIP3    H1 4152   0.640   4.128   1.321
 1410TIP3    H2 4153   0.648   4.279   1.311
 1411TIP3   OH2 4154   0.375   4.477   1.370
 1411TIP3    H1 4155   0.426   4.472   1.289
 1411TIP3    H2 4156   0.409   4.555   1.415
 1412TIP3   OH2 4157   2.325   4.520   1.539
 1412TIP3    H1 4158   2.253   4.560   1.589
 1412TIP3    H2 4159   2.282   4.457   1.482
 1413TIP3   OH2 4160   2.105   4.186   0.103
 1413TIP3    H1 4161   2.018   4.211   0.071
 1413TIP3    H2 4162   2.144   4.269   0.132
 1414TIP3   OH2 4163   1.559   5.718   0.434
 1414TIP3    H1 4164   1.627   5.711   0.367
 1414TIP3    H2 4165   1.592   5.782   0.497
 1415TIP3   OH2 4166   0.594   4.056   1.707
 1415TIP3    H1 4167   0.540   4.046   1.785
 1415TIP3    H2 4168   0.537   4.101   1.644
 1416TIP3   OH2 4169   0.642   5.477   1.785
 1416TIP3    H1 4170   0.548   5.463   1.775
 1416TIP3    H2 4171   0.653   5.508   1.874
 1417TIP3   OH2 4172   0.841   5.541   1.353
 1417TIP3    H1 4173   0.792   5.615   1.317
 1417TIP3    H2 4174   0.924   5.542   1.305
 1418TIP3   OH2 4175   1.235   5.777   1.460
 1418TIP3    H1 4176   1.274   5.770   1.547
 1418TIP3    H2 4177   1.299   5.827   1.409
 1419TIP3   OH2 4178   1.426   5.925   1.325
 1419TIP3    H1 4179   1.486   5.872   1.273
 1419TIP3    H2 4180   1.483   5.977   1.382
 1420TIP3   OH2 4181   2.232   4.275   1.420
 1420TIP3    H1 4182   2.149   4.280   1.372
 1420TIP3    H2 4183   2.258   4.184   1.414
 1421TIP3   OH2 4184   0.759   5.753   1.201
 1421TIP3    H1 4185   0.685   5.796   1.245
 1421TIP3    H2 4186   0.719   5.698   1.135
 1422TIP3   OH2 4187   1.149   5.775   1.035
 1422TIP3    H1 4188   1.078   5.773   0.972
 1422TIP3    H2 4189   1.154   5.866   1.063
 1423TIP3   OH2 4190   1.414   5.709   1.061
 1423TIP3    H1 4191   1.322   5.732   1.049
 1423TIP3    H2 4192   1.461   5.763   0.998
 1424TIP3   OH2 4193   1.593   5.866   0.920
 1424TIP3    H1 4194   1.539   5.945   0.913
 1424TIP3    H2 4195   1.641   5.863   0.837
 1425TIP3   OH2 4196   0.791   5.517   1.045
 1425TIP3    H1 4197   0.819   5.488   0.958
 1425TIP3    H2 4198   0.873   5.527   1.094
 1426TIP3   OH2 4199   1.411   4.192   1.084
 1426TIP3    H1 4200   1.360   4.125   1.130
 1426TIP3    H2 4201   1.453   4.145   1.012
 1427TIP3   OH2 4202   1.978   4.114   0.987
 1427TIP3    H1 4203   2.012   4.171   0.918
 1427TIP3    H2 4204   1.905   4.068   0.946
 1428TIP3   OH2 4205   2.088   4.217   0.750
 1428TIP3    H1 4206   2.162   4.166   0.717
 1428TIP3    H2 4207   2.111   4.308   0.729
 1429TIP3   OH2 4208   1.065   4.034   0.987
 1429TIP3    H1 4209   1.141   4.058   0.934
 1429TIP3    H2 4210   1.101   4.012   1.073
 1430TIP3   OH2 4211   1.649   4.163   0.879
 1430TIP3    H1 4212   1.686   4.119   0.802
 1430TIP3    H2 4213   1.710   4.234   0.897
 1431TIP3   OH2 4214   1.742   4.045   0.518
 1431TIP3    H1 4215   1.651   4.069   0.498
 1431TIP3    H2 4216   1.736   3.994   0.598
 1432TIP3   OH2 4217   1.192   4.159   0.582
 1432TIP3    H1 4218   1.121   4.101   0.608
 1432TIP3    H2 4219   1.172   4.242   0.625
 1433TIP3   OH2 4220   0.898   4.184   1.945
 1433TIP3    H1 4221   0.864   4.114   2.000
 1433TIP3    H2 4222   0.991   4.189   1.967
 1434TIP3   OH2 4223   1.151   4.169   2.054
 1434TIP3    H1 4224   1.229   4.155   2.000
 1434TIP3    H2 4225   1.156   4.101   2.121
 1435TIP3   OH2 4226   1.976   4.265   1.840
 1435TIP3    H1 4227   1.993   4.239   1.930
 1435TIP3    H2 4228   2.061   4.263   1.797
 1436TIP3   OH2 4229   1.891   5.795   1.348
 1436TIP3    H1 4230   1.818   5.768   1.291
 1436TIP3    H2 4231   1.881   5.890   1.357
 1437TIP3   OH2 4232   3.170   5.174   0.101
 1437TIP3    H1 4233   3.148   5.264   0.074
 1437TIP3    H2 4234   3.095   5.122   0.074
 1438TIP3   OH2 4235   3.165   5.172   0.516
 1438TIP3    H1 4236   3.216   5.157   0.595
 1438TIP3    H2 4237   3.120   5.089   0.500
 1439TIP3   OH2 4238   2.466   5.039   0.862
 1439TIP3    H1 4239   2.504   4.989   0.933
 1439TIP3    H2 4240   2.542   5.068   0.810
 1440TIP3   OH2 4241   3.455   5.473   0.201
 1440TIP3    H1 4242   3.430   5.409   0.267
 1440TIP3    H2 4243   3.463   5.556   0.249
 1441TIP3   OH2 4244   2.468   5.452   0.540
 1441TIP3    H1 4245   2.447   5.359   0.551
 1441TIP3    H2 4246   2.563   5.455   0.537
 1442TIP3   OH2 4247   2.155   4.674   0.364
 1442TIP3    H1 4248   2.114   4.754   0.396
 1442TIP3    H2 4249   2.108   4.653   0.283
 1443TIP3   OH2 4250   2.231   4.990   0.557
 1443TIP3    H1 4251   2.281   4.913   0.584
 1443TIP3    H2 4252   2.297   5.056   0.537
 1444TIP3   OH2 4253   3.079   5.904   0.216
 1444TIP3    H1 4254   3.126   5.852   0.152
 1444TIP3    H2 4255   3.094   5.860   0.300
 1445TIP3   OH2 4256   2.980   5.394   0.517
 1445TIP3    H1 4257   3.025   5.313   0.491
 1445TIP3    H2 4258   3.049   5.450   0.553
 1446TIP3   OH2 4259   4.003   4.713   0.537
 1446TIP3    H1 4260   4.019   4.800   0.575
 1446TIP3    H2 4261   4.033   4.721   0.447
 1447TIP3   OH2 4262   3.383   4.883   0.558
 1447TIP3    H1 4263   3.415   4.797   0.587
 1447TIP3    H2 4264   3.341   4.865   0.474
 1448TIP3   OH2 4265   2.744   4.548   0.514
 1448TIP3    H1 4266   2.724   4.625   0.460
 1448TIP3    H2 4267   2.688   4.479   0.479
 1449TIP3   OH2 4268   3.425   4.642   0.164
 1449TIP3    H1 4269   3.491   4.635   0.234
 1449TIP3    H2 4270   3.473   4.678   0.089
 1450TIP3   OH2 4271   2.363   4.765   0.650
 1450TIP3    H1 4272   2.446   4.750   0.695
 1450TIP3    H2 4273   2.370   4.715   0.569
 1451TIP3   OH2 4274   2.787   4.966   0.460
 1451TIP3    H1 4275   2.881   4.950   0.468
 1451TIP3    H2 4276   2.751   4.884   0.427
 1452TIP3   OH2 4277   4.057   4.935   0.706
 1452TIP3    H1 4278   3.966   4.964   0.701
 1452TIP3    H2 4279   4.089   4.968   0.790
 1453TIP3   OH2 4280   2.718   4.550   0.967
 1453TIP3    H1 4281   2.667   4.583   0.894
 1453TIP3    H2 4282   2.663   4.566   1.044
 1454TIP3   OH2 4283   0.117   1.202   7.232
 1454TIP3    H1 4284   0.076   1.172   7.151
 1454TIP3    H2 4285   0.067   1.280   7.256
 1455TIP3   OH2 4286   2.811   5.324   0.727
 1455TIP3    H1 4287   2.758   5.396   0.762
 1455TIP3    H2 4288   2.860   5.364   0.655
 1456TIP3   OH2 4289   3.596   4.659   0.376
 1456TIP3    H1 4290   3.551   4.640   0.458
 1456TIP3    H2 4291   3.648   4.737   0.395
 1457TIP3   OH2 4292   2.608   4.654   0.736
 1457TIP3    H1 4293   2.663   4.729   0.760
 1457TIP3    H2 4294   2.655   4.612   0.665
 1458TIP3   OH2 4295   2.655   5.524   0.834
 1458TIP3    H1 4296   2.642   5.614   0.804
 1458TIP3    H2 4297   2.579   5.504   0.887
 1459TIP3   OH2 4298   2.066   5.219   0.145
 1459TIP3    H1 4299   2.034   5.235   0.056
 1459TIP3    H2 4300   2.082   5.306   0.181
 1460TIP3   OH2 4301   3.459   5.721   0.337
 1460TIP3    H1 4302   3.374   5.706   0.378
 1460TIP3    H2 4303   3.450   5.806   0.294
 1461TIP3   OH2 4304   3.803   4.608   0.706
 1461TIP3    H1 4305   3.718   4.630   0.667
 1461TIP3    H2 4306   3.867   4.635   0.640
 1462TIP3   OH2 4307   3.062   4.243   0.697
 1462TIP3    H1 4308   3.058   4.151   0.724
 1462TIP3    H2 4309   2.985   4.283   0.736
 1463TIP3   OH2 4310   0.238   1.587   7.272
 1463TIP3    H1 4311   0.279   1.502   7.260
 1463TIP3    H2 4312   0.301   1.649   7.235
 1464TIP3   OH2 4313   0.355   1.345   7.237
 1464TIP3    H1 4314   0.283   1.282   7.231
 1464TIP3    H2 4315   0.409   1.313   7.309
 1465TIP3   OH2 4316   3.707   5.606   0.685
 1465TIP3    H1 4317   3.683   5.532   0.629
 1465TIP3    H2 4318   3.690   5.684   0.632
 1466TIP3   OH2 4319   0.021   0.830   7.216
 1466TIP3    H1 4320  -0.060   0.879   7.201
 1466TIP3    H2 4321   0.060   0.822   7.129
 1467TIP3   OH2 4322  -0.006   0.598   6.954
 1467TIP3    H1 4323   0.066   0.660   6.964
 1467TIP3    H2 4324   0.036   0.513   6.942
 1468TIP3   OH2 4325   3.859   5.265   0.533
 1468TIP3    H1 4326   3.776   5.313   0.533
 1468TIP3    H2 4327   3.894   5.279   0.445
 1469TIP3   OH2 4328   0.374   0.867   7.185
 1469TIP3    H1 4329   0.323   0.911   7.253
 1469TIP3    H2 4330   0.462   0.861   7.221
 1470TIP3   OH2 4331   3.581   5.139   0.851
 1470TIP3    H1 4332   3.576   5.222   0.899
 1470TIP3    H2 4333   3.499   5.136   0.801
 1471TIP3   OH2 4334   2.587   5.091   0.308
 1471TIP3    H1 4335   2.555   5.029   0.243
 1471TIP3    H2 4336   2.662   5.048   0.349
 1472TIP3   OH2 4337   2.731   5.511   0.447
 1472TIP3    H1 4338   2.706   5.496   0.356
 1472TIP3    H2 4339   2.818   5.472   0.455
 1473TIP3   OH2 4340   2.681   5.088   0.684
 1473TIP3    H1 4341   2.722   5.053   0.605
 1473TIP3    H2 4342   2.727   5.170   0.701
 1474TIP3   OH2 4343   3.221   5.708   0.464
 1474TIP3    H1 4344   3.204   5.790   0.511
 1474TIP3    H2 4345   3.208   5.640   0.529
 1475TIP3   OH2 4346   2.853   5.619   1.005
 1475TIP3    H1 4347   2.794   5.678   1.052
 1475TIP3    H2 4348   2.796   5.569   0.947
 1476TIP3   OH2 4349   0.198   0.793   6.994
 1476TIP3    H1 4350   0.261   0.829   7.056
 1476TIP3    H2 4351   0.193   0.858   6.924
 1477TIP3   OH2 4352   2.612   5.174   1.146
 1477TIP3    H1 4353   2.618   5.267   1.168
 1477TIP3    H2 4354   2.518   5.157   1.137
 1478TIP3   OH2 4355   2.961   5.640   0.009
 1478TIP3    H1 4356   3.036   5.699   0.005
 1478TIP3    H2 4357   2.888   5.694   0.039
 1479TIP3   OH2 4358   2.649   5.784   1.087
 1479TIP3    H1 4359   2.621   5.794   0.996
 1479TIP3    H2 4360   2.567   5.770   1.135
 1480TIP3   OH2 4361   0.716   0.006   7.050
 1480TIP3    H1 4362   0.652   0.016   7.120
 1480TIP3    H2 4363   0.678   0.053   6.976
 1481TIP3   OH2 4364   2.468   4.928   0.107
 1481TIP3    H1 4365   2.398   4.985   0.077
 1481TIP3    H2 4366   2.424   4.847   0.134
 1482TIP3   OH2 4367   2.237   5.340   1.041
 1482TIP3    H1 4368   2.168   5.323   0.977
 1482TIP3    H2 4369   2.272   5.253   1.063
 1483TIP3   OH2 4370   2.075   5.544   0.704
 1483TIP3    H1 4371   2.159   5.580   0.732
 1483TIP3    H2 4372   2.012   5.614   0.720
 1484TIP3   OH2 4373   3.930   5.978   0.829
 1484TIP3    H1 4374   3.934   5.882   0.831
 1484TIP3    H2 4375   3.838   5.999   0.841
 1485TIP3   OH2 4376   3.041   5.765   0.869
 1485TIP3    H1 4377   3.033   5.856   0.898
 1485TIP3    H2 4378   2.973   5.718   0.917
 1486TIP3   OH2 4379   2.268   5.704   0.209
 1486TIP3    H1 4380   2.311   5.705   0.294
 1486TIP3    H2 4381   2.218   5.623   0.208
 1487TIP3   OH2 4382   3.830   5.088   1.004
 1487TIP3    H1 4383   3.745   5.102   0.963
 1487TIP3    H2 4384   3.845   4.994   0.998
 1488TIP3   OH2 4385   2.441   5.522   1.005
 1488TIP3    H1 4386   2.488   5.516   1.088
 1488TIP3    H2 4387   2.367   5.462   1.015
 1489TIP3   OH2 4388   2.824   4.334   0.824
 1489TIP3    H1 4389   2.739   4.302   0.795
 1489TIP3    H2 4390   2.806   4.415   0.871
 1490TIP3   OH2 4391   3.363   4.454   1.025
 1490TIP3    H1 4392   3.432   4.430   1.088
 1490TIP3    H2 4393   3.281   4.439   1.073
 1491TIP3   OH2 4394   3.584   4.877   0.945
 1491TIP3    H1 4395   3.543   4.870   1.031
 1491TIP3    H2 4396   3.566   4.966   0.915
 1492TIP3   OH2 4397   0.030   0.207   7.014
 1492TIP3    H1 4398  -0.019   0.186   7.094
 1492TIP3    H2 4399  -0.001   0.143   6.950
 1493TIP3   OH2 4400   2.759   4.866   0.831
 1493TIP3    H1 4401   2.714   4.874   0.915
 1493TIP3    H2 4402   2.738   4.947   0.785
 1494TIP3   OH2 4403   2.649   4.752   0.356
 1494TIP3    H1 4404   2.561   4.726   0.383
 1494TIP3    H2 4405   2.659   4.719   0.267
 1495TIP3   OH2 4406   3.122   4.825   0.081
 1495TIP3    H1 4407   3.071   4.897   0.043
 1495TIP3    H2 4408   3.178   4.796   0.009
 1496TIP3   OH2 4409   3.304   5.083   1.153
 1496TIP3    H1 4410   3.277   5.017   1.216
 1496TIP3    H2 4411   3.396   5.101   1.175
 1497TIP3   OH2 4412   3.279   4.831   0.311
 1497TIP3    H1 4413   3.215   4.857   0.245
 1497TIP3    H2 4414   3.325   4.756   0.272
 1498TIP3   OH2 4415   2.599   4.882   1.054
 1498TIP3    H1 4416   2.611   4.946   1.124
 1498TIP3    H2 4417   2.580   4.800   1.100
 1499TIP3   OH2 4418   8.587   0.173   7.077
 1499TIP3    H1 4419   8.620   0.151   7.164
 1499TIP3    H2 4420   8.545   0.258   7.087
 1500TIP3   OH2 4421   2.160   4.451   0.628
 1500TIP3    H1 4422   2.233   4.479   0.682
 1500TIP3    H2 4423   2.200   4.418   0.548
 1501TIP3   OH2 4424   2.201   4.438   0.137
 1501TIP3    H1 4425   2.265   4.478   0.079
 1501TIP3    H2 4426   2.128   4.499   0.139
 1502TIP3   OH2 4427   3.331   5.087   0.729
 1502TIP3    H1 4428   3.356   5.019   0.666
 1502TIP3    H2 4429   3.286   5.039   0.799
 1503TIP3   OH2 4430   3.007   4.529   0.400
 1503TIP3    H1 4431   2.929   4.533   0.456
 1503TIP3    H2 4432   3.080   4.522   0.462
 1504TIP3   OH2 4433   2.416   4.623   0.421
 1504TIP3    H1 4434   2.325   4.625   0.392
 1504TIP3    H2 4435   2.446   4.534   0.402
 1505TIP3   OH2 4436   2.673   4.626   0.115
 1505TIP3    H1 4437   2.767   4.636   0.103
 1505TIP3    H2 4438   2.637   4.635   0.026
 1506TIP3   OH2 4439   3.451   4.618   0.612
 1506TIP3    H1 4440   3.435   4.635   0.704
 1506TIP3    H2 4441   3.381   4.559   0.585
 1507TIP3   OH2 4442   8.482   0.418   7.139
 1507TIP3    H1 4443   8.386   0.417   7.144
 1507TIP3    H2 4444   8.501   0.480   7.068
 1508TIP3   OH2 4445   3.635   6.314   0.868
 1508TIP3    H1 4446   3.637   6.311   0.773
 1508TIP3    H2 4447   3.711   6.367   0.893
 1509TIP3   OH2 4448   2.595   5.438   1.246
 1509TIP3    H1 4449   2.672   5.470   1.293
 1509TIP3    H2 4450   2.523   5.445   1.310
 1510TIP3   OH2 4451   3.056   4.905   0.510
 1510TIP3    H1 4452   3.122   4.856   0.462
 1510TIP3    H2 4453   3.053   4.865   0.597
 1511TIP3   OH2 4454   2.557   4.384   0.384
 1511TIP3    H1 4455   2.531   4.308   0.435
 1511TIP3    H2 4456   2.584   4.349   0.299
 1512TIP3   OH2 4457   3.026   4.811   0.775
 1512TIP3    H1 4458   2.939   4.843   0.798
 1512TIP3    H2 4459   3.086   4.864   0.828
 1513TIP3   OH2 4460   8.693   0.977   7.155
 1513TIP3    H1 4461   8.622   0.917   7.132
 1513TIP3    H2 4462   8.666   1.015   7.238
 1514TIP3   OH2 4463   3.631   5.414   0.502
 1514TIP3    H1 4464   3.666   5.463   0.427
 1514TIP3    H2 4465   3.552   5.372   0.469
 1515TIP3   OH2 4466   0.283   0.287   7.085
 1515TIP3    H1 4467   0.199   0.260   7.048
 1515TIP3    H2 4468   0.281   0.382   7.082
 1516TIP3   OH2 4469   3.166   5.497   0.916
 1516TIP3    H1 4470   3.213   5.487   0.999
 1516TIP3    H2 4471   3.124   5.583   0.923
 1517TIP3   OH2 4472   0.316   0.560   7.126
 1517TIP3    H1 4473   0.410   0.564   7.147
 1517TIP3    H2 4474   0.300   0.641   7.078
 1518TIP3   OH2 4475   2.451   5.163   0.537
 1518TIP3    H1 4476   2.489   5.149   0.450
 1518TIP3    H2 4477   2.519   5.136   0.598
 1519TIP3   OH2 4478   8.873   1.123   7.010
 1519TIP3    H1 4479   8.821   1.185   6.959
 1519TIP3    H2 4480   8.807   1.069   7.055
 1520TIP3   OH2 4481   2.338   5.109   1.170
 1520TIP3    H1 4482   2.348   5.091   1.263
 1520TIP3    H2 4483   2.262   5.057   1.144
 1521TIP3   OH2 4484   3.072   5.241   1.195
 1521TIP3    H1 4485   3.003   5.181   1.169
 1521TIP3    H2 4486   3.153   5.199   1.167
 1522TIP3   OH2 4487   3.311   5.781   0.797
 1522TIP3    H1 4488   3.216   5.771   0.799
 1522TIP3    H2 4489   3.333   5.819   0.883
 1523TIP3   OH2 4490   3.951   5.696   0.782
 1523TIP3    H1 4491   3.856   5.685   0.787
 1523TIP3    H2 4492   3.975   5.668   0.694
 1524TIP3   OH2 4493   3.410   5.277   0.398
 1524TIP3    H1 4494   3.320   5.256   0.424
 1524TIP3    H2 4495   3.444   5.196   0.361
 1525TIP3   OH2 4496   2.574   5.520   0.210
 1525TIP3    H1 4497   2.563   5.595   0.151
 1525TIP3    H2 4498   2.491   5.515   0.257
 1526TIP3   OH2 4499   8.079   0.632   7.202
 1526TIP3    H1 4500   8.124   0.716   7.213
 1526TIP3    H2 4501   7.992   0.647   7.239
 1527TIP3   OH2 4502   2.664   5.278   0.116
 1527TIP3    H1 4503   2.638   5.365   0.144
 1527TIP3    H2 4504   2.637   5.221   0.188
 1528TIP3   OH2 4505   2.859   5.838   0.662
 1528TIP3    H1 4506   2.890   5.916   0.615
 1528TIP3    H2 4507   2.935   5.810   0.713
 1529TIP3   OH2 4508   2.495   5.746   0.058
 1529TIP3    H1 4509   2.408   5.738   0.098
 1529TIP3    H2 4510   2.514   5.839   0.059
 1530TIP3   OH2 4511   3.208   5.495   0.643
 1530TIP3    H1 4512   3.191   5.495   0.738
 1530TIP3    H2 4513   3.291   5.448   0.633
 1531TIP3   OH2 4514   3.459   5.983   0.668
 1531TIP3    H1 4515   3.390   5.922   0.696
 1531TIP3    H2 4516   3.416   6.040   0.605
 1532TIP3   OH2 4517   2.544   4.627   1.172
 1532TIP3    H1 4518   2.449   4.638   1.178
 1532TIP3    H2 4519   2.569   4.584   1.253
 1533TIP3   OH2 4520   2.283   5.711   0.815
 1533TIP3    H1 4521   2.340   5.655   0.868
 1533TIP3    H2 4522   2.297   5.799   0.849
 1534TIP3   OH2 4523   8.434   1.173   7.088
 1534TIP3    H1 4524   8.512   1.146   7.136
 1534TIP3    H2 4525   8.444   1.267   7.076
 1535TIP3   OH2 4526   8.192   0.877   7.271
 1535TIP3    H1 4527   8.131   0.921   7.330
 1535TIP3    H2 4528   8.206   0.940   7.200
 1536TIP3   OH2 4529   3.400   4.680   0.872
 1536TIP3    H1 4530   3.474   4.729   0.909
 1536TIP3    H2 4531   3.388   4.606   0.931
 1537TIP3   OH2 4532   3.293   4.416   0.076
 1537TIP3    H1 4533   3.272   4.436  -0.015
 1537TIP3    H2 4534   3.332   4.497   0.110
 1538TIP3   OH2 4535   2.949   4.621   0.144
 1538TIP3    H1 4536   3.008   4.693   0.122
 1538TIP3    H2 4537   2.968   4.601   0.235
 1539TIP3   OH2 4538   3.233   4.923   0.928
 1539TIP3    H1 4539   3.255   4.969   1.009
 1539TIP3    H2 4540   3.282   4.841   0.933
 1540TIP3   OH2 4541   3.094   4.319   0.236
 1540TIP3    H1 4542   3.068   4.396   0.287
 1540TIP3    H2 4543   3.169   4.348   0.184
 1541TIP3   OH2 4544   8.460   1.444   7.073
 1541TIP3    H1 4545   8.431   1.515   7.017
 1541TIP3    H2 4546   8.453   1.479   7.162
 1542TIP3   OH2 4547   2.650   4.349   0.114
 1542TIP3    H1 4548   2.638   4.443   0.121
 1542TIP3    H2 4549   2.743   4.338   0.094
 1543TIP3   OH2 4550   3.844   4.810   0.913
 1543TIP3    H1 4551   3.751   4.825   0.928
 1543TIP3    H2 4552   3.847   4.746   0.841
 1544TIP3   OH2 4553   3.507   5.022   0.313
 1544TIP3    H1 4554   3.429   4.969   0.328
 1544TIP3    H2 4555   3.574   4.982   0.368
 1545TIP3   OH2 4556   8.192   1.069   7.027
 1545TIP3    H1 4557   8.271   1.116   7.052
 1545TIP3    H2 4558   8.223   0.995   6.975
 1546TIP3   OH2 4559   8.213   0.395   7.178
 1546TIP3    H1 4560   8.162   0.476   7.179
 1546TIP3    H2 4561   8.162   0.336   7.123
 1547TIP3   OH2 4562   3.435   5.984   0.255
 1547TIP3    H1 4563   3.391   6.024   0.180
 1547TIP3    H2 4564   3.526   6.012   0.247
 1548TIP3   OH2 4565   2.558   4.257   0.794
 1548TIP3    H1 4566   2.535   4.228   0.706
 1548TIP3    H2 4567   2.548   4.179   0.848
 1549TIP3   OH2 4568   2.095   5.487   0.218
 1549TIP3    H1 4569   2.051   5.533   0.290
 1549TIP3    H2 4570   2.047   5.513   0.140
 1550TIP3   OH2 4571   2.287   6.030   1.255
 1550TIP3    H1 4572   2.369   6.032   1.306
 1550TIP3    H2 4573   2.271   5.937   1.239
 1551TIP3   OH2 4574   2.752   5.958   1.276
 1551TIP3    H1 4575   2.837   5.922   1.302
 1551TIP3    H2 4576   2.722   5.900   1.206
 1552TIP3   OH2 4577   3.368   5.881   1.046
 1552TIP3    H1 4578   3.381   5.813   1.111
 1552TIP3    H2 4579   3.438   5.945   1.063
 1553TIP3   OH2 4580   2.382   5.424   1.426
 1553TIP3    H1 4581   2.400   5.330   1.434
 1553TIP3    H2 4582   2.295   5.428   1.386
 1554TIP3   OH2 4583   8.327   0.865   6.913
 1554TIP3    H1 4584   8.387   0.839   6.983
 1554TIP3    H2 4585   8.379   0.856   6.833
 1555TIP3   OH2 4586   3.007   5.519   1.211
 1555TIP3    H1 4587   2.961   5.538   1.130
 1555TIP3    H2 4588   3.038   5.429   1.200
 1556TIP3   OH2 4589   3.475   5.554   0.827
 1556TIP3    H1 4590   3.553   5.585   0.781
 1556TIP3    H2 4591   3.411   5.625   0.815
 1557TIP3   OH2 4592   2.495   5.165   1.429
 1557TIP3    H1 4593   2.575   5.159   1.376
 1557TIP3    H2 4594   2.527   5.189   1.516
 1558TIP3   OH2 4595   8.503   0.782   7.112
 1558TIP3    H1 4596   8.479   0.752   7.200
 1558TIP3    H2 4597   8.544   0.706   7.071
 1559TIP3   OH2 4598   2.868   5.065   1.095
 1559TIP3    H1 4599   2.783   5.108   1.106
 1559TIP3    H2 4600   2.899   5.095   1.010
 1560TIP3   OH2 4601   8.620   0.579   6.959
 1560TIP3    H1 4602   8.613   0.519   6.885
 1560TIP3    H2 4603   8.713   0.597   6.967
 1561TIP3   OH2 4604   3.356   5.439   1.176
 1561TIP3    H1 4605   3.425   5.398   1.124
 1561TIP3    H2 4606   3.351   5.385   1.256
 1562TIP3   OH2 4607   2.968   4.832   1.202
 1562TIP3    H1 4608   2.971   4.763   1.136
 1562TIP3    H2 4609   2.934   4.908   1.155
 1563TIP3   OH2 4610   2.978   4.634   0.999
 1563TIP3    H1 4611   3.004   4.673   0.915
 1563TIP3    H2 4612   2.886   4.609   0.986
 1564TIP3   OH2 4613   2.982   5.163   0.868
 1564TIP3    H1 4614   3.068   5.205   0.865
 1564TIP3    H2 4615   2.925   5.221   0.818
 1565TIP3   OH2 4616   3.571   5.124   1.253
 1565TIP3    H1 4617   3.620   5.042   1.262
 1565TIP3    H2 4618   3.639   5.192   1.248
 1566TIP3   OH2 4619   3.599   5.382   0.994
 1566TIP3    H1 4620   3.544   5.442   0.944
 1566TIP3    H2 4621   3.687   5.397   0.961
 1567TIP3   OH2 4622   2.852   4.913   1.445
 1567TIP3    H1 4623   2.781   4.852   1.466
 1567TIP3    H2 4624   2.880   4.888   1.357
 1568TIP3   OH2 4625   3.097   4.403   1.104
 1568TIP3    H1 4626   3.057   4.483   1.070
 1568TIP3    H2 4627   3.030   4.336   1.091
 1569TIP3   OH2 4628   3.222   4.872   1.308
 1569TIP3    H1 4629   3.210   4.860   1.402
 1569TIP3    H2 4630   3.136   4.852   1.271
 1570TIP3   OH2 4631   3.466   4.824   1.180
 1570TIP3    H1 4632   3.387   4.826   1.234
 1570TIP3    H2 4633   3.536   4.803   1.241
 1571TIP3   OH2 4634   3.709   4.796   1.325
 1571TIP3    H1 4635   3.720   4.702   1.332
 1571TIP3    H2 4636   3.702   4.827   1.415
 1572TIP3   OH2 4637   2.684   4.693   1.508
 1572TIP3    H1 4638   2.689   4.603   1.476
 1572TIP3    H2 4639   2.721   4.690   1.596
 1573TIP3   OH2 4640   3.162   4.377   1.369
 1573TIP3    H1 4641   3.231   4.311   1.362
 1573TIP3    H2 4642   3.132   4.390   1.279
 1574TIP3   OH2 4643   3.259   4.593   1.512
 1574TIP3    H1 4644   3.227   4.521   1.458
 1574TIP3    H2 4645   3.187   4.655   1.515
 1575TIP3   OH2 4646   7.949   1.036   7.147
 1575TIP3    H1 4647   8.034   1.050   7.105
 1575TIP3    H2 4648   7.887   1.026   7.074
 1576TIP3   OH2 4649   1.806   5.762   0.268
 1576TIP3    H1 4650   1.808   5.852   0.301
 1576TIP3    H2 4651   1.876   5.718   0.316
 1577TIP3   OH2 4652   2.012   5.652   0.429
 1577TIP3    H1 4653   2.004   5.592   0.503
 1577TIP3    H2 4654   2.065   5.725   0.462
 1578TIP3   OH2 4655   3.690   6.075   0.237
 1578TIP3    H1 4656   3.745   6.061   0.313
 1578TIP3    H2 4657   3.751   6.083   0.164
 1579TIP3   OH2 4658   3.790   6.043   0.511
 1579TIP3    H1 4659   3.743   5.961   0.526
 1579TIP3    H2 4660   3.879   6.026   0.541
 1580TIP3   OH2 4661   3.835   5.781   1.076
 1580TIP3    H1 4662   3.759   5.783   1.135
 1580TIP3    H2 4663   3.882   5.862   1.095
 1581TIP3   OH2 4664   0.822   0.957   7.217
 1581TIP3    H1 4665   0.744   0.912   7.250
 1581TIP3    H2 4666   0.797   1.049   7.213
 1582TIP3   OH2 4667   3.819   5.540   0.339
 1582TIP3    H1 4668   3.871   5.467   0.306
 1582TIP3    H2 4669   3.820   5.604   0.268
 1583TIP3   OH2 4670   3.632   5.818   0.531
 1583TIP3    H1 4671   3.568   5.872   0.579
 1583TIP3    H2 4672   3.582   5.780   0.460
 1584TIP3   OH2 4673   3.579   5.003   0.048
 1584TIP3    H1 4674   3.574   4.907   0.041
 1584TIP3    H2 4675   3.558   5.021   0.140
 1585TIP3   OH2 4676   2.203   5.081   0.813
 1585TIP3    H1 4677   2.195   5.052   0.722
 1585TIP3    H2 4678   2.297   5.077   0.831
 1586TIP3   OH2 4679   3.856   5.425   0.901
 1586TIP3    H1 4680   3.926   5.360   0.887
 1586TIP3    H2 4681   3.863   5.484   0.826
 1587TIP3   OH2 4682   4.046   5.221   0.904
 1587TIP3    H1 4683   3.970   5.177   0.942
 1587TIP3    H2 4684   4.119   5.162   0.921
 1588TIP3   OH2 4685   0.603   0.538   7.206
 1588TIP3    H1 4686   0.640   0.450   7.213
 1588TIP3    H2 4687   0.661   0.584   7.146
 1589TIP3   OH2 4688   3.724   4.896   0.446
 1589TIP3    H1 4689   3.805   4.915   0.399
 1589TIP3    H2 4690   3.737   4.933   0.533
 1590TIP3   OH2 4691   3.794   5.040   0.676
 1590TIP3    H1 4692   3.722   5.068   0.733
 1590TIP3    H2 4693   3.817   5.119   0.627
 1591TIP3   OH2 4694   2.422   4.758   1.443
 1591TIP3    H1 4695   2.516   4.757   1.463
 1591TIP3    H2 4696   2.387   4.680   1.485
 1592TIP3   OH2 4697   4.267   4.647   1.212
 1592TIP3    H1 4698   4.331   4.590   1.169
 1592TIP3    H2 4699   4.228   4.697   1.140
 1593TIP3   OH2 4700   3.684   4.484  -0.025
 1593TIP3    H1 4701   3.729   4.473   0.059
 1593TIP3    H2 4702   3.625   4.409  -0.030
 1594TIP3   OH2 4703   2.385   4.476   0.798
 1594TIP3    H1 4704   2.439   4.398   0.807
 1594TIP3    H2 4705   2.447   4.547   0.781
 1595TIP3   OH2 4706   2.172   4.736   0.857
 1595TIP3    H1 4707   2.228   4.735   0.779
 1595TIP3    H2 4708   2.192   4.819   0.900
 1596TIP3   OH2 4709   4.114   4.770   1.022
 1596TIP3    H1 4710   4.041   4.809   1.070
 1596TIP3    H2 4711   4.072   4.706   0.964
 1597TIP3   OH2 4712   2.200   4.308   0.389
 1597TIP3    H1 4713   2.108   4.283   0.400
 1597TIP3    H2 4714   2.201   4.360   0.309
 1598TIP3   OH2 4715   2.387   4.281   1.178
 1598TIP3    H1 4716   2.346   4.288   1.264
 1598TIP3    H2 4717   2.335   4.338   1.121
 1599TIP3   OH2 4718   2.428   5.754   1.252
 1599TIP3    H1 4719   2.335   5.733   1.262
 1599TIP3    H2 4720   2.463   5.750   1.342
 1600TIP3   OH2 4721   2.629   5.798   0.805
 1600TIP3    H1 4722   2.578   5.872   0.773
 1600TIP3    H2 4723   2.715   5.809   0.764
 1601TIP3   OH2 4724   3.028   6.031   0.946
 1601TIP3    H1 4725   3.065   6.024   1.034
 1601TIP3    H2 4726   3.089   6.086   0.898
 1602TIP3   OH2 4727   3.214   6.192   0.820
 1602TIP3    H1 4728   3.281   6.154   0.763
 1602TIP3    H2 4729   3.264   6.247   0.881
 1603TIP3   OH2 4730   4.023   4.516   0.910
 1603TIP3    H1 4731   3.935   4.508   0.872
 1603TIP3    H2 4732   4.060   4.428   0.904
 1604TIP3   OH2 4733   2.300   6.033   0.860
 1604TIP3    H1 4734   2.210   6.058   0.839
 1604TIP3    H2 4735   2.327   6.095   0.928
 1605TIP3   OH2 4736   2.523   6.029   0.700
 1605TIP3    H1 4737   2.442   6.032   0.751
 1605TIP3    H2 4738   2.497   6.055   0.612
 1606TIP3   OH2 4739   2.922   6.053   0.499
 1606TIP3    H1 4740   2.854   6.065   0.433
 1606TIP3    H2 4741   2.937   6.140   0.535
 1607TIP3   OH2 4742   3.173   5.962   0.554
 1607TIP3    H1 4743   3.083   5.990   0.534
 1607TIP3    H2 4744   3.227   6.033   0.520
 1608TIP3   OH2 4745   3.352   6.152   0.471
 1608TIP3    H1 4746   3.338   6.242   0.441
 1608TIP3    H2 4747   3.383   6.106   0.393
 1609TIP3   OH2 4748   2.199   5.821   0.554
 1609TIP3    H1 4749   2.196   5.799   0.647
 1609TIP3    H2 4750   2.278   5.778   0.522
 1610TIP3   OH2 4751   2.414   5.698   0.441
 1610TIP3    H1 4752   2.424   5.613   0.484
 1610TIP3    H2 4753   2.501   5.739   0.448
 1611TIP3   OH2 4754   2.680   5.786   0.456
 1611TIP3    H1 4755   2.700   5.694   0.443
 1611TIP3    H2 4756   2.733   5.812   0.531
 1612TIP3   OH2 4757   3.233   4.441   0.544
 1612TIP3    H1 4758   3.192   4.371   0.595
 1612TIP3    H2 4759   3.301   4.398   0.493
 1613TIP3   OH2 4760   3.736   4.360   0.425
 1613TIP3    H1 4761   3.770   4.415   0.355
 1613TIP3    H2 4762   3.643   4.383   0.430
 1614TIP3   OH2 4763   3.849   4.458   0.194
 1614TIP3    H1 4764   3.922   4.402   0.169
 1614TIP3    H2 4765   3.882   4.547   0.185
 1615TIP3   OH2 4766   2.490   4.170   0.542
 1615TIP3    H1 4767   2.403   4.133   0.558
 1615TIP3    H2 4768   2.549   4.095   0.546
 1616TIP3   OH2 4769   2.323   4.072   0.301
 1616TIP3    H1 4770   2.355   4.107   0.218
 1616TIP3    H2 4771   2.287   4.147   0.347
 1617TIP3   OH2 4772   2.961   4.172   0.436
 1617TIP3    H1 4773   3.004   4.224   0.368
 1617TIP3    H2 4774   2.998   4.206   0.518
 1618TIP3   OH2 4775   3.446   4.324   0.412
 1618TIP3    H1 4776   3.457   4.289   0.323
 1618TIP3    H2 4777   3.453   4.247   0.469
 1619TIP3   OH2 4778   3.512   4.265  -0.011
 1619TIP3    H1 4779   3.431   4.313   0.008
 1619TIP3    H2 4780   3.498   4.178   0.027
 1620TIP3   OH2 4781   7.922   1.369   7.248
 1620TIP3    H1 4782   7.934   1.327   7.163
 1620TIP3    H2 4783   7.930   1.463   7.230
 1621TIP3   OH2 4784   2.457   4.157   0.073
 1621TIP3    H1 4785   2.503   4.073   0.066
 1621TIP3    H2 4786   2.527   4.221   0.086
 1622TIP3   OH2 4787   2.908   4.376   0.025
 1622TIP3    H1 4788   2.970   4.325   0.078
 1622TIP3    H2 4789   2.925   4.467   0.049
 1623TIP3   OH2 4790   2.697   4.420   1.422
 1623TIP3    H1 4791   2.661   4.353   1.481
 1623TIP3    H2 4792   2.788   4.428   1.448
 1624TIP3   OH2 4793   2.944   4.426   1.545
 1624TIP3    H1 4794   3.023   4.405   1.495
 1624TIP3    H2 4795   2.938   4.356   1.610
 1625TIP3   OH2 4796   3.770   4.524   1.333
 1625TIP3    H1 4797   3.786   4.495   1.423
 1625TIP3    H2 4798   3.855   4.518   1.290
 1626TIP3   OH2 4799   3.664   6.040   0.851
 1626TIP3    H1 4800   3.596   6.013   0.789
 1626TIP3    H2 4801   3.650   6.134   0.863
 1627TIP3   OH2 4802   4.243   5.304   0.376
 1627TIP3    H1 4803   4.287   5.233   0.423
 1627TIP3    H2 4804   4.308   5.337   0.315
 1628TIP3   OH2 4805   4.232   5.653   0.019
 1628TIP3    H1 4806   4.215   5.560   0.033
 1628TIP3    H2 4807   4.198   5.696   0.098
 1629TIP3   OH2 4808   0.953   0.713   7.168
 1629TIP3    H1 4809   0.911   0.799   7.174
 1629TIP3    H2 4810   0.937   0.672   7.253
 1630TIP3   OH2 4811   4.038   5.217   0.054
 1630TIP3    H1 4812   4.070   5.129   0.074
 1630TIP3    H2 4813   3.959   5.203   0.002
 1631TIP3   OH2 4814   4.516   4.817   0.055
 1631TIP3    H1 4815   4.580   4.879   0.021
 1631TIP3    H2 4816   4.477   4.777  -0.023
 1632TIP3   OH2 4817   4.143   4.978   0.128
 1632TIP3    H1 4818   4.223   4.967   0.180
 1632TIP3    H2 4819   4.158   4.926   0.049
 1633TIP3   OH2 4820   4.513   4.794   0.475
 1633TIP3    H1 4821   4.459   4.829   0.404
 1633TIP3    H2 4822   4.460   4.807   0.554
 1634TIP3   OH2 4823   4.665   5.585   0.283
 1634TIP3    H1 4824   4.598   5.594   0.350
 1634TIP3    H2 4825   4.623   5.614   0.202
 1635TIP3   OH2 4826   4.372   4.905   0.263
 1635TIP3    H1 4827   4.427   4.979   0.288
 1635TIP3    H2 4828   4.418   4.863   0.190
 1636TIP3   OH2 4829   4.418   5.809   0.371
 1636TIP3    H1 4830   4.414   5.905   0.371
 1636TIP3    H2 4831   4.358   5.782   0.442
 1637TIP3   OH2 4832   5.502   4.849   0.270
 1637TIP3    H1 4833   5.411   4.864   0.243
 1637TIP3    H2 4834   5.552   4.917   0.223
 1638TIP3   OH2 4835   4.849   4.495   0.197
 1638TIP3    H1 4836   4.839   4.403   0.218
 1638TIP3    H2 4837   4.772   4.537   0.236
 1639TIP3   OH2 4838   5.453   5.357   0.265
 1639TIP3    H1 4839   5.492   5.441   0.239
 1639TIP3    H2 4840   5.381   5.345   0.203
 1640TIP3   OH2 4841   4.469   5.311   0.195
 1640TIP3    H1 4842   4.401   5.313   0.127
 1640TIP3    H2 4843   4.483   5.403   0.218
 1641TIP3   OH2 4844   4.632   5.840   0.545
 1641TIP3    H1 4845   4.559   5.895   0.573
 1641TIP3    H2 4846   4.591   5.760   0.513
 1642TIP3   OH2 4847   4.364   5.364   0.656
 1642TIP3    H1 4848   4.370   5.391   0.748
 1642TIP3    H2 4849   4.271   5.366   0.636
 1643TIP3   OH2 4850   4.406   5.978   0.616
 1643TIP3    H1 4851   4.360   6.023   0.545
 1643TIP3    H2 4852   4.343   5.976   0.688
 1644TIP3   OH2 4853   4.009   5.583   0.539
 1644TIP3    H1 4854   3.940   5.569   0.474
 1644TIP3    H2 4855   4.037   5.494   0.564
 1645TIP3   OH2 4856   3.868   5.728   0.141
 1645TIP3    H1 4857   3.927   5.789   0.186
 1645TIP3    H2 4858   3.799   5.783   0.105
 1646TIP3   OH2 4859   5.625   5.357   0.474
 1646TIP3    H1 4860   5.559   5.350   0.405
 1646TIP3    H2 4861   5.616   5.276   0.525
 1647TIP3   OH2 4862   4.216   5.755   0.539
 1647TIP3    H1 4863   4.263   5.743   0.621
 1647TIP3    H2 4864   4.146   5.689   0.542
 1648TIP3   OH2 4865   4.614   4.588   0.315
 1648TIP3    H1 4866   4.529   4.560   0.280
 1648TIP3    H2 4867   4.594   4.668   0.364
 1649TIP3   OH2 4868   5.129   4.741   0.587
 1649TIP3    H1 4869   5.204   4.686   0.608
 1649TIP3    H2 4870   5.053   4.683   0.596
 1650TIP3   OH2 4871   5.393   5.134   0.405
 1650TIP3    H1 4872   5.301   5.136   0.429
 1650TIP3    H2 4873   5.404   5.208   0.345
 1651TIP3   OH2 4874   4.557   5.093   0.339
 1651TIP3    H1 4875   4.507   5.107   0.420
 1651TIP3    H2 4876   4.540   5.171   0.287
 1652TIP3   OH2 4877   5.130   5.221   0.761
 1652TIP3    H1 4878   5.037   5.245   0.758
 1652TIP3    H2 4879   5.162   5.261   0.841
 1653TIP3   OH2 4880   4.371   5.111   0.538
 1653TIP3    H1 4881   4.372   5.180   0.604
 1653TIP3    H2 4882   4.358   5.030   0.587
 1654TIP3   OH2 4883   3.948   4.709   0.118
 1654TIP3    H1 4884   4.027   4.717   0.170
 1654TIP3    H2 4885   3.976   4.664   0.038
 1655TIP3   OH2 4886   5.197   5.263   0.203
 1655TIP3    H1 4887   5.175   5.342   0.152
 1655TIP3    H2 4888   5.178   5.287   0.293
 1656TIP3   OH2 4889   1.214   0.626   7.168
 1656TIP3    H1 4890   1.129   0.662   7.144
 1656TIP3    H2 4891   1.209   0.534   7.145
 1657TIP3   OH2 4892   5.247   4.887   0.176
 1657TIP3    H1 4893   5.226   4.796   0.158
 1657TIP3    H2 4894   5.245   4.930   0.090
 1658TIP3   OH2 4895   4.390   5.693   0.751
 1658TIP3    H1 4896   4.466   5.725   0.800
 1658TIP3    H2 4897   4.321   5.687   0.817
 1659TIP3   OH2 4898   4.829   5.026   0.307
 1659TIP3    H1 4899   4.738   5.054   0.302
 1659TIP3    H2 4900   4.862   5.035   0.217
 1660TIP3   OH2 4901   4.958   5.778   0.440
 1660TIP3    H1 4902   4.936   5.689   0.469
 1660TIP3    H2 4903   4.931   5.780   0.348
 1661TIP3   OH2 4904   4.256   5.377   0.034
 1661TIP3    H1 4905   4.271   5.389  -0.060
 1661TIP3    H2 4906   4.175   5.326   0.040
 1662TIP3   OH2 4907   4.086   5.346   0.665
 1662TIP3    H1 4908   4.087   5.304   0.751
 1662TIP3    H2 4909   4.014   5.304   0.618
 1663TIP3   OH2 4910   4.883   5.329   0.727
 1663TIP3    H1 4911   4.793   5.298   0.715
 1663TIP3    H2 4912   4.896   5.393   0.656
 1664TIP3   OH2 4913   4.333   4.868   0.675
 1664TIP3    H1 4914   4.237   4.878   0.679
 1664TIP3    H2 4915   4.355   4.819   0.754
 1665TIP3   OH2 4916   3.954   5.960   0.283
 1665TIP3    H1 4917   3.950   5.921   0.370
 1665TIP3    H2 4918   3.971   6.053   0.299
 1666TIP3   OH2 4919   5.616   5.093   0.231
 1666TIP3    H1 4920   5.550   5.103   0.299
 1666TIP3    H2 4921   5.699   5.091   0.278
 1667TIP3   OH2 4922   4.351   4.505   0.278
 1667TIP3    H1 4923   4.324   4.474   0.191
 1667TIP3    H2 4924   4.344   4.428   0.334
 1668TIP3   OH2 4925   4.034   6.241   0.801
 1668TIP3    H1 4926   4.106   6.234   0.864
 1668TIP3    H2 4927   3.990   6.156   0.807
 1669TIP3   OH2 4928   4.513   6.213   0.893
 1669TIP3    H1 4929   4.576   6.282   0.913
 1669TIP3    H2 4930   4.556   6.159   0.827
 1670TIP3   OH2 4931   5.156   6.107   0.509
 1670TIP3    H1 4932   5.153   6.082   0.602
 1670TIP3    H2 4933   5.228   6.170   0.504
 1671TIP3   OH2 4934   4.183   5.671   0.934
 1671TIP3    H1 4935   4.186   5.578   0.955
 1671TIP3    H2 4936   4.098   5.683   0.892
 1672TIP3   OH2 4937   4.822   5.847   0.736
 1672TIP3    H1 4938   4.778   5.833   0.652
 1672TIP3    H2 4939   4.891   5.780   0.738
 1673TIP3   OH2 4940   5.456   5.825   0.169
 1673TIP3    H1 4941   5.416   5.835   0.083
 1673TIP3    H2 4942   5.386   5.847   0.231
 1674TIP3   OH2 4943   4.380   5.407   0.927
 1674TIP3    H1 4944   4.440   5.335   0.943
 1674TIP3    H2 4945   4.376   5.454   1.010
 1675TIP3   OH2 4946   4.634   5.271   0.605
 1675TIP3    H1 4947   4.548   5.314   0.612
 1675TIP3    H2 4948   4.667   5.297   0.519
 1676TIP3   OH2 4949   5.186   5.712   0.916
 1676TIP3    H1 4950   5.257   5.744   0.860
 1676TIP3    H2 4951   5.115   5.692   0.855
 1677TIP3   OH2 4952   4.719   5.041   0.722
 1677TIP3    H1 4953   4.747   4.972   0.662
 1677TIP3    H2 4954   4.690   5.112   0.665
 1678TIP3   OH2 4955   4.778   4.855   0.516
 1678TIP3    H1 4956   4.804   4.912   0.443
 1678TIP3    H2 4957   4.685   4.838   0.502
 1679TIP3   OH2 4958   4.757   5.348   0.371
 1679TIP3    H1 4959   4.802   5.305   0.298
 1679TIP3    H2 4960   4.720   5.428   0.332
 1680TIP3   OH2 4961   5.426   5.320   0.850
 1680TIP3    H1 4962   5.421   5.225   0.840
 1680TIP3    H2 4963   5.519   5.338   0.867
 1681TIP3   OH2 4964   5.402   5.695   0.472
 1681TIP3    H1 4965   5.404   5.791   0.473
 1681TIP3    H2 4966   5.464   5.669   0.540
 1682TIP3   OH2 4967   4.623   5.172   0.945
 1682TIP3    H1 4968   4.561   5.107   0.977
 1682TIP3    H2 4969   4.656   5.136   0.863
 1683TIP3   OH2 4970   4.890   4.611   0.575
 1683TIP3    H1 4971   4.847   4.694   0.554
 1683TIP3    H2 4972   4.820   4.546   0.569
 1684TIP3   OH2 4973   5.494   4.987   0.879
 1684TIP3    H1 4974   5.486   4.892   0.890
 1684TIP3    H2 4975   5.474   5.023   0.965
 1685TIP3   OH2 4976   4.476   4.946   1.013
 1685TIP3    H1 4977   4.485   4.862   0.969
 1685TIP3    H2 4978   4.519   4.934   1.098
 1686TIP3   OH2 4979   4.948   4.629   0.852
 1686TIP3    H1 4980   5.019   4.565   0.852
 1686TIP3    H2 4981   4.911   4.623   0.764
 1687TIP3   OH2 4982   5.050   4.853   0.982
 1687TIP3    H1 4983   5.014   4.778   0.933
 1687TIP3    H2 4984   4.976   4.912   0.993
 1688TIP3   OH2 4985   5.611   6.092   0.601
 1688TIP3    H1 4986   5.544   6.024   0.600
 1688TIP3    H2 4987   5.622   6.114   0.694
 1689TIP3   OH2 4988   3.986   5.328   0.298
 1689TIP3    H1 4989   3.991   5.300   0.207
 1689TIP3    H2 4990   4.077   5.330   0.328
 1690TIP3   OH2 4991   5.752   5.735   0.467
 1690TIP3    H1 4992   5.735   5.659   0.412
 1690TIP3    H2 4993   5.706   5.807   0.424
 1691TIP3   OH2 4994   5.821   5.483   0.345
 1691TIP3    H1 4995   5.745   5.444   0.389
 1691TIP3    H2 4996   5.896   5.432   0.375
 1692TIP3   OH2 4997   4.217   5.013   0.945
 1692TIP3    H1 4998   4.311   5.010   0.965
 1692TIP3    H2 4999   4.183   4.931   0.980
 1693TIP3   OH2 5000   6.066   4.925   0.780
 1693TIP3    H1 5001   6.105   4.837   0.785
 1693TIP3    H2 5002   6.029   4.929   0.691
 1694TIP3   OH2 5003   4.166   4.712   0.297
 1694TIP3    H1 5004   4.224   4.636   0.297
 1694TIP3    H2 5005   4.224   4.787   0.294
 1695TIP3   OH2 5006   3.968   4.984   0.350
 1695TIP3    H1 5007   4.015   4.969   0.268
 1695TIP3    H2 5008   4.002   5.068   0.382
 1696TIP3   OH2 5009   5.858   5.104   0.346
 1696TIP3    H1 5010   5.879   5.049   0.421
 1696TIP3    H2 5011   5.921   5.077   0.279
 1697TIP3   OH2 5012   0.983   0.354   7.158
 1697TIP3    H1 5013   0.891   0.336   7.173
 1697TIP3    H2 5014   1.012   0.283   7.100
 1698TIP3   OH2 5015   4.181   4.553   0.677
 1698TIP3    H1 5016   4.132   4.550   0.759
 1698TIP3    H2 5017   4.125   4.602   0.617
 1699TIP3   OH2 5018   4.206   5.969   0.803
 1699TIP3    H1 5019   4.111   5.972   0.793
 1699TIP3    H2 5020   4.220   5.975   0.898
 1700TIP3   OH2 5021   4.350   6.071   0.353
 1700TIP3    H1 5022   4.279   6.080   0.289
 1700TIP3    H2 5023   4.408   6.145   0.334
 1701TIP3   OH2 5024   4.983   6.426   0.390
 1701TIP3    H1 5025   5.012   6.394   0.476
 1701TIP3    H2 5026   4.901   6.381   0.373
 1702TIP3   OH2 5027   5.837   4.704   0.406
 1702TIP3    H1 5028   5.767   4.656   0.361
 1702TIP3    H2 5029   5.918   4.670   0.367
 1703TIP3   OH2 5030   4.005   6.223   0.303
 1703TIP3    H1 5031   3.933   6.279   0.273
 1703TIP3    H2 5032   4.062   6.282   0.352
 1704TIP3   OH2 5033   3.883   6.062   0.039
 1704TIP3    H1 5034   3.917   6.014   0.114
 1704TIP3    H2 5035   3.943   6.040  -0.032
 1705TIP3   OH2 5036   5.072   4.673   0.043
 1705TIP3    H1 5037   4.989   4.649   0.085
 1705TIP3    H2 5038   5.111   4.589   0.018
 1706TIP3   OH2 5039   4.262   4.393   0.045
 1706TIP3    H1 5040   4.174   4.357   0.058
 1706TIP3    H2 5041   4.318   4.317   0.032
 1707TIP3   OH2 5042   1.742   0.246   7.216
 1707TIP3    H1 5043   1.770   0.306   7.147
 1707TIP3    H2 5044   1.788   0.277   7.294
 1708TIP3   OH2 5045   4.491   4.681   0.911
 1708TIP3    H1 5046   4.457   4.613   0.970
 1708TIP3    H2 5047   4.583   4.690   0.936
 1709TIP3   OH2 5048   4.737   4.685   1.037
 1709TIP3    H1 5049   4.814   4.662   0.986
 1709TIP3    H2 5050   4.730   4.616   1.103
 1710TIP3   OH2 5051   5.528   4.714   0.853
 1710TIP3    H1 5052   5.560   4.695   0.941
 1710TIP3    H2 5053   5.588   4.666   0.795
 1711TIP3   OH2 5054   6.037   5.650   0.392
 1711TIP3    H1 5055   5.948   5.630   0.362
 1711TIP3    H2 5056   6.025   5.717   0.458
 1712TIP3   OH2 5057   6.189   5.098   0.458
 1712TIP3    H1 5058   6.230   5.057   0.382
 1712TIP3    H2 5059   6.227   5.186   0.461
 1713TIP3   OH2 5060   6.954   5.148   0.563
 1713TIP3    H1 5061   7.004   5.097   0.500
 1713TIP3    H2 5062   6.869   5.161   0.521
 1714TIP3   OH2 5063   5.998   5.329   0.478
 1714TIP3    H1 5064   6.031   5.303   0.392
 1714TIP3    H2 5065   5.950   5.253   0.509
 1715TIP3   OH2 5066   6.316   4.892   0.592
 1715TIP3    H1 5067   6.266   4.825   0.546
 1715TIP3    H2 5068   6.278   4.975   0.563
 1716TIP3   OH2 5069   6.565   4.839   0.490
 1716TIP3    H1 5070   6.621   4.915   0.477
 1716TIP3    H2 5071   6.484   4.875   0.527
 1717TIP3   OH2 5072   0.311   5.992   1.822
 1717TIP3    H1 5073   0.345   5.904   1.835
 1717TIP3    H2 5074   0.374   6.033   1.763
 1718TIP3   OH2 5075   1.843   6.252   0.696
 1718TIP3    H1 5076   1.783   6.326   0.698
 1718TIP3    H2 5077   1.818   6.202   0.619
 1719TIP3   OH2 5078   1.894   6.535   0.832
 1719TIP3    H1 5079   1.829   6.605   0.834
 1719TIP3    H2 5080   1.862   6.469   0.893
 1720TIP3   OH2 5081   1.674   6.154   0.896
 1720TIP3    H1 5082   1.582   6.137   0.876
 1720TIP3    H2 5083   1.718   6.150   0.811
 1721TIP3   OH2 5084   1.488   6.717   1.046
 1721TIP3    H1 5085   1.490   6.788   1.110
 1721TIP3    H2 5086   1.395   6.698   1.033
 1722TIP3   OH2 5087   1.715   6.649   1.184
 1722TIP3    H1 5088   1.632   6.645   1.135
 1722TIP3    H2 5089   1.730   6.559   1.212
 1723TIP3   OH2 5090   1.202   6.012   1.174
 1723TIP3    H1 5091   1.273   5.982   1.231
 1723TIP3    H2 5092   1.122   5.988   1.220
 1724TIP3   OH2 5093   1.486   6.408   1.130
 1724TIP3    H1 5094   1.457   6.407   1.221
 1724TIP3    H2 5095   1.421   6.463   1.085
 1725TIP3   OH2 5096   1.141   6.669   1.392
 1725TIP3    H1 5097   1.146   6.582   1.432
 1725TIP3    H2 5098   1.231   6.700   1.389
 1726TIP3   OH2 5099   1.414   6.074   0.845
 1726TIP3    H1 5100   1.327   6.102   0.873
 1726TIP3    H2 5101   1.406   6.061   0.750
 1727TIP3   OH2 5102   1.797   7.217   0.937
 1727TIP3    H1 5103   1.714   7.242   0.977
 1727TIP3    H2 5104   1.783   7.228   0.843
 1728TIP3   OH2 5105   1.215   6.265   1.072
 1728TIP3    H1 5106   1.310   6.274   1.081
 1728TIP3    H2 5107   1.196   6.176   1.104
 1729TIP3   OH2 5108   1.268   6.533   1.032
 1729TIP3    H1 5109   1.222   6.612   1.058
 1729TIP3    H2 5110   1.207   6.462   1.053
 1730TIP3   OH2 5111   1.729   6.392   1.013
 1730TIP3    H1 5112   1.646   6.403   1.059
 1730TIP3    H2 5113   1.720   6.310   0.966
 1731TIP3   OH2 5114   1.187   7.002   1.404
 1731TIP3    H1 5115   1.273   7.026   1.370
 1731TIP3    H2 5116   1.206   6.945   1.479
 1732TIP3   OH2 5117   1.421   6.697   1.431
 1732TIP3    H1 5118   1.421   6.604   1.408
 1732TIP3    H2 5119   1.509   6.727   1.409
 1733TIP3   OH2 5120   1.494   6.947   1.200
 1733TIP3    H1 5121   1.427   6.980   1.140
 1733TIP3    H2 5122   1.577   6.963   1.155
 1734TIP3   OH2 5123   1.555   7.232   1.067
 1734TIP3    H1 5124   1.463   7.256   1.066
 1734TIP3    H2 5125   1.587   7.261   1.152
 1735TIP3   OH2 5126   0.944   5.948   1.256
 1735TIP3    H1 5127   0.878   6.015   1.240
 1735TIP3    H2 5128   0.901   5.866   1.232
 1736TIP3   OH2 5129   1.117   6.411   1.478
 1736TIP3    H1 5130   1.148   6.397   1.567
 1736TIP3    H2 5131   1.023   6.393   1.482
 1737TIP3   OH2 5132   1.374   6.431   1.376
 1737TIP3    H1 5133   1.291   6.402   1.412
 1737TIP3    H2 5134   1.440   6.384   1.427
 1738TIP3   OH2 5135   1.591   6.329   1.504
 1738TIP3    H1 5136   1.595   6.233   1.509
 1738TIP3    H2 5137   1.579   6.357   1.595
 1739TIP3   OH2 5138   0.535   6.267   1.705
 1739TIP3    H1 5139   0.517   6.180   1.670
 1739TIP3    H2 5140   0.598   6.252   1.776
 1740TIP3   OH2 5141   1.008   5.931   1.522
 1740TIP3    H1 5142   1.078   5.866   1.516
 1740TIP3    H2 5143   0.976   5.940   1.432
 1741TIP3   OH2 5144   1.098   6.139   1.676
 1741TIP3    H1 5145   1.072   6.068   1.619
 1741TIP3    H2 5146   1.021   6.196   1.682
 1742TIP3   OH2 5147   1.651   7.322   1.301
 1742TIP3    H1 5148   1.583   7.345   1.365
 1742TIP3    H2 5149   1.695   7.406   1.282
 1743TIP3   OH2 5150   1.727   6.973   1.048
 1743TIP3    H1 5151   1.791   6.903   1.034
 1743TIP3    H2 5152   1.762   7.047   0.998
 1744TIP3   OH2 5153   1.905   6.765   1.027
 1744TIP3    H1 5154   1.836   6.721   1.076
 1744TIP3    H2 5155   1.986   6.723   1.055
 1745TIP3   OH2 5156   1.640   6.443   0.681
 1745TIP3    H1 5157   1.650   6.477   0.592
 1745TIP3    H2 5158   1.640   6.522   0.736
 1746TIP3   OH2 5159   1.648   6.692   0.817
 1746TIP3    H1 5160   1.607   6.687   0.904
 1746TIP3    H2 5161   1.585   6.741   0.764
 1747TIP3   OH2 5162   2.106   6.208   1.358
 1747TIP3    H1 5163   2.171   6.145   1.325
 1747TIP3    H2 5164   2.082   6.259   1.281
 1748TIP3   OH2 5165   1.980   6.346   1.158
 1748TIP3    H1 5166   1.902   6.379   1.201
 1748TIP3    H2 5167   1.949   6.274   1.103
 1749TIP3   OH2 5168   1.878   6.083   1.066
 1749TIP3    H1 5169   1.798   6.095   1.015
 1749TIP3    H2 5170   1.902   5.991   1.053
 1750TIP3   OH2 5171   0.530   6.003   1.643
 1750TIP3    H1 5172   0.507   5.914   1.669
 1750TIP3    H2 5173   0.626   6.004   1.646
 1751TIP3   OH2 5174   0.802   5.979   1.710
 1751TIP3    H1 5175   0.870   5.967   1.644
 1751TIP3    H2 5176   0.808   5.902   1.766
 1752TIP3   OH2 5177   1.617   6.055   1.485
 1752TIP3    H1 5178   1.636   6.024   1.573
 1752TIP3    H2 5179   1.702   6.055   1.440
 1753TIP3   OH2 5180   2.789   6.954   0.111
 1753TIP3    H1 5181   2.818   6.958   0.203
 1753TIP3    H2 5182   2.757   6.865   0.100
 1754TIP3   OH2 5183   2.606   7.259   0.186
 1754TIP3    H1 5184   2.619   7.234   0.094
 1754TIP3    H2 5185   2.694   7.282   0.217
 1755TIP3   OH2 5186   3.576   6.506   0.139
 1755TIP3    H1 5187   3.605   6.588   0.178
 1755TIP3    H2 5188   3.543   6.530   0.053
 1756TIP3   OH2 5189   3.039   6.720   0.185
 1756TIP3    H1 5190   3.021   6.629   0.209
 1756TIP3    H2 5191   3.107   6.714   0.118
 1757TIP3   OH2 5192   2.369   6.383   0.167
 1757TIP3    H1 5193   2.312   6.434   0.109
 1757TIP3    H2 5194   2.349   6.291   0.146
 1758TIP3   OH2 5195   2.012   6.536   0.261
 1758TIP3    H1 5196   2.086   6.521   0.320
 1758TIP3    H2 5197   2.032   6.484   0.183
 1759TIP3   OH2 5198   2.460   6.788   0.050
 1759TIP3    H1 5199   2.530   6.738   0.092
 1759TIP3    H2 5200   2.382   6.734   0.060
 1760TIP3   OH2 5201   2.356   6.351   0.619
 1760TIP3    H1 5202   2.302   6.390   0.550
 1760TIP3    H2 5203   2.306   6.365   0.699
 1761TIP3   OH2 5204   2.481   7.130   0.393
 1761TIP3    H1 5205   2.417   7.192   0.427
 1761TIP3    H2 5206   2.526   7.178   0.323
 1762TIP3   OH2 5207   3.221   6.386   0.054
 1762TIP3    H1 5208   3.141   6.384   0.106
 1762TIP3    H2 5209   3.236   6.478   0.034
 1763TIP3   OH2 5210   2.242   6.468   0.397
 1763TIP3    H1 5211   2.290   6.546   0.426
 1763TIP3    H2 5212   2.294   6.433   0.324
 1764TIP3   OH2 5213   2.297   7.311   0.493
 1764TIP3    H1 5214   2.283   7.382   0.431
 1764TIP3    H2 5215   2.219   7.312   0.549
 1765TIP3   OH2 5216   3.291   6.412   0.355
 1765TIP3    H1 5217   3.202   6.424   0.321
 1765TIP3    H2 5218   3.348   6.440   0.284
 1766TIP3   OH2 5219   2.680   6.044   0.331
 1766TIP3    H1 5220   2.680   5.953   0.361
 1766TIP3    H2 5221   2.604   6.083   0.376
 1767TIP3   OH2 5222   3.325   7.384   0.262
 1767TIP3    H1 5223   3.304   7.338   0.180
 1767TIP3    H2 5224   3.357   7.470   0.234
 1768TIP3   OH2 5225   3.121   6.959   0.544
 1768TIP3    H1 5226   3.121   7.050   0.573
 1768TIP3    H2 5227   3.056   6.957   0.473
 1769TIP3   OH2 5228   2.384   6.893   0.298
 1769TIP3    H1 5229   2.418   6.874   0.210
 1769TIP3    H2 5230   2.434   6.970   0.327
 1770TIP3   OH2 5231   2.795   7.575   0.217
 1770TIP3    H1 5232   2.852   7.628   0.161
 1770TIP3    H2 5233   2.840   7.491   0.225
 1771TIP3   OH2 5234   2.487   7.429   0.656
 1771TIP3    H1 5235   2.427   7.486   0.704
 1771TIP3    H2 5236   2.431   7.379   0.597
 1772TIP3   OH2 5237   2.296   7.585   0.776
 1772TIP3    H1 5238   2.232   7.618   0.713
 1772TIP3    H2 5239   2.244   7.564   0.854
 1773TIP3   OH2 5240   3.465   7.789   0.383
 1773TIP3    H1 5241   3.479   7.801   0.477
 1773TIP3    H2 5242   3.397   7.853   0.361
 1774TIP3   OH2 5243   2.714   7.535   0.543
 1774TIP3    H1 5244   2.712   7.630   0.550
 1774TIP3    H2 5245   2.629   7.507   0.577
 1775TIP3   OH2 5246   3.349   6.943   0.714
 1775TIP3    H1 5247   3.272   6.925   0.661
 1775TIP3    H2 5248   3.410   6.873   0.693
 1776TIP3   OH2 5249   2.086   7.284   0.686
 1776TIP3    H1 5250   2.154   7.269   0.751
 1776TIP3    H2 5251   2.019   7.333   0.733
 1777TIP3   OH2 5252   2.452   6.144   0.458
 1777TIP3    H1 5253   2.369   6.111   0.424
 1777TIP3    H2 5254   2.429   6.220   0.511
 1778TIP3   OH2 5255   2.997   6.269   0.659
 1778TIP3    H1 5256   3.068   6.245   0.719
 1778TIP3    H2 5257   2.917   6.247   0.707
 1779TIP3   OH2 5258   3.216   6.704   0.580
 1779TIP3    H1 5259   3.178   6.681   0.665
 1779TIP3    H2 5260   3.170   6.783   0.554
 1780TIP3   OH2 5261   2.394   6.685   0.477
 1780TIP3    H1 5262   2.406   6.730   0.560
 1780TIP3    H2 5263   2.383   6.755   0.413
 1781TIP3   OH2 5264   2.943   6.896   0.805
 1781TIP3    H1 5265   2.913   6.824   0.861
 1781TIP3    H2 5266   3.036   6.905   0.825
 1782TIP3   OH2 5267   1.918   6.219   0.143
 1782TIP3    H1 5268   1.954   6.228   0.231
 1782TIP3    H2 5269   1.829   6.187   0.156
 1783TIP3   OH2 5270   2.914   6.892   0.359
 1783TIP3    H1 5271   2.958   6.834   0.297
 1783TIP3    H2 5272   2.888   6.833   0.431
 1784TIP3   OH2 5273   2.643   6.417   0.103
 1784TIP3    H1 5274   2.556   6.403   0.141
 1784TIP3    H2 5275   2.702   6.365   0.158
 1785TIP3   OH2 5276   3.024   6.446   0.258
 1785TIP3    H1 5277   3.013   6.470   0.349
 1785TIP3    H2 5278   2.955   6.383   0.240
 1786TIP3   OH2 5279   2.248   7.268   0.901
 1786TIP3    H1 5280   2.331   7.277   0.947
 1786TIP3    H2 5281   2.183   7.256   0.970
 1787TIP3   OH2 5282   2.687   6.682   0.163
 1787TIP3    H1 5283   2.691   6.597   0.118
 1787TIP3    H2 5284   2.691   6.661   0.256
 1788TIP3   OH2 5285   2.290   6.137   0.079
 1788TIP3    H1 5286   2.223   6.072   0.100
 1788TIP3    H2 5287   2.370   6.087   0.064
 1789TIP3   OH2 5288   2.661   6.608   0.430
 1789TIP3    H1 5289   2.573   6.641   0.451
 1789TIP3    H2 5290   2.719   6.659   0.486
 1790TIP3   OH2 5291   2.809   7.274   0.542
 1790TIP3    H1 5292   2.858   7.268   0.624
 1790TIP3    H2 5293   2.773   7.362   0.543
 1791TIP3   OH2 5294   1.984   6.869   0.781
 1791TIP3    H1 5295   2.046   6.930   0.820
 1791TIP3    H2 5296   1.950   6.818   0.855
 1792TIP3   OH2 5297   2.722   7.060   0.810
 1792TIP3    H1 5298   2.687   7.048   0.722
 1792TIP3    H2 5299   2.806   7.016   0.809
 1793TIP3   OH2 5300   2.985   7.534   0.470
 1793TIP3    H1 5301   2.889   7.529   0.468
 1793TIP3    H2 5302   3.004   7.610   0.525
 1794TIP3   OH2 5303   3.577   7.473   0.472
 1794TIP3    H1 5304   3.484   7.481   0.491
 1794TIP3    H2 5305   3.581   7.458   0.377
 1795TIP3   OH2 5306   3.051   7.069   0.093
 1795TIP3    H1 5307   2.958   7.047   0.080
 1795TIP3    H2 5308   3.090   6.989   0.127
 1796TIP3   OH2 5309   2.524   7.778   0.387
 1796TIP3    H1 5310   2.566   7.725   0.319
 1796TIP3    H2 5311   2.594   7.796   0.450
 1797TIP3   OH2 5312   2.868   7.298   0.269
 1797TIP3    H1 5313   2.855   7.284   0.363
 1797TIP3    H2 5314   2.952   7.256   0.251
 1798TIP3   OH2 5315   3.123   7.770   0.362
 1798TIP3    H1 5316   3.081   7.705   0.306
 1798TIP3    H2 5317   3.154   7.837   0.302
 1799TIP3   OH2 5318   2.184   6.410   0.828
 1799TIP3    H1 5319   2.097   6.450   0.833
 1799TIP3    H2 5320   2.177   6.331   0.880
 1800TIP3   OH2 5321   3.020   6.507   0.523
 1800TIP3    H1 5322   3.109   6.541   0.539
 1800TIP3    H2 5323   3.016   6.426   0.574
 1801TIP3   OH2 5324   2.862   6.732   0.577
 1801TIP3    H1 5325   2.893   6.779   0.654
 1801TIP3    H2 5326   2.916   6.653   0.573
 1802TIP3   OH2 5327   8.598   2.016   7.187
 1802TIP3    H1 5328   8.589   2.098   7.236
 1802TIP3    H2 5329   8.667   2.034   7.123
 1803TIP3   OH2 5330   3.485   6.745   0.571
 1803TIP3    H1 5331   3.391   6.726   0.565
 1803TIP3    H2 5332   3.528   6.666   0.539
 1804TIP3   OH2 5333   2.200   6.047   0.399
 1804TIP3    H1 5334   2.172   6.009   0.315
 1804TIP3    H2 5335   2.193   5.974   0.461
 1805TIP3   OH2 5336   2.426   7.781   0.932
 1805TIP3    H1 5337   2.514   7.742   0.934
 1805TIP3    H2 5338   2.380   7.731   0.864
 1806TIP3   OH2 5339   3.020   7.703   0.692
 1806TIP3    H1 5340   3.004   7.624   0.744
 1806TIP3    H2 5341   3.101   7.739   0.726
 1807TIP3   OH2 5342   2.036   7.225   1.076
 1807TIP3    H1 5343   2.064   7.134   1.074
 1807TIP3    H2 5344   1.951   7.225   1.031
 1808TIP3   OH2 5345   2.655   7.334   0.852
 1808TIP3    H1 5346   2.606   7.355   0.773
 1808TIP3    H2 5347   2.696   7.249   0.833
 1809TIP3   OH2 5348   3.123   7.301   0.425
 1809TIP3    H1 5349   3.198   7.329   0.373
 1809TIP3    H2 5350   3.070   7.380   0.434
 1810TIP3   OH2 5351   2.166   6.976   1.052
 1810TIP3    H1 5352   2.230   6.907   1.031
 1810TIP3    H2 5353   2.187   7.002   1.141
 1811TIP3   OH2 5354   2.475   6.839   0.692
 1811TIP3    H1 5355   2.447   6.900   0.761
 1811TIP3    H2 5356   2.541   6.888   0.643
 1812TIP3   OH2 5357   2.974   7.233   0.812
 1812TIP3    H1 5358   3.052   7.214   0.761
 1812TIP3    H2 5359   2.984   7.180   0.891
 1813TIP3   OH2 5360   2.604   6.640   0.839
 1813TIP3    H1 5361   2.611   6.559   0.789
 1813TIP3    H2 5362   2.561   6.702   0.780
 1814TIP3   OH2 5363   2.615   6.433   0.651
 1814TIP3    H1 5364   2.641   6.469   0.566
 1814TIP3    H2 5365   2.524   6.406   0.639
 1815TIP3   OH2 5366   2.652   6.993   0.552
 1815TIP3    H1 5367   2.737   6.997   0.509
 1815TIP3    H2 5368   2.595   7.048   0.499
 1816TIP3   OH2 5369   3.200   6.905   0.938
 1816TIP3    H1 5370   3.227   6.815   0.956
 1816TIP3    H2 5371   3.265   6.938   0.875
 1817TIP3   OH2 5372   3.206   7.208   0.663
 1817TIP3    H1 5373   3.177   7.252   0.583
 1817TIP3    H2 5374   3.301   7.199   0.653
 1818TIP3   OH2 5375   2.484   6.734   1.075
 1818TIP3    H1 5376   2.426   6.663   1.103
 1818TIP3    H2 5377   2.519   6.705   0.991
 1819TIP3   OH2 5378   2.738   6.204   0.744
 1819TIP3    H1 5379   2.697   6.285   0.714
 1819TIP3    H2 5380   2.673   6.136   0.729
 1820TIP3   OH2 5381   2.858   6.679   0.945
 1820TIP3    H1 5382   2.844   6.667   1.039
 1820TIP3    H2 5383   2.773   6.660   0.906
 1821TIP3   OH2 5384   3.105   6.636   0.816
 1821TIP3    H1 5385   3.025   6.633   0.870
 1821TIP3    H2 5386   3.175   6.609   0.876
 1822TIP3   OH2 5387   3.330   6.601   0.978
 1822TIP3    H1 5388   3.344   6.507   0.982
 1822TIP3    H2 5389   3.331   6.630   1.069
 1823TIP3   OH2 5390   2.351   6.502   1.148
 1823TIP3    H1 5391   2.345   6.417   1.103
 1823TIP3    H2 5392   2.386   6.481   1.235
 1824TIP3   OH2 5393   2.804   6.193   1.010
 1824TIP3    H1 5394   2.871   6.125   1.006
 1824TIP3    H2 5395   2.773   6.201   0.919
 1825TIP3   OH2 5396   2.894   6.411   1.151
 1825TIP3    H1 5397   2.866   6.337   1.098
 1825TIP3    H2 5398   2.818   6.471   1.151
 1826TIP3   OH2 5399   3.466   7.616   0.774
 1826TIP3    H1 5400   3.392   7.671   0.800
 1826TIP3    H2 5401   3.518   7.671   0.715
 1827TIP3   OH2 5402   3.482   7.214   0.611
 1827TIP3    H1 5403   3.528   7.130   0.609
 1827TIP3    H2 5404   3.488   7.247   0.522
 1828TIP3   OH2 5405   3.621   6.979   0.559
 1828TIP3    H1 5406   3.585   6.894   0.582
 1828TIP3    H2 5407   3.702   6.959   0.512
 1829TIP3   OH2 5408   3.265   6.656   0.033
 1829TIP3    H1 5409   3.339   6.649  -0.029
 1829TIP3    H2 5410   3.300   6.708   0.106
 1830TIP3   OH2 5411   3.374   6.802   0.229
 1830TIP3    H1 5412   3.352   6.857   0.304
 1830TIP3    H2 5413   3.469   6.790   0.234
 1831TIP3   OH2 5414   2.098   6.605   1.140
 1831TIP3    H1 5415   2.190   6.578   1.136
 1831TIP3    H2 5416   2.050   6.523   1.144
 1832TIP3   OH2 5417   3.882   6.449   0.895
 1832TIP3    H1 5418   3.934   6.379   0.856
 1832TIP3    H2 5419   3.853   6.502   0.821
 1833TIP3   OH2 5420   2.019   6.252   0.400
 1833TIP3    H1 5421   2.078   6.177   0.411
 1833TIP3    H2 5422   2.071   6.328   0.424
 1834TIP3   OH2 5423   1.940   6.645   0.575
 1834TIP3    H1 5424   1.939   6.589   0.653
 1834TIP3    H2 5425   1.902   6.590   0.506
 1835TIP3   OH2 5426   3.747   6.580   0.701
 1835TIP3    H1 5427   3.654   6.600   0.705
 1835TIP3    H2 5428   3.763   6.557   0.610
 1836TIP3   OH2 5429   2.048   6.145   0.848
 1836TIP3    H1 5430   1.994   6.119   0.923
 1836TIP3    H2 5431   1.986   6.180   0.784
 1837TIP3   OH2 5432   2.096   7.593   0.968
 1837TIP3    H1 5433   2.018   7.631   0.928
 1837TIP3    H2 5434   2.062   7.544   1.043
 1838TIP3   OH2 5435   2.731   7.814   0.567
 1838TIP3    H1 5436   2.728   7.834   0.661
 1838TIP3    H2 5437   2.816   7.845   0.538
 1839TIP3   OH2 5438   3.637   6.251   0.599
 1839TIP3    H1 5439   3.569   6.239   0.533
 1839TIP3    H2 5440   3.704   6.186   0.578
 1840TIP3   OH2 5441   2.832   6.249   0.216
 1840TIP3    H1 5442   2.783   6.174   0.252
 1840TIP3    H2 5443   2.898   6.208   0.159
 1841TIP3   OH2 5444   3.356   6.144   0.043
 1841TIP3    H1 5445   3.429   6.204   0.060
 1841TIP3    H2 5446   3.279   6.200   0.046
 1842TIP3   OH2 5447   2.121   5.930   0.158
 1842TIP3    H1 5448   2.059   5.908   0.088
 1842TIP3    H2 5449   2.169   5.849   0.173
 1843TIP3   OH2 5450   2.545   6.018   0.075
 1843TIP3    H1 5451   2.586   6.076   0.011
 1843TIP3    H2 5452   2.596   6.030   0.155
 1844TIP3   OH2 5453   3.032   6.132   0.073
 1844TIP3    H1 5454   3.071   6.109  -0.011
 1844TIP3    H2 5455   3.050   6.057   0.129
 1845TIP3   OH2 5456   2.349   6.225   1.068
 1845TIP3    H1 5457   2.310   6.161   1.128
 1845TIP3    H2 5458   2.439   6.233   1.097
 1846TIP3   OH2 5459   2.593   6.233   1.198
 1846TIP3    H1 5460   2.669   6.214   1.142
 1846TIP3    H2 5461   2.590   6.161   1.261
 1847TIP3   OH2 5462   3.389   6.332   0.987
 1847TIP3    H1 5463   3.404   6.304   1.078
 1847TIP3    H2 5464   3.475   6.325   0.946
 1848TIP3   OH2 5465   3.250   7.917   0.552
 1848TIP3    H1 5466   3.196   7.855   0.502
 1848TIP3    H2 5467   3.264   7.990   0.492
 1849TIP3   OH2 5468   4.105   7.602   0.376
 1849TIP3    H1 5469   4.064   7.520   0.402
 1849TIP3    H2 5470   4.063   7.625   0.294
 1850TIP3   OH2 5471   3.976   6.688   0.254
 1850TIP3    H1 5472   3.886   6.710   0.230
 1850TIP3    H2 5473   4.004   6.627   0.186
 1851TIP3   OH2 5474   3.819   7.636   0.570
 1851TIP3    H1 5475   3.811   7.549   0.609
 1851TIP3    H2 5476   3.787   7.625   0.480
 1852TIP3   OH2 5477   3.871   7.152   0.542
 1852TIP3    H1 5478   3.868   7.068   0.495
 1852TIP3    H2 5479   3.950   7.146   0.595
 1853TIP3   OH2 5480   4.384   7.021   0.214
 1853TIP3    H1 5481   4.444   6.977   0.153
 1853TIP3    H2 5482   4.298   6.986   0.192
 1854TIP3   OH2 5483   4.291   6.964   0.481
 1854TIP3    H1 5484   4.205   6.921   0.482
 1854TIP3    H2 5485   4.323   6.951   0.391
 1855TIP3   OH2 5486   4.550   7.083   0.421
 1855TIP3    H1 5487   4.591   6.997   0.421
 1855TIP3    H2 5488   4.492   7.082   0.346
 1856TIP3   OH2 5489   5.121   6.887   0.486
 1856TIP3    H1 5490   5.085   6.799   0.477
 1856TIP3    H2 5491   5.190   6.879   0.552
 1857TIP3   OH2 5492   4.079   6.791   0.523
 1857TIP3    H1 5493   4.132   6.714   0.506
 1857TIP3    H2 5494   4.089   6.806   0.617
 1858TIP3   OH2 5495   4.566   6.481   0.456
 1858TIP3    H1 5496   4.656   6.451   0.443
 1858TIP3    H2 5497   4.521   6.407   0.497
 1859TIP3   OH2 5498   4.743   6.711   0.590
 1859TIP3    H1 5499   4.749   6.616   0.594
 1859TIP3    H2 5500   4.670   6.733   0.648
 1860TIP3   OH2 5501   3.830   6.840   0.706
 1860TIP3    H1 5502   3.847   6.837   0.612
 1860TIP3    H2 5503   3.795   6.753   0.727
 1861TIP3   OH2 5504   3.814   6.393   0.227
 1861TIP3    H1 5505   3.820   6.440   0.310
 1861TIP3    H2 5506   3.743   6.437   0.180
 1862TIP3   OH2 5507   3.818   7.898   0.502
 1862TIP3    H1 5508   3.813   7.896   0.407
 1862TIP3    H2 5509   3.847   7.811   0.527
 1863TIP3   OH2 5510   4.064   6.486   0.660
 1863TIP3    H1 5511   4.046   6.403   0.706
 1863TIP3    H2 5512   4.156   6.505   0.680
 1864TIP3   OH2 5513   4.314   6.424   0.763
 1864TIP3    H1 5514   4.370   6.359   0.719
 1864TIP3    H2 5515   4.290   6.382   0.846
 1865TIP3   OH2 5516   5.299   6.609   0.559
 1865TIP3    H1 5517   5.204   6.615   0.564
 1865TIP3    H2 5518   5.318   6.609   0.465
 1866TIP3   OH2 5519   7.903   7.753   4.662
 1866TIP3    H1 5520   7.878   7.829   4.609
 1866TIP3    H2 5521   7.828   7.694   4.656
 1867TIP3   OH2 5522   1.525   0.184   4.128
 1867TIP3    H1 5523   1.432   0.170   4.147
 1867TIP3    H2 5524   1.528   0.270   4.087
 1868TIP3   OH2 5525   1.603   0.263   4.603
 1868TIP3    H1 5526   1.570   0.174   4.613
 1868TIP3    H2 5527   1.640   0.265   4.514
 1869TIP3   OH2 5528   7.718   8.183   4.420
 1869TIP3    H1 5529   7.677   8.268   4.434
 1869TIP3    H2 5530   7.767   8.193   4.338
 1870TIP3   OH2 5531   1.041   0.220   4.367
 1870TIP3    H1 5532   1.036   0.315   4.357
 1870TIP3    H2 5533   1.084   0.207   4.451
 1871TIP3   OH2 5534   1.934   0.460   4.750
 1871TIP3    H1 5535   1.913   0.367   4.752
 1871TIP3    H2 5536   1.848   0.503   4.753
 1872TIP3   OH2 5537   1.600   0.829   4.725
 1872TIP3    H1 5538   1.588   0.860   4.635
 1872TIP3    H2 5539   1.682   0.869   4.753
 1873TIP3   OH2 5540   7.529   8.391   4.425
 1873TIP3    H1 5541   7.511   8.333   4.351
 1873TIP3    H2 5542   7.460   8.373   4.488
 1874TIP3   OH2 5543   1.149   0.151   4.633
 1874TIP3    H1 5544   1.104   0.215   4.688
 1874TIP3    H2 5545   1.232   0.193   4.610
 1875TIP3   OH2 5546   1.864   0.197   4.664
 1875TIP3    H1 5547   1.774   0.228   4.671
 1875TIP3    H2 5548   1.865   0.142   4.586
 1876TIP3   OH2 5549   1.412   0.581   4.531
 1876TIP3    H1 5550   1.331   0.583   4.480
 1876TIP3    H2 5551   1.476   0.539   4.474
 1877TIP3   OH2 5552   1.512   0.443   4.030
 1877TIP3    H1 5553   1.436   0.498   4.007
 1877TIP3    H2 5554   1.582   0.506   4.046
 1878TIP3   OH2 5555   1.327   0.415   4.998
 1878TIP3    H1 5556   1.371   0.333   5.018
 1878TIP3    H2 5557   1.398   0.478   4.986
 1879TIP3   OH2 5558   1.438   0.038   4.642
 1879TIP3    H1 5559   1.468  -0.050   4.665
 1879TIP3    H2 5560   1.403   0.073   4.724
 1880TIP3   OH2 5561   7.489   8.204   4.739
 1880TIP3    H1 5562   7.464   8.195   4.831
 1880TIP3    H2 5563   7.583   8.219   4.741
 1881TIP3   OH2 5564   1.722   0.599   4.095
 1881TIP3    H1 5565   1.720   0.653   4.174
 1881TIP3    H2 5566   1.783   0.645   4.037
 1882TIP3   OH2 5567   1.691   0.631   4.383
 1882TIP3    H1 5568   1.633   0.561   4.355
 1882TIP3    H2 5569   1.771   0.587   4.411
 1883TIP3   OH2 5570   1.771   0.315   4.957
 1883TIP3    H1 5571   1.720   0.309   5.038
 1883TIP3    H2 5572   1.833   0.386   4.973
 1884TIP3   OH2 5573   1.724   0.000   4.172
 1884TIP3    H1 5574   1.778  -0.001   4.093
 1884TIP3    H2 5575   1.660   0.069   4.156
 1885TIP3   OH2 5576   1.529   0.409   4.342
 1885TIP3    H1 5577   1.455   0.349   4.353
 1885TIP3    H2 5578   1.601   0.353   4.313
 1886TIP3   OH2 5579   7.749   8.298   4.753
 1886TIP3    H1 5580   7.804   8.328   4.682
 1886TIP3    H2 5581   7.707   8.377   4.787
 1887TIP3   OH2 5582   7.945   8.089   4.758
 1887TIP3    H1 5583   7.882   8.150   4.799
 1887TIP3    H2 5584   8.011   8.075   4.826
 1888TIP3   OH2 5585   7.545   7.990   4.496
 1888TIP3    H1 5586   7.573   7.948   4.578
 1888TIP3    H2 5587   7.610   8.058   4.480
 1889TIP3   OH2 5588   1.013   0.650   4.872
 1889TIP3    H1 5589   1.047   0.617   4.956
 1889TIP3    H2 5590   1.086   0.638   4.811
 1890TIP3   OH2 5591   1.255   0.621   4.748
 1890TIP3    H1 5592   1.314   0.624   4.672
 1890TIP3    H2 5593   1.284   0.694   4.803
 1891TIP3   OH2 5594   0.919   0.523   4.300
 1891TIP3    H1 5595   0.849   0.551   4.241
 1891TIP3    H2 5596   0.885   0.542   4.388
 1892TIP3   OH2 5597   1.171   0.594   4.394
 1892TIP3    H1 5598   1.093   0.561   4.348
 1892TIP3    H2 5599   1.231   0.618   4.324
 1893TIP3   OH2 5600   1.396   0.644   4.248
 1893TIP3    H1 5601   1.408   0.690   4.165
 1893TIP3    H2 5602   1.440   0.560   4.236
 1894TIP3   OH2 5603   1.672   0.561   4.743
 1894TIP3    H1 5604   1.633   0.515   4.669
 1894TIP3    H2 5605   1.644   0.652   4.732
 1895TIP3   OH2 5606   8.831   8.324   3.490
 1895TIP3    H1 5607   8.795   8.409   3.463
 1895TIP3    H2 5608   8.768   8.260   3.458
 1896TIP3   OH2 5609   8.832   8.315   3.889
 1896TIP3    H1 5610   8.879   8.288   3.967
 1896TIP3    H2 5611   8.791   8.235   3.856
 1897TIP3   OH2 5612   8.165   8.165   4.099
 1897TIP3    H1 5613   8.165   8.082   4.146
 1897TIP3    H2 5614   8.166   8.231   4.168
 1898TIP3   OH2 5615   3.177   0.232   3.571
 1898TIP3    H1 5616   3.154   0.169   3.639
 1898TIP3    H2 5617   3.196   0.313   3.618
 1899TIP3   OH2 5618   2.234   0.247   3.929
 1899TIP3    H1 5619   2.229   0.152   3.932
 1899TIP3    H2 5620   2.326   0.266   3.910
 1900TIP3   OH2 5621   2.833   0.653   3.581
 1900TIP3    H1 5622   2.858   0.589   3.514
 1900TIP3    H2 5623   2.838   0.604   3.663
 1901TIP3   OH2 5624   2.718   0.145   3.899
 1901TIP3    H1 5625   2.763   0.065   3.870
 1901TIP3    H2 5626   2.789   0.200   3.933
 1902TIP3   OH2 5627   0.188   8.009   3.942
 1902TIP3    H1 5628   0.251   7.939   3.928
 1902TIP3    H2 5629   0.125   7.999   3.870
 1903TIP3   OH2 5630   0.180   7.805   3.543
 1903TIP3    H1 5631   0.275   7.796   3.544
 1903TIP3    H2 5632   0.159   7.835   3.455
 1904TIP3   OH2 5633   8.502   8.108   3.772
 1904TIP3    H1 5634   8.589   8.080   3.799
 1904TIP3    H2 5635   8.443   8.043   3.811
 1905TIP3   OH2 5636   0.793   8.188   4.012
 1905TIP3    H1 5637   0.705   8.227   4.012
 1905TIP3    H2 5638   0.787   8.115   4.073
 1906TIP3   OH2 5639   2.805   0.153   3.347
 1906TIP3    H1 5640   2.778   0.132   3.258
 1906TIP3    H2 5641   2.747   0.225   3.373
 1907TIP3   OH2 5642   2.561   0.079   4.118
 1907TIP3    H1 5643   2.501   0.146   4.151
 1907TIP3    H2 5644   2.605   0.121   4.044
 1908TIP3   OH2 5645   8.268   7.876   4.120
 1908TIP3    H1 5646   8.346   7.932   4.124
 1908TIP3    H2 5647   8.281   7.821   4.043
 1909TIP3   OH2 5648   2.394   0.275   4.223
 1909TIP3    H1 5649   2.389   0.362   4.184
 1909TIP3    H2 5650   2.314   0.268   4.276
 1910TIP3   OH2 5651   3.209   0.477   3.712
 1910TIP3    H1 5652   3.121   0.470   3.749
 1910TIP3    H2 5653   3.209   0.560   3.664
 1911TIP3   OH2 5654   2.915   0.506   3.357
 1911TIP3    H1 5655   2.969   0.427   3.347
 1911TIP3    H2 5656   2.973   0.578   3.331
 1912TIP3   OH2 5657   3.056   0.275   3.326
 1912TIP3    H1 5658   2.981   0.216   3.332
 1912TIP3    H2 5659   3.109   0.254   3.403
 1913TIP3   OH2 5660   3.446   0.364   4.051
 1913TIP3    H1 5661   3.423   0.296   3.987
 1913TIP3    H2 5662   3.433   0.446   4.005
 1914TIP3   OH2 5663   8.672   8.158   3.329
 1914TIP3    H1 5664   8.600   8.216   3.306
 1914TIP3    H2 5665   8.723   8.149   3.249
 1915TIP3   OH2 5666   3.618   0.059   3.903
 1915TIP3    H1 5667   3.535   0.105   3.897
 1915TIP3    H2 5668   3.657   0.069   3.816
 1916TIP3   OH2 5669   0.118   8.299   3.292
 1916TIP3    H1 5670   0.060   8.313   3.367
 1916TIP3    H2 5671   0.202   8.275   3.330
 1917TIP3   OH2 5672   0.287   8.351   4.163
 1917TIP3    H1 5673   0.262   8.442   4.180
 1917TIP3    H2 5674   0.204   8.306   4.146
 1918TIP3   OH2 5675   8.292   8.249   3.675
 1918TIP3    H1 5676   8.233   8.179   3.703
 1918TIP3    H2 5677   8.380   8.214   3.688
 1919TIP3   OH2 5678   2.484   0.279   3.816
 1919TIP3    H1 5679   2.460   0.254   3.726
 1919TIP3    H2 5680   2.567   0.233   3.831
 1920TIP3   OH2 5681   8.450   8.216   4.023
 1920TIP3    H1 5682   8.483   8.219   3.933
 1920TIP3    H2 5683   8.464   8.305   4.056
 1921TIP3   OH2 5684   2.968   0.469   3.837
 1921TIP3    H1 5685   2.954   0.551   3.885
 1921TIP3    H2 5686   2.950   0.400   3.901
 1922TIP3   OH2 5687   2.600   0.370   4.386
 1922TIP3    H1 5688   2.538   0.428   4.432
 1922TIP3    H2 5689   2.544   0.313   4.334
 1923TIP3   OH2 5690   8.865   8.144   3.124
 1923TIP3    H1 5691   8.922   8.199   3.178
 1923TIP3    H2 5692   8.875   8.179   3.036
 1924TIP3   OH2 5693   8.353   8.338   4.505
 1924TIP3    H1 5694   8.364   8.431   4.524
 1924TIP3    H2 5695   8.309   8.303   4.582
 1925TIP3   OH2 5696   2.664   0.392   3.371
 1925TIP3    H1 5697   2.748   0.438   3.374
 1925TIP3    H2 5698   2.605   0.454   3.327
 1926TIP3   OH2 5699   2.388   0.533   4.460
 1926TIP3    H1 5700   2.367   0.541   4.367
 1926TIP3    H2 5701   2.306   0.506   4.501
 1927TIP3   OH2 5702   3.247   0.310   2.736
 1927TIP3    H1 5703   3.249   0.404   2.719
 1927TIP3    H2 5704   3.334   0.280   2.710
 1928TIP3   OH2 5705   1.929   0.031   4.462
 1928TIP3    H1 5706   1.937   0.054   4.370
 1928TIP3    H2 5707   1.983  -0.047   4.473
 1929TIP3   OH2 5708   1.855   0.353   4.067
 1929TIP3    H1 5709   1.929   0.407   4.094
 1929TIP3    H2 5710   1.779   0.411   4.073
 1930TIP3   OH2 5711   3.678   0.758   4.118
 1930TIP3    H1 5712   3.684   0.663   4.123
 1930TIP3    H2 5713   3.596   0.779   4.164
 1931TIP3   OH2 5714   2.780   0.519   4.244
 1931TIP3    H1 5715   2.771   0.609   4.274
 1931TIP3    H2 5716   2.715   0.470   4.294
 1932TIP3   OH2 5717   2.544   0.610   3.211
 1932TIP3    H1 5718   2.463   0.579   3.172
 1932TIP3    H2 5719   2.525   0.700   3.238
 1933TIP3   OH2 5720   1.990   0.483   3.589
 1933TIP3    H1 5721   2.058   0.484   3.656
 1933TIP3    H2 5722   1.911   0.456   3.635
 1934TIP3   OH2 5723   2.750   0.538   2.838
 1934TIP3    H1 5724   2.809   0.471   2.803
 1934TIP3    H2 5725   2.783   0.555   2.926
 1935TIP3   OH2 5726   2.799   0.596   3.104
 1935TIP3    H1 5727   2.711   0.596   3.141
 1935TIP3    H2 5728   2.854   0.558   3.173
 1936TIP3   OH2 5729   0.484   8.223   4.322
 1936TIP3    H1 5730   0.413   8.286   4.314
 1936TIP3    H2 5731   0.520   8.215   4.234
 1937TIP3   OH2 5732   2.155   0.312   4.370
 1937TIP3    H1 5733   2.164   0.275   4.458
 1937TIP3    H2 5734   2.097   0.251   4.324
 1938TIP3   OH2 5735   0.277   8.028   4.315
 1938TIP3    H1 5736   0.348   8.082   4.349
 1938TIP3    H2 5737   0.298   8.016   4.223
 1939TIP3   OH2 5738   8.512   7.994   4.168
 1939TIP3    H1 5739   8.468   8.020   4.249
 1939TIP3    H2 5740   8.506   8.071   4.111
 1940TIP3   OH2 5741   8.774   7.953   3.484
 1940TIP3    H1 5742   8.719   8.022   3.447
 1940TIP3    H2 5743   8.830   7.925   3.411
 1941TIP3   OH2 5744   0.070   8.227   4.549
 1941TIP3    H1 5745   0.042   8.171   4.620
 1941TIP3    H2 5746   0.164   8.238   4.563
 1942TIP3   OH2 5747   0.045   7.982   3.700
 1942TIP3    H1 5748  -0.023   7.997   3.634
 1942TIP3    H2 5749   0.094   7.906   3.667
 1943TIP3   OH2 5750   8.201   8.024   4.575
 1943TIP3    H1 5751   8.266   8.027   4.646
 1943TIP3    H2 5752   8.185   7.930   4.562
 1944TIP3   OH2 5753   0.062   8.198   4.105
 1944TIP3    H1 5754   0.105   8.131   4.051
 1944TIP3    H2 5755   0.027   8.150   4.180
 1945TIP3   OH2 5756   3.384   1.076   4.209
 1945TIP3    H1 5757   3.379   1.093   4.115
 1945TIP3    H2 5758   3.463   1.122   4.238
 1946TIP3   OH2 5759   2.410   0.200   4.597
 1946TIP3    H1 5760   2.461   0.219   4.676
 1946TIP3    H2 5761   2.319   0.216   4.622
 1947TIP3   OH2 5762   8.744   8.044   3.878
 1947TIP3    H1 5763   8.810   8.005   3.821
 1947TIP3    H2 5764   8.756   8.000   3.963
 1948TIP3   OH2 5765   8.775   7.931   4.127
 1948TIP3    H1 5766   8.681   7.939   4.146
 1948TIP3    H2 5767   8.818   7.962   4.207
 1949TIP3   OH2 5768   8.472   8.339   3.275
 1949TIP3    H1 5769   8.381   8.319   3.254
 1949TIP3    H2 5770   8.467   8.385   3.359
 1950TIP3   OH2 5771   3.372   0.175   3.866
 1950TIP3    H1 5772   3.401   0.227   3.790
 1950TIP3    H2 5773   3.291   0.133   3.836
 1951TIP3   OH2 5774   2.911   0.248   4.292
 1951TIP3    H1 5775   2.949   0.227   4.378
 1951TIP3    H2 5776   2.864   0.329   4.306
 1952TIP3   OH2 5777   0.036   7.914   3.268
 1952TIP3    H1 5778   0.132   7.921   3.262
 1952TIP3    H2 5779   0.004   7.978   3.204
 1953TIP3   OH2 5780   8.196   8.367   3.907
 1953TIP3    H1 5781   8.232   8.341   3.823
 1953TIP3    H2 5782   8.226   8.300   3.968
 1954TIP3   OH2 5783   2.691   0.097   3.097
 1954TIP3    H1 5784   2.630   0.169   3.081
 1954TIP3    H2 5785   2.640   0.034   3.148
 1955TIP3   OH2 5786   8.759   8.404   4.589
 1955TIP3    H1 5787   8.694   8.343   4.554
 1955TIP3    H2 5788   8.843   8.367   4.563
 1956TIP3   OH2 5789   3.051   0.528   4.170
 1956TIP3    H1 5790   2.957   0.517   4.175
 1956TIP3    H2 5791   3.075   0.567   4.255
 1957TIP3   OH2 5792   0.340   7.999   3.051
 1957TIP3    H1 5793   0.347   7.925   2.991
 1957TIP3    H2 5794   0.375   8.073   3.002
 1958TIP3   OH2 5795   3.692   0.483   4.135
 1958TIP3    H1 5796   3.601   0.456   4.147
 1958TIP3    H2 5797   3.718   0.442   4.052
 1959TIP3   OH2 5798   3.175   0.391   3.001
 1959TIP3    H1 5799   3.151   0.323   3.063
 1959TIP3    H2 5800   3.200   0.343   2.922
 1960TIP3   OH2 5801   3.140   0.040   3.775
 1960TIP3    H1 5802   3.051   0.020   3.803
 1960TIP3    H2 5803   3.170  -0.040   3.732
 1961TIP3   OH2 5804   2.311   0.271   3.583
 1961TIP3    H1 5805   2.303   0.343   3.521
 1961TIP3    H2 5806   2.225   0.266   3.625
 1962TIP3   OH2 5807   2.465   0.055   3.513
 1962TIP3    H1 5808   2.417   0.136   3.530
 1962TIP3    H2 5809   2.424  -0.010   3.571
 1963TIP3   OH2 5810   2.603   0.589   4.036
 1963TIP3    H1 5811   2.638   0.663   3.987
 1963TIP3    H2 5812   2.677   0.558   4.088
 1964TIP3   OH2 5813   2.219   0.489   3.432
 1964TIP3    H1 5814   2.131   0.495   3.468
 1964TIP3    H2 5815   2.255   0.577   3.438
 1965TIP3   OH2 5816   2.945   0.252   4.017
 1965TIP3    H1 5817   2.930   0.249   4.112
 1965TIP3    H2 5818   3.032   0.216   4.005
 1966TIP3   OH2 5819   2.900   0.143   2.914
 1966TIP3    H1 5820   2.972   0.121   2.973
 1966TIP3    H2 5821   2.821   0.127   2.966
 1967TIP3   OH2 5822   3.199   0.747   4.053
 1967TIP3    H1 5823   3.128   0.684   4.069
 1967TIP3    H2 5824   3.167   0.800   3.980
 1968TIP3   OH2 5825   3.250   0.584   2.705
 1968TIP3    H1 5826   3.276   0.644   2.635
 1968TIP3    H2 5827   3.177   0.627   2.748
 1969TIP3   OH2 5828   3.109   0.066   3.066
 1969TIP3    H1 5829   3.094   0.023   3.151
 1969TIP3    H2 5830   3.204   0.068   3.057
 1970TIP3   OH2 5831   2.049   0.512   4.185
 1970TIP3    H1 5832   2.103   0.457   4.242
 1970TIP3    H2 5833   2.048   0.597   4.229
 1971TIP3   OH2 5834   2.508   0.296   3.064
 1971TIP3    H1 5835   2.429   0.305   3.116
 1971TIP3    H2 5836   2.518   0.381   3.020
 1972TIP3   OH2 5837   8.736   7.687   3.578
 1972TIP3    H1 5838   8.757   7.776   3.550
 1972TIP3    H2 5839   8.640   7.685   3.584
 1973TIP3   OH2 5840   0.006   8.051   4.341
 1973TIP3    H1 5841   0.001   8.118   4.408
 1973TIP3    H2 5842   0.098   8.025   4.339
 1974TIP3   OH2 5843   2.281   0.387   3.184
 1974TIP3    H1 5844   2.249   0.458   3.129
 1974TIP3    H2 5845   2.257   0.413   3.273
 1975TIP3   OH2 5846   0.249   8.178   3.680
 1975TIP3    H1 5847   0.177   8.117   3.695
 1975TIP3    H2 5848   0.318   8.148   3.739
 1976TIP3   OH2 5849   3.229   0.740   3.621
 1976TIP3    H1 5850   3.186   0.793   3.553
 1976TIP3    H2 5851   3.322   0.754   3.607
 1977TIP3   OH2 5852   2.022   0.774   4.624
 1977TIP3    H1 5853   2.104   0.778   4.673
 1977TIP3    H2 5854   2.003   0.681   4.615
 1978TIP3   OH2 5855   2.484   0.684   4.668
 1978TIP3    H1 5856   2.576   0.661   4.677
 1978TIP3    H2 5857   2.456   0.638   4.589
 1979TIP3   OH2 5858   3.105   0.634   4.418
 1979TIP3    H1 5859   3.119   0.565   4.484
 1979TIP3    H2 5860   3.178   0.694   4.432
 1980TIP3   OH2 5861   2.910   0.345   2.725
 1980TIP3    H1 5862   2.899   0.275   2.789
 1980TIP3    H2 5863   3.002   0.342   2.701
 1981TIP3   OH2 5864   2.111   0.179   4.897
 1981TIP3    H1 5865   2.169   0.113   4.935
 1981TIP3    H2 5866   2.127   0.173   4.803
 1982TIP3   OH2 5867   2.749   0.280   4.601
 1982TIP3    H1 5868   2.700   0.294   4.520
 1982TIP3    H2 5869   2.787   0.193   4.591
 1983TIP3   OH2 5870   3.204   0.289   4.175
 1983TIP3    H1 5871   3.285   0.323   4.138
 1983TIP3    H2 5872   3.144   0.363   4.173
 1984TIP3   OH2 5873   8.229   8.293   4.773
 1984TIP3    H1 5874   8.288   8.218   4.777
 1984TIP3    H2 5875   8.230   8.329   4.862
 1985TIP3   OH2 5876   8.596   8.217   4.479
 1985TIP3    H1 5877   8.509   8.257   4.483
 1985TIP3    H2 5878   8.627   8.237   4.390
 1986TIP3   OH2 5879   3.080   0.189   4.558
 1986TIP3    H1 5880   3.157   0.160   4.509
 1986TIP3    H2 5881   3.077   0.133   4.636
 1987TIP3   OH2 5882   0.275   8.259   2.686
 1987TIP3    H1 5883   0.222   8.201   2.631
 1987TIP3    H2 5884   0.219   8.336   2.700
 1988TIP3   OH2 5885   8.633   7.982   4.602
 1988TIP3    H1 5886   8.669   7.927   4.533
 1988TIP3    H2 5887   8.619   8.067   4.560
 1989TIP3   OH2 5888   8.682   8.306   4.240
 1989TIP3    H1 5889   8.764   8.321   4.193
 1989TIP3    H2 5890   8.620   8.367   4.201
 1990TIP3   OH2 5891   0.331   8.276   4.639
 1990TIP3    H1 5892   0.378   8.212   4.692
 1990TIP3    H2 5893   0.394   8.347   4.626
 1991TIP3   OH2 5894   3.306   0.159   4.394
 1991TIP3    H1 5895   3.252   0.212   4.335
 1991TIP3    H2 5896   3.389   0.148   4.347
 1992TIP3   OH2 5897   8.408   8.077   4.762
 1992TIP3    H1 5898   8.426   8.069   4.855
 1992TIP3    H2 5899   8.484   8.038   4.719
 1993TIP3   OH2 5900   8.861   8.066   4.745
 1993TIP3    H1 5901   8.839   8.078   4.838
 1993TIP3    H2 5902   8.783   8.027   4.706
 1994TIP3   OH2 5903   2.251   0.601   3.015
 1994TIP3    H1 5904   2.327   0.582   2.961
 1994TIP3    H2 5905   2.193   0.650   2.957
 1995TIP3   OH2 5906   1.588   0.568   3.619
 1995TIP3    H1 5907   1.514   0.508   3.628
 1995TIP3    H2 5908   1.656   0.531   3.675
 1996TIP3   OH2 5909   1.790   0.462   3.774
 1996TIP3    H1 5910   1.741   0.387   3.805
 1996TIP3    H2 5911   1.837   0.494   3.851
 1997TIP3   OH2 5912   3.499   0.795   3.614
 1997TIP3    H1 5913   3.517   0.825   3.703
 1997TIP3    H2 5914   3.554   0.850   3.559
 1998TIP3   OH2 5915   3.512   0.832   3.893
 1998TIP3    H1 5916   3.468   0.747   3.892
 1998TIP3    H2 5917   3.584   0.820   3.955
 1999TIP3   OH2 5918   3.563   0.524   4.439
 1999TIP3    H1 5919   3.491   0.531   4.501
 1999TIP3    H2 5920   3.613   0.606   4.450
 2000TIP3   OH2 5921   3.382   0.062   3.056
 2000TIP3    H1 5922   3.445   0.128   3.025
 2000TIP3    H2 5923   3.418   0.032   3.140
 2001TIP3   OH2 5924   0.524   8.343   3.281
 2001TIP3    H1 5925   0.462   8.297   3.338
 2001TIP3    H2 5926   0.596   8.367   3.339
 2002TIP3   OH2 5927   3.558   0.318   3.713
 2002TIP3    H1 5928   3.612   0.251   3.671
 2002TIP3    H2 5929   3.560   0.393   3.653
 2003TIP3   OH2 5930   3.376   0.588   3.908
 2003TIP3    H1 5931   3.308   0.634   3.957
 2003TIP3    H2 5932   3.330   0.547   3.835
 2004TIP3   OH2 5933   0.426   8.219   2.914
 2004TIP3    H1 5934   0.379   8.232   2.832
 2004TIP3    H2 5935   0.414   8.300   2.962
 2005TIP3   OH2 5936   0.338   8.186   3.421
 2005TIP3    H1 5937   0.315   8.098   3.389
 2005TIP3    H2 5938   0.298   8.190   3.508
 2006TIP3   OH2 5939   7.890   8.178   4.211
 2006TIP3    H1 5940   7.864   8.132   4.131
 2006TIP3    H2 5941   7.961   8.125   4.247
 2007TIP3   OH2 5942   3.526   0.166   4.234
 2007TIP3    H1 5943   3.621   0.167   4.251
 2007TIP3    H2 5944   3.513   0.238   4.172
 2008TIP3   OH2 5945   3.780   0.122   4.348
 2008TIP3    H1 5946   3.773   0.027   4.334
 2008TIP3    H2 5947   3.872   0.142   4.330
 2009TIP3   OH2 5948   0.308   7.930   3.308
 2009TIP3    H1 5949   0.353   7.845   3.304
 2009TIP3    H2 5950   0.323   7.968   3.221
 2010TIP3   OH2 5951   0.496   8.123   3.803
 2010TIP3    H1 5952   0.586   8.148   3.781
 2010TIP3    H2 5953   0.487   8.147   3.896
 2011TIP3   OH2 5954   0.518   8.260   4.046
 2011TIP3    H1 5955   0.432   8.289   4.079
 2011TIP3    H2 5956   0.555   8.337   4.003
 2012TIP3   OH2 5957   8.116   8.006   4.976
 2012TIP3    H1 5958   8.140   7.938   4.913
 2012TIP3    H2 5959   8.079   7.957   5.050
 2013TIP3   OH2 5960   7.875   7.889   4.156
 2013TIP3    H1 5961   7.912   7.809   4.118
 2013TIP3    H2 5962   7.943   7.922   4.214
 2014TIP3   OH2 5963   3.055   0.714   3.259
 2014TIP3    H1 5964   3.111   0.702   3.183
 2014TIP3    H2 5965   3.098   0.782   3.311
 2015TIP3   OH2 5966   2.182   0.489   4.645
 2015TIP3    H1 5967   2.097   0.475   4.688
 2015TIP3    H2 5968   2.239   0.520   4.716
 2016TIP3   OH2 5969   2.374   0.550   4.181
 2016TIP3    H1 5970   2.321   0.623   4.148
 2016TIP3    H2 5971   2.458   0.561   4.137
 2017TIP3   OH2 5972   2.762   0.783   4.326
 2017TIP3    H1 5973   2.800   0.776   4.414
 2017TIP3    H2 5974   2.825   0.836   4.277
 2018TIP3   OH2 5975   2.956   0.934   4.202
 2018TIP3    H1 5976   3.020   0.883   4.153
 2018TIP3    H2 5977   3.009   0.994   4.255
 2019TIP3   OH2 5978   2.033   0.789   4.236
 2019TIP3    H1 5979   1.946   0.813   4.206
 2019TIP3    H2 5980   2.054   0.854   4.303
 2020TIP3   OH2 5981   2.260   0.780   4.078
 2020TIP3    H1 5982   2.178   0.788   4.128
 2020TIP3    H2 5983   2.237   0.808   3.990
 2021TIP3   OH2 5984   2.673   0.801   3.874
 2021TIP3    H1 5985   2.603   0.815   3.810
 2021TIP3    H2 5986   2.684   0.886   3.916
 2022TIP3   OH2 5987   2.934   0.729   3.923
 2022TIP3    H1 5988   2.843   0.752   3.903
 2022TIP3    H2 5989   2.986   0.796   3.878
 2023TIP3   OH2 5990   3.134   0.899   3.826
 2023TIP3    H1 5991   3.136   0.987   3.789
 2023TIP3    H2 5992   3.165   0.842   3.755
 2024TIP3   OH2 5993   1.969   0.610   3.941
 2024TIP3    H1 5994   1.998   0.591   4.031
 2024TIP3    H2 5995   2.036   0.569   3.886
 2025TIP3   OH2 5996   2.160   0.475   3.802
 2025TIP3    H1 5997   2.170   0.393   3.852
 2025TIP3    H2 5998   2.247   0.514   3.803
 2026TIP3   OH2 5999   2.425   0.550   3.825
 2026TIP3    H1 6000   2.449   0.460   3.804
 2026TIP3    H2 6001   2.476   0.571   3.904
 2027TIP3   OH2 6002   2.480   0.519   2.885
 2027TIP3    H1 6003   2.571   0.546   2.873
 2027TIP3    H2 6004   2.468   0.448   2.822
 2028TIP3   OH2 6005   3.206   0.662   3.032
 2028TIP3    H1 6006   3.200   0.566   3.025
 2028TIP3    H2 6007   3.162   0.694   2.953
 2029TIP3   OH2 6008   3.422   0.804   4.213
 2029TIP3    H1 6009   3.348   0.771   4.162
 2029TIP3    H2 6010   3.407   0.898   4.221
 2030TIP3   OH2 6011   4.687   0.172   3.003
 2030TIP3    H1 6012   4.669   0.266   2.998
 2030TIP3    H2 6013   4.625   0.132   2.942
 2031TIP3   OH2 6014   4.688   0.245   3.337
 2031TIP3    H1 6015   4.733   0.241   3.422
 2031TIP3    H2 6016   4.641   0.162   3.330
 2032TIP3   OH2 6017   3.985   0.064   3.726
 2032TIP3    H1 6018   4.020   0.025   3.806
 2032TIP3    H2 6019   4.063   0.086   3.674
 2033TIP3   OH2 6020   4.973   0.504   3.046
 2033TIP3    H1 6021   4.959   0.443   3.118
 2033TIP3    H2 6022   4.995   0.587   3.088
 2034TIP3   OH2 6023   3.980   0.476   3.421
 2034TIP3    H1 6024   3.959   0.383   3.425
 2034TIP3    H2 6025   4.075   0.479   3.405
 2035TIP3   OH2 6026   0.698   8.183   3.134
 2035TIP3    H1 6027   0.637   8.251   3.163
 2035TIP3    H2 6028   0.651   8.101   3.150
 2036TIP3   OH2 6029   0.770   8.394   3.410
 2036TIP3    H1 6030   0.826   8.320   3.431
 2036TIP3    H2 6031   0.830   8.462   3.380
 2037TIP3   OH2 6032   4.627   0.914   3.068
 2037TIP3    H1 6033   4.654   0.852   3.000
 2037TIP3    H2 6034   4.631   0.863   3.149
 2038TIP3   OH2 6035   4.496   0.436   3.392
 2038TIP3    H1 6036   4.542   0.366   3.347
 2038TIP3    H2 6037   4.565   0.490   3.431
 2039TIP3   OH2 6038   1.884   8.352   3.430
 2039TIP3    H1 6039   1.969   8.310   3.419
 2039TIP3    H2 6040   1.842   8.344   3.344
 2040TIP3   OH2 6041   2.015   8.203   3.027
 2040TIP3    H1 6042   2.057   8.160   2.954
 2040TIP3    H2 6043   1.929   8.229   2.994
 2041TIP3   OH2 6044   0.928   8.170   3.504
 2041TIP3    H1 6045   0.983   8.098   3.536
 2041TIP3    H2 6046   0.949   8.176   3.411
 2042TIP3   OH2 6047   1.322   8.419   3.324
 2042TIP3    H1 6048   1.417   8.422   3.333
 2042TIP3    H2 6049   1.303   8.331   3.293
 2043TIP3   OH2 6050   5.588   0.110   3.526
 2043TIP3    H1 6051   5.493   0.116   3.533
 2043TIP3    H2 6052   5.603   0.054   3.449
 2044TIP3   OH2 6053   4.602   0.397   2.839
 2044TIP3    H1 6054   4.566   0.366   2.756
 2044TIP3    H2 6055   4.549   0.474   2.861
 2045TIP3   OH2 6056   4.366   0.335   3.616
 2045TIP3    H1 6057   4.306   0.402   3.647
 2045TIP3    H2 6058   4.408   0.374   3.539
 2046TIP3   OH2 6059   1.062   7.936   3.571
 2046TIP3    H1 6060   1.044   7.928   3.664
 2046TIP3    H2 6061   1.150   7.899   3.560
 2047TIP3   OH2 6062   4.189   0.528   3.706
 2047TIP3    H1 6063   4.175   0.616   3.670
 2047TIP3    H2 6064   4.110   0.509   3.756
 2048TIP3   OH2 6065   3.563   0.243   2.955
 2048TIP3    H1 6066   3.540   0.254   2.863
 2048TIP3    H2 6067   3.587   0.331   2.985
 2049TIP3   OH2 6068   5.005   0.741   3.194
 2049TIP3    H1 6069   4.918   0.731   3.233
 2049TIP3    H2 6070   5.001   0.825   3.148
 2050TIP3   OH2 6071   4.714   0.767   2.849
 2050TIP3    H1 6072   4.765   0.687   2.835
 2050TIP3    H2 6073   4.774   0.838   2.822
 2051TIP3   OH2 6074   4.844   0.533   2.805
 2051TIP3    H1 6075   4.772   0.470   2.813
 2051TIP3    H2 6076   4.900   0.515   2.881
 2052TIP3   OH2 6077   5.235   0.636   3.531
 2052TIP3    H1 6078   5.218   0.566   3.467
 2052TIP3    H2 6079   5.224   0.717   3.482
 2053TIP3   OH2 6080   4.541   0.055   2.807
 2053TIP3    H1 6081   4.451   0.084   2.795
 2053TIP3    H2 6082   4.581   0.060   2.720
 2054TIP3   OH2 6083   1.490   8.281   2.533
 2054TIP3    H1 6084   1.466   8.272   2.626
 2054TIP3    H2 6085   1.585   8.292   2.534
 2055TIP3   OH2 6086   5.429   0.319   3.345
 2055TIP3    H1 6087   5.350   0.372   3.350
 2055TIP3    H2 6088   5.476   0.351   3.268
 2056TIP3   OH2 6089   4.864   0.170   2.781
 2056TIP3    H1 6090   4.810   0.180   2.860
 2056TIP3    H2 6091   4.951   0.147   2.815
 2057TIP3   OH2 6092   5.095   0.247   3.652
 2057TIP3    H1 6093   5.091   0.318   3.716
 2057TIP3    H2 6094   5.008   0.246   3.612
 2058TIP3   OH2 6095   4.080   0.119   3.173
 2058TIP3    H1 6096   4.054   0.053   3.108
 2058TIP3    H2 6097   4.159   0.083   3.213
 2059TIP3   OH2 6098   4.238   0.521   3.319
 2059TIP3    H1 6099   4.219   0.506   3.226
 2059TIP3    H2 6100   4.327   0.490   3.331
 2060TIP3   OH2 6101   4.203   0.121   3.566
 2060TIP3    H1 6102   4.234   0.089   3.481
 2060TIP3    H2 6103   4.256   0.199   3.582
 2061TIP3   OH2 6104   4.768   0.727   3.328
 2061TIP3    H1 6105   4.754   0.808   3.376
 2061TIP3    H2 6106   4.754   0.658   3.394
 2062TIP3   OH2 6107   4.385   0.629   3.873
 2062TIP3    H1 6108   4.323   0.687   3.918
 2062TIP3    H2 6109   4.330   0.577   3.815
 2063TIP3   OH2 6110   4.713   0.034   2.595
 2063TIP3    H1 6111   4.766   0.091   2.649
 2063TIP3    H2 6112   4.752   0.039   2.508
 2064TIP3   OH2 6113   4.128   0.208   4.013
 2064TIP3    H1 6114   4.136   0.300   4.038
 2064TIP3    H2 6115   4.034   0.192   4.009
 2065TIP3   OH2 6116   4.468   0.640   2.864
 2065TIP3    H1 6117   4.548   0.693   2.864
 2065TIP3    H2 6118   4.407   0.690   2.810
 2066TIP3   OH2 6119   4.175   0.787   3.957
 2066TIP3    H1 6120   4.148   0.795   3.865
 2066TIP3    H2 6121   4.094   0.768   4.004
 2067TIP3   OH2 6122   1.017   8.339   2.972
 2067TIP3    H1 6123   0.963   8.414   2.947
 2067TIP3    H2 6124   0.955   8.271   2.996
 2068TIP3   OH2 6125   5.053   0.579   2.219
 2068TIP3    H1 6126   5.044   0.672   2.197
 2068TIP3    H2 6127   5.145   0.559   2.203
 2069TIP3   OH2 6128   3.764   0.353   3.907
 2069TIP3    H1 6129   3.694   0.337   3.843
 2069TIP3    H2 6130   3.794   0.266   3.933
 2070TIP3   OH2 6131   3.611   0.544   3.559
 2070TIP3    H1 6132   3.703   0.565   3.575
 2070TIP3    H2 6133   3.563   0.622   3.586
 2071TIP3   OH2 6134   5.475   1.012   3.606
 2071TIP3    H1 6135   5.482   0.917   3.613
 2071TIP3    H2 6136   5.394   1.033   3.651
 2072TIP3   OH2 6137   4.573   0.773   3.735
 2072TIP3    H1 6138   4.564   0.864   3.764
 2072TIP3    H2 6139   4.506   0.725   3.783
 2073TIP3   OH2 6140   4.355   0.868   2.689
 2073TIP3    H1 6141   4.313   0.847   2.606
 2073TIP3    H2 6142   4.316   0.951   2.716
 2074TIP3   OH2 6143   3.790   0.727   3.065
 2074TIP3    H1 6144   3.835   0.719   3.149
 2074TIP3    H2 6145   3.742   0.645   3.055
 2075TIP3   OH2 6146   4.561   0.811   2.322
 2075TIP3    H1 6147   4.613   0.740   2.286
 2075TIP3    H2 6148   4.594   0.823   2.411
 2076TIP3   OH2 6149   4.610   0.850   2.591
 2076TIP3    H1 6150   4.523   0.851   2.631
 2076TIP3    H2 6151   4.667   0.810   2.658
 2077TIP3   OH2 6152   5.335   0.162   3.795
 2077TIP3    H1 6153   5.272   0.207   3.740
 2077TIP3    H2 6154   5.356   0.082   3.747
 2078TIP3   OH2 6155   3.969   0.537   3.873
 2078TIP3    H1 6156   4.015   0.529   3.957
 2078TIP3    H2 6157   3.896   0.474   3.881
 2079TIP3   OH2 6158   2.117   8.237   3.852
 2079TIP3    H1 6159   2.142   8.310   3.908
 2079TIP3    H2 6160   2.132   8.268   3.762
 2080TIP3   OH2 6161   4.842  -0.005   2.359
 2080TIP3    H1 6162   4.781  -0.008   2.286
 2080TIP3    H2 6163   4.920   0.039   2.324
 2081TIP3   OH2 6164   1.404   8.335   3.717
 2081TIP3    H1 6165   1.339   8.265   3.722
 2081TIP3    H2 6166   1.357   8.409   3.680
 2082TIP3   OH2 6167   1.214   8.189   3.226
 2082TIP3    H1 6168   1.119   8.195   3.225
 2082TIP3    H2 6169   1.236   8.142   3.146
 2083TIP3   OH2 6170   1.775   8.265   2.897
 2083TIP3    H1 6171   1.702   8.322   2.871
 2083TIP3    H2 6172   1.826   8.255   2.817
 2084TIP3   OH2 6173   4.886   0.173   3.990
 2084TIP3    H1 6174   4.871   0.079   3.978
 2084TIP3    H2 6175   4.974   0.180   4.025
 2085TIP3   OH2 6176   1.787   8.345   3.170
 2085TIP3    H1 6177   1.760   8.419   3.115
 2085TIP3    H2 6178   1.750   8.268   3.127
 2086TIP3   OH2 6179   1.132   8.328   3.946
 2086TIP3    H1 6180   1.167   8.406   3.988
 2086TIP3    H2 6181   1.095   8.277   4.017
 2087TIP3   OH2 6182   0.672   7.900   2.946
 2087TIP3    H1 6183   0.763   7.884   2.969
 2087TIP3    H2 6184   0.630   7.925   3.029
 2088TIP3   OH2 6185   4.842   0.199   3.560
 2088TIP3    H1 6186   4.854   0.119   3.508
 2088TIP3    H2 6187   4.804   0.168   3.642
 2089TIP3   OH2 6188   0.946   8.160   3.235
 2089TIP3    H1 6189   0.860   8.176   3.195
 2089TIP3    H2 6190   0.962   8.067   3.219
 2090TIP3   OH2 6191   1.253   8.058   2.989
 2090TIP3    H1 6192   1.323   8.000   2.958
 2090TIP3    H2 6193   1.190   8.059   2.917
 2091TIP3   OH2 6194   1.104   8.092   2.762
 2091TIP3    H1 6195   1.153   8.100   2.681
 2091TIP3    H2 6196   1.012   8.104   2.737
 2092TIP3   OH2 6197   5.180   1.333   3.696
 2092TIP3    H1 6198   5.177   1.349   3.602
 2092TIP3    H2 6199   5.259   1.378   3.726
 2093TIP3   OH2 6200   4.120   0.463   4.116
 2093TIP3    H1 6201   4.200   0.479   4.164
 2093TIP3    H2 6202   4.050   0.473   4.181
 2094TIP3   OH2 6203   1.588   8.398   3.366
 2094TIP3    H1 6204   1.605   8.339   3.293
 2094TIP3    H2 6205   1.600   8.343   3.444
 2095TIP3   OH2 6206   1.613   8.232   3.583
 2095TIP3    H1 6207   1.526   8.256   3.615
 2095TIP3    H2 6208   1.673   8.289   3.631
 2096TIP3   OH2 6209   4.292   0.170   2.757
 2096TIP3    H1 6210   4.220   0.112   2.734
 2096TIP3    H2 6211   4.266   0.210   2.840
 2097TIP3   OH2 6212   5.181   0.441   3.349
 2097TIP3    H1 6213   5.211   0.491   3.273
 2097TIP3    H2 6214   5.096   0.406   3.321
 2098TIP3   OH2 6215   1.825   7.825   2.574
 2098TIP3    H1 6216   1.754   7.765   2.598
 2098TIP3    H2 6217   1.793   7.912   2.597
 2099TIP3   OH2 6218   4.706   0.515   3.787
 2099TIP3    H1 6219   4.751   0.503   3.871
 2099TIP3    H2 6220   4.666   0.601   3.794
 2100TIP3   OH2 6221   1.937   8.234   2.677
 2100TIP3    H1 6222   2.019   8.251   2.631
 2100TIP3    H2 6223   1.870   8.278   2.625
 2101TIP3   OH2 6224   3.961   0.190   3.409
 2101TIP3    H1 6225   3.997   0.175   3.321
 2101TIP3    H2 6226   4.032   0.164   3.468
 2102TIP3   OH2 6227   4.451   0.332   2.609
 2102TIP3    H1 6228   4.405   0.416   2.606
 2102TIP3    H2 6229   4.393   0.274   2.657
 2103TIP3   OH2 6230   3.862   0.120   4.039
 2103TIP3    H1 6231   3.885   0.070   4.117
 2103TIP3    H2 6232   3.787   0.073   4.002
 2104TIP3   OH2 6233   4.633   0.273   4.044
 2104TIP3    H1 6234   4.587   0.248   3.965
 2104TIP3    H2 6235   4.724   0.247   4.028
 2105TIP3   OH2 6236   4.841   0.798   3.653
 2105TIP3    H1 6237   4.747   0.782   3.660
 2105TIP3    H2 6238   4.865   0.835   3.739
 2106TIP3   OH2 6239   2.187   8.299   2.564
 2106TIP3    H1 6240   2.189   8.226   2.501
 2106TIP3    H2 6241   2.216   8.375   2.513
 2107TIP3   OH2 6242   5.487   0.737   3.620
 2107TIP3    H1 6243   5.394   0.716   3.626
 2107TIP3    H2 6244   5.514   0.697   3.537
 2108TIP3   OH2 6245   4.964   0.644   2.481
 2108TIP3    H1 6246   4.937   0.571   2.537
 2108TIP3    H2 6247   4.989   0.604   2.398
 2109TIP3   OH2 6248   4.942   0.330   3.258
 2109TIP3    H1 6249   4.849   0.318   3.275
 2109TIP3    H2 6250   4.971   0.246   3.221
 2110TIP3   OH2 6251   4.106   0.524   3.070
 2110TIP3    H1 6252   4.102   0.602   3.014
 2110TIP3    H2 6253   4.014   0.500   3.084
 2111TIP3   OH2 6254   0.676   8.296   2.791
 2111TIP3    H1 6255   0.672   8.212   2.744
 2111TIP3    H2 6256   0.611   8.287   2.861
 2112TIP3   OH2 6257   4.199   0.281   2.983
 2112TIP3    H1 6258   4.184   0.373   3.008
 2112TIP3    H2 6259   4.152   0.230   3.049
 2113TIP3   OH2 6260   4.392   0.842   3.526
 2113TIP3    H1 6261   4.427   0.915   3.476
 2113TIP3    H2 6262   4.466   0.809   3.576
 2114TIP3   OH2 6263   4.024   0.746   2.921
 2114TIP3    H1 6264   3.937   0.752   2.960
 2114TIP3    H2 6265   4.059   0.835   2.927
 2115TIP3   OH2 6266   4.738   0.514   3.513
 2115TIP3    H1 6267   4.726   0.510   3.607
 2115TIP3    H2 6268   4.813   0.455   3.496
 2116TIP3   OH2 6269   4.732   0.384   2.352
 2116TIP3    H1 6270   4.781   0.362   2.431
 2116TIP3    H2 6271   4.645   0.346   2.367
 2117TIP3   OH2 6272   4.995   1.007   3.538
 2117TIP3    H1 6273   4.926   0.943   3.555
 2117TIP3    H2 6274   4.961   1.060   3.466
 2118TIP3   OH2 6275   5.046   0.850   2.175
 2118TIP3    H1 6276   5.070   0.910   2.105
 2118TIP3    H2 6277   4.974   0.893   2.221
 2119TIP3   OH2 6278   4.903   0.321   2.552
 2119TIP3    H1 6279   4.885   0.285   2.639
 2119TIP3    H2 6280   4.999   0.329   2.549
 2120TIP3   OH2 6281   3.818   0.739   3.687
 2120TIP3    H1 6282   3.873   0.680   3.739
 2120TIP3    H2 6283   3.835   0.826   3.725
 2121TIP3   OH2 6284   4.088   0.360   2.388
 2121TIP3    H1 6285   4.095   0.270   2.359
 2121TIP3    H2 6286   4.071   0.354   2.483
 2122TIP3   OH2 6287   4.028   0.371   2.658
 2122TIP3    H1 6288   4.091   0.341   2.724
 2122TIP3    H2 6289   4.031   0.467   2.664
 2123TIP3   OH2 6290   3.825   0.155   2.906
 2123TIP3    H1 6291   3.738   0.166   2.942
 2123TIP3    H2 6292   3.817   0.181   2.814
 2124TIP3   OH2 6293   4.305   0.560   2.598
 2124TIP3    H1 6294   4.218   0.582   2.631
 2124TIP3    H2 6295   4.325   0.629   2.535
 2125TIP3   OH2 6296   1.568   8.073   2.930
 2125TIP3    H1 6297   1.658   8.098   2.953
 2125TIP3    H2 6298   1.543   8.009   2.996
 2126TIP3   OH2 6299   1.785   8.387   3.726
 2126TIP3    H1 6300   1.800   8.360   3.817
 2126TIP3    H2 6301   1.853   8.341   3.676
 2127TIP3   OH2 6302   4.053   0.643   2.670
 2127TIP3    H1 6303   4.032   0.714   2.609
 2127TIP3    H2 6304   4.041   0.681   2.756
 2128TIP3   OH2 6305   5.004   0.078   3.169
 2128TIP3    H1 6306   4.920   0.032   3.159
 2128TIP3    H2 6307   5.052   0.027   3.233
 2129TIP3   OH2 6308   3.777   0.252   2.645
 2129TIP3    H1 6309   3.849   0.315   2.649
 2129TIP3    H2 6310   3.811   0.180   2.591
 2130TIP3   OH2 6311   0.662   8.031   2.703
 2130TIP3    H1 6312   0.751   8.011   2.674
 2130TIP3    H2 6313   0.656   7.992   2.790
 2131TIP3   OH2 6314   5.027   1.004   3.110
 2131TIP3    H1 6315   4.985   1.057   3.042
 2131TIP3    H2 6316   5.121   1.015   3.094
 2132TIP3   OH2 6317   3.617   0.507   3.040
 2132TIP3    H1 6318   3.574   0.541   3.119
 2132TIP3    H2 6319   3.573   0.551   2.967
 2133TIP3   OH2 6320   3.812   1.034   4.108
 2133TIP3    H1 6321   3.895   1.030   4.155
 2133TIP3    H2 6322   3.783   0.943   4.102
 2134TIP3   OH2 6323   4.283   0.948   4.151
 2134TIP3    H1 6324   4.374   0.919   4.159
 2134TIP3    H2 6325   4.248   0.896   4.079
 2135TIP3   OH2 6326   4.250   0.554   2.283
 2135TIP3    H1 6327   4.203   0.483   2.325
 2135TIP3    H2 6328   4.323   0.511   2.238
 2136TIP3   OH2 6329   4.901   0.899   3.901
 2136TIP3    H1 6330   4.915   0.832   3.968
 2136TIP3    H2 6331   4.976   0.959   3.912
 2137TIP3   OH2 6332   4.693   0.608   2.203
 2137TIP3    H1 6333   4.724   0.537   2.259
 2137TIP3    H2 6334   4.751   0.604   2.127
 2138TIP3   OH2 6335   3.910   0.453   4.300
 2138TIP3    H1 6336   3.919   0.358   4.309
 2138TIP3    H2 6337   3.828   0.465   4.252
 2139TIP3   OH2 6338   3.913   0.058   2.512
 2139TIP3    H1 6339   3.968   0.036   2.587
 2139TIP3    H2 6340   3.976   0.072   2.440
 2140TIP3   OH2 6341   4.535   0.531   4.082
 2140TIP3    H1 6342   4.492   0.551   3.999
 2140TIP3    H2 6343   4.580   0.448   4.067
 2141TIP3   OH2 6344   4.472   0.286   2.340
 2141TIP3    H1 6345   4.455   0.296   2.433
 2141TIP3    H2 6346   4.453   0.194   2.321
 2142TIP3   OH2 6347   5.006   0.572   3.679
 2142TIP3    H1 6348   5.081   0.602   3.628
 2142TIP3    H2 6349   4.939   0.639   3.664
 2143TIP3   OH2 6350   4.041   0.186   4.302
 2143TIP3    H1 6351   4.118   0.166   4.248
 2143TIP3    H2 6352   4.077   0.232   4.378
 2144TIP3   OH2 6353   1.122   8.384   2.713
 2144TIP3    H1 6354   1.093   8.354   2.799
 2144TIP3    H2 6355   1.156   8.306   2.670
 2145TIP3   OH2 6356   4.374   0.088   4.002
 2145TIP3    H1 6357   4.294   0.140   3.993
 2145TIP3    H2 6358   4.429   0.116   3.928
 2146TIP3   OH2 6359   1.220   8.185   2.533
 2146TIP3    H1 6360   1.209   8.198   2.439
 2146TIP3    H2 6361   1.312   8.206   2.550
 2147TIP3   OH2 6362   4.862   0.472   4.034
 2147TIP3    H1 6363   4.930   0.423   3.988
 2147TIP3    H2 6364   4.843   0.420   4.112
 2148TIP3   OH2 6365   5.047   0.107   2.193
 2148TIP3    H1 6366   5.007   0.058   2.121
 2148TIP3    H2 6367   5.010   0.195   2.186
 2149TIP3   OH2 6368   1.522   8.202   3.975
 2149TIP3    H1 6369   1.570   8.140   3.920
 2149TIP3    H2 6370   1.496   8.272   3.915
 2150TIP3   OH2 6371   4.529   0.195   3.801
 2150TIP3    H1 6372   4.588   0.140   3.750
 2150TIP3    H2 6373   4.483   0.249   3.736
 2151TIP3   OH2 6374   5.113   0.229   4.165
 2151TIP3    H1 6375   5.154   0.159   4.113
 2151TIP3    H2 6376   5.171   0.304   4.153
 2152TIP3   OH2 6377   5.112   0.432   3.884
 2152TIP3    H1 6378   5.057   0.489   3.830
 2152TIP3    H2 6379   5.197   0.434   3.841
 2153TIP3   OH2 6380   4.313   0.053   4.268
 2153TIP3    H1 6381   4.300  -0.041   4.253
 2153TIP3    H2 6382   4.355   0.084   4.187
 2154TIP3   OH2 6383   1.672   8.300   4.186
 2154TIP3    H1 6384   1.631   8.279   4.270
 2154TIP3    H2 6385   1.609   8.270   4.121
 2155TIP3   OH2 6386   4.049   0.855   2.490
 2155TIP3    H1 6387   4.138   0.834   2.461
 2155TIP3    H2 6388   4.009   0.896   2.413
 2156TIP3   OH2 6389   3.507   0.221   2.668
 2156TIP3    H1 6390   3.602   0.234   2.665
 2156TIP3    H2 6391   3.494   0.131   2.637
 2157TIP3   OH2 6392   3.416   0.812   3.125
 2157TIP3    H1 6393   3.350   0.759   3.080
 2157TIP3    H2 6394   3.461   0.751   3.183
 2158TIP3   OH2 6395   3.559   0.644   3.291
 2158TIP3    H1 6396   3.551   0.576   3.358
 2158TIP3    H2 6397   3.612   0.712   3.333
 2159TIP3   OH2 6398   5.298   1.053   3.098
 2159TIP3    H1 6399   5.322   1.084   3.186
 2159TIP3    H2 6400   5.357   1.100   3.039
 2160TIP3   OH2 6401   5.318   1.090   3.379
 2160TIP3    H1 6402   5.272   1.006   3.374
 2160TIP3    H2 6403   5.389   1.074   3.442
 2161TIP3   OH2 6404   5.359   0.784   3.913
 2161TIP3    H1 6405   5.290   0.787   3.979
 2161TIP3    H2 6406   5.409   0.865   3.927
 2162TIP3   OH2 6407   5.178   0.332   2.554
 2162TIP3    H1 6408   5.239   0.400   2.525
 2162TIP3    H2 6409   5.219   0.295   2.632
 2163TIP3   OH2 6410   5.301   0.196   2.757
 2163TIP3    H1 6411   5.234   0.166   2.818
 2163TIP3    H2 6412   5.374   0.223   2.813
 2164TIP3   OH2 6413   5.361   0.576   3.190
 2164TIP3    H1 6414   5.419   0.516   3.143
 2164TIP3    H2 6415   5.360   0.656   3.137
 2165TIP3   OH2 6416   5.171   0.856   3.385
 2165TIP3    H1 6417   5.103   0.901   3.435
 2165TIP3    H2 6418   5.125   0.815   3.312
 2166TIP3   OH2 6419   5.225   0.114   2.396
 2166TIP3    H1 6420   5.160   0.118   2.325
 2166TIP3    H2 6421   5.209   0.194   2.447
 2167TIP3   OH2 6422   2.267   8.191   2.303
 2167TIP3    H1 6423   2.229   8.267   2.261
 2167TIP3    H2 6424   2.193   8.133   2.320
 2168TIP3   OH2 6425   5.096   0.084   2.907
 2168TIP3    H1 6426   5.108  -0.009   2.888
 2168TIP3    H2 6427   5.067   0.087   2.998
 2169TIP3   OH2 6428   3.728   0.110   3.660
 2169TIP3    H1 6429   3.718   0.078   3.571
 2169TIP3    H2 6430   3.821   0.105   3.678
 2170TIP3   OH2 6431   5.323   0.456   3.716
 2170TIP3    H1 6432   5.419   0.463   3.717
 2170TIP3    H2 6433   5.295   0.521   3.652
 2171TIP3   OH2 6434   5.544   0.344   3.848
 2171TIP3    H1 6435   5.468   0.293   3.821
 2171TIP3    H2 6436   5.619   0.298   3.810
 2172TIP3   OH2 6437   2.207   8.219   2.821
 2172TIP3    H1 6438   2.213   8.124   2.808
 2172TIP3    H2 6439   2.203   8.256   2.733
 2173TIP3   OH2 6440   2.437   8.304   3.415
 2173TIP3    H1 6441   2.472   8.346   3.337
 2173TIP3    H2 6442   2.378   8.369   3.453
 2174TIP3   OH2 6443   5.302   0.148   3.503
 2174TIP3    H1 6444   5.228   0.196   3.539
 2174TIP3    H2 6445   5.344   0.210   3.443
 2175TIP3   OH2 6446   1.071   8.106   4.399
 2175TIP3    H1 6447   1.157   8.131   4.432
 2175TIP3    H2 6448   1.083   8.018   4.364
 2176TIP3   OH2 6449   0.760   8.172   3.728
 2176TIP3    H1 6450   0.813   8.196   3.651
 2176TIP3    H2 6451   0.792   8.228   3.798
 2177TIP3   OH2 6452   4.860   0.970   2.748
 2177TIP3    H1 6453   4.910   0.953   2.669
 2177TIP3    H2 6454   4.905   1.043   2.791
 2178TIP3   OH2 6455   3.957   0.753   4.127
 2178TIP3    H1 6456   3.862   0.745   4.117
 2178TIP3    H2 6457   3.971   0.750   4.222
 2179TIP3   OH2 6458   4.163   0.805   3.674
 2179TIP3    H1 6459   4.112   0.880   3.642
 2179TIP3    H2 6460   4.247   0.813   3.630
 2180TIP3   OH2 6461   4.559   1.039   3.814
 2180TIP3    H1 6462   4.598   1.032   3.901
 2180TIP3    H2 6463   4.622   1.091   3.764
 2181TIP3   OH2 6464   4.751   1.190   3.685
 2181TIP3    H1 6465   4.813   1.136   3.636
 2181TIP3    H2 6466   4.807   1.246   3.739
 2182TIP3   OH2 6467   3.824   1.040   3.724
 2182TIP3    H1 6468   3.733   1.058   3.701
 2182TIP3    H2 6469   3.846   1.108   3.789
 2183TIP3   OH2 6470   4.055   1.038   3.573
 2183TIP3    H1 6471   3.971   1.041   3.619
 2183TIP3    H2 6472   4.032   1.061   3.482
 2184TIP3   OH2 6473   4.466   1.054   3.364
 2184TIP3    H1 6474   4.394   1.064   3.301
 2184TIP3    H2 6475   4.476   1.141   3.403
 2185TIP3   OH2 6476   4.730   0.990   3.409
 2185TIP3    H1 6477   4.638   1.009   3.389
 2185TIP3    H2 6478   4.779   1.056   3.361
 2186TIP3   OH2 6479   4.931   1.163   3.312
 2186TIP3    H1 6480   4.930   1.250   3.273
 2186TIP3    H2 6481   4.962   1.105   3.242
 2187TIP3   OH2 6482   3.731   0.825   3.437
 2187TIP3    H1 6483   3.757   0.801   3.526
 2187TIP3    H2 6484   3.803   0.793   3.382
 2188TIP3   OH2 6485   3.936   0.715   3.298
 2188TIP3    H1 6486   3.946   0.631   3.342
 2188TIP3    H2 6487   4.023   0.754   3.301
 2189TIP3   OH2 6488   4.204   0.798   3.323
 2189TIP3    H1 6489   4.219   0.705   3.308
 2189TIP3    H2 6490   4.260   0.820   3.397
 2190TIP3   OH2 6491   3.498   0.626   2.826
 2190TIP3    H1 6492   3.414   0.588   2.799
 2190TIP3    H2 6493   3.497   0.714   2.789
 2191TIP3   OH2 6494   4.304   0.782   2.419
 2191TIP3    H1 6495   4.388   0.810   2.382
 2191TIP3    H2 6496   4.276   0.710   2.363
 2192TIP3   OH2 6497   4.999   0.913   2.516
 2192TIP3    H1 6498   4.993   0.818   2.509
 2192TIP3    H2 6499   4.958   0.946   2.437
 2193TIP3   OH2 6500   3.606   0.603   2.479
 2193TIP3    H1 6501   3.611   0.611   2.574
 2193TIP3    H2 6502   3.689   0.561   2.455
 2194TIP3   OH2 6503   5.219   1.061   3.698
 2194TIP3    H1 6504   5.144   1.030   3.646
 2194TIP3    H2 6505   5.204   1.155   3.706
 2195TIP3   OH2 6506   6.478   0.415   2.473
 2195TIP3    H1 6507   6.457   0.508   2.459
 2195TIP3    H2 6508   6.412   0.368   2.423
 2196TIP3   OH2 6509   6.475   0.467   2.799
 2196TIP3    H1 6510   6.528   0.434   2.872
 2196TIP3    H2 6511   6.437   0.389   2.760
 2197TIP3   OH2 6512   5.795   0.334   3.203
 2197TIP3    H1 6513   5.822   0.299   3.288
 2197TIP3    H2 6514   5.876   0.341   3.153
 2198TIP3   OH2 6515   6.777   0.749   2.534
 2198TIP3    H1 6516   6.751   0.693   2.607
 2198TIP3    H2 6517   6.793   0.835   2.574
 2199TIP3   OH2 6518   5.778   0.730   2.910
 2199TIP3    H1 6519   5.759   0.636   2.913
 2199TIP3    H2 6520   5.872   0.735   2.896
 2200TIP3   OH2 6521   5.465   0.033   2.601
 2200TIP3    H1 6522   5.402   0.095   2.641
 2200TIP3    H2 6523   5.417  -0.049   2.596
 2201TIP3   OH2 6524   5.547   0.256   2.881
 2201TIP3    H1 6525   5.599   0.181   2.909
 2201TIP3    H2 6526   5.611   0.320   2.852
 2202TIP3   OH2 6527   6.417   1.176   2.550
 2202TIP3    H1 6528   6.443   1.114   2.482
 2202TIP3    H2 6529   6.407   1.123   2.629
 2203TIP3   OH2 6530   6.297   0.670   2.872
 2203TIP3    H1 6531   6.340   0.597   2.828
 2203TIP3    H2 6532   6.369   0.721   2.909
 2204TIP3   OH2 6533   6.814   0.057   2.449
 2204TIP3    H1 6534   6.869  -0.020   2.457
 2204TIP3    H2 6535   6.731   0.024   2.414
 2205TIP3   OH2 6536   5.694   0.027   2.982
 2205TIP3    H1 6537   5.749  -0.042   3.017
 2205TIP3    H2 6538   5.719   0.034   2.890
 2206TIP3   OH2 6539   6.107   0.262   2.798
 2206TIP3    H1 6540   6.202   0.250   2.786
 2206TIP3    H2 6541   6.070   0.177   2.775
 2207TIP3   OH2 6542   7.355   0.283   2.942
 2207TIP3    H1 6543   7.281   0.336   2.971
 2207TIP3    H2 6544   7.322   0.193   2.942
 2208TIP3   OH2 6545   6.379   0.627   2.323
 2208TIP3    H1 6546   6.344   0.618   2.234
 2208TIP3    H2 6547   6.345   0.711   2.354
 2209TIP3   OH2 6548   6.149   0.592   3.091
 2209TIP3    H1 6549   6.090   0.661   3.122
 2209TIP3    H2 6550   6.192   0.630   3.015
 2210TIP3   OH2 6551   2.869   8.194   3.065
 2210TIP3    H1 6552   2.864   8.176   3.159
 2210TIP3    H2 6553   2.953   8.158   3.038
 2211TIP3   OH2 6554   5.982   0.787   3.190
 2211TIP3    H1 6555   5.968   0.876   3.157
 2211TIP3    H2 6556   5.904   0.768   3.242
 2212TIP3   OH2 6557   5.365   0.504   2.447
 2212TIP3    H1 6558   5.336   0.523   2.357
 2212TIP3    H2 6559   5.387   0.590   2.483
 2213TIP3   OH2 6560   6.807   0.991   2.676
 2213TIP3    H1 6561   6.722   0.981   2.720
 2213TIP3    H2 6562   6.800   1.076   2.632
 2214TIP3   OH2 6563   6.502   1.027   2.333
 2214TIP3    H1 6564   6.552   0.946   2.323
 2214TIP3    H2 6565   6.564   1.096   2.308
 2215TIP3   OH2 6566   6.653   0.807   2.292
 2215TIP3    H1 6567   6.655   0.732   2.232
 2215TIP3    H2 6568   6.700   0.777   2.370
 2216TIP3   OH2 6569   7.033   0.886   3.019
 2216TIP3    H1 6570   7.013   0.819   2.954
 2216TIP3    H2 6571   7.020   0.969   2.974
 2217TIP3   OH2 6572   6.328   0.289   2.278
 2217TIP3    H1 6573   6.238   0.322   2.281
 2217TIP3    H2 6574   6.362   0.320   2.194
 2218TIP3   OH2 6575   7.215   0.567   2.831
 2218TIP3    H1 6576   7.135   0.620   2.827
 2218TIP3    H2 6577   7.255   0.577   2.745
 2219TIP3   OH2 6578   6.666   0.397   2.266
 2219TIP3    H1 6579   6.603   0.414   2.337
 2219TIP3    H2 6580   6.750   0.390   2.311
 2220TIP3   OH2 6581   6.875   0.474   3.133
 2220TIP3    H1 6582   6.858   0.532   3.207
 2220TIP3    H2 6583   6.793   0.474   3.084
 2221TIP3   OH2 6584   5.900   0.387   2.665
 2221TIP3    H1 6585   5.862   0.326   2.601
 2221TIP3    H2 6586   5.978   0.342   2.698
 2222TIP3   OH2 6587   6.039   0.771   2.812
 2222TIP3    H1 6588   6.012   0.757   2.721
 2222TIP3    H2 6589   6.128   0.737   2.816
 2223TIP3   OH2 6590   6.015   0.362   3.038
 2223TIP3    H1 6591   6.050   0.329   2.956
 2223TIP3    H2 6592   6.061   0.444   3.053
 2224TIP3   OH2 6593   6.577   0.978   2.820
 2224TIP3    H1 6594   6.555   1.060   2.863
 2224TIP3    H2 6595   6.551   0.910   2.883
 2225TIP3   OH2 6596   6.181   0.882   3.359
 2225TIP3    H1 6597   6.120   0.940   3.405
 2225TIP3    H2 6598   6.125   0.830   3.301
 2226TIP3   OH2 6599   6.623   0.176   2.111
 2226TIP3    H1 6600   6.642   0.258   2.157
 2226TIP3    H2 6601   6.610   0.202   2.020
 2227TIP3   OH2 6602   5.937   0.475   3.480
 2227TIP3    H1 6603   5.948   0.563   3.516
 2227TIP3    H2 6604   5.842   0.460   3.482
 2228TIP3   OH2 6605   6.268   0.877   2.358
 2228TIP3    H1 6606   6.339   0.941   2.349
 2228TIP3    H2 6607   6.193   0.919   2.314
 2229TIP3   OH2 6608   5.974   1.044   3.442
 2229TIP3    H1 6609   5.948   1.052   3.350
 2229TIP3    H2 6610   5.892   1.027   3.489
 2230TIP3   OH2 6611   5.768   0.226   2.484
 2230TIP3    H1 6612   5.691   0.264   2.443
 2230TIP3    H2 6613   5.736   0.147   2.527
 2231TIP3   OH2 6614   6.816   0.839   1.691
 2231TIP3    H1 6615   6.833   0.932   1.679
 2231TIP3    H2 6616   6.764   0.814   1.614
 2232TIP3   OH2 6617   5.563   0.609   3.393
 2232TIP3    H1 6618   5.498   0.589   3.325
 2232TIP3    H2 6619   5.592   0.523   3.424
 2233TIP3   OH2 6620   5.411   0.801   3.041
 2233TIP3    H1 6621   5.505   0.819   3.050
 2233TIP3    H2 6622   5.368   0.882   3.071
 2234TIP3   OH2 6623   7.270   1.265   3.092
 2234TIP3    H1 6624   7.278   1.170   3.099
 2234TIP3    H2 6625   7.189   1.286   3.139
 2235TIP3   OH2 6626   6.370   1.026   3.223
 2235TIP3    H1 6627   6.360   1.118   3.251
 2235TIP3    H2 6628   6.301   0.980   3.270
 2236TIP3   OH2 6629   6.150   1.142   2.171
 2236TIP3    H1 6630   6.100   1.106   2.097
 2236TIP3    H2 6631   6.103   1.221   2.196
 2237TIP3   OH2 6632   5.579   0.988   2.552
 2237TIP3    H1 6633   5.631   0.976   2.631
 2237TIP3    H2 6634   5.537   0.904   2.537
 2238TIP3   OH2 6635   6.334   1.055   1.814
 2238TIP3    H1 6636   6.385   0.979   1.785
 2238TIP3    H2 6637   6.368   1.074   1.902
 2239TIP3   OH2 6638   6.402   1.106   2.077
 2239TIP3    H1 6639   6.313   1.116   2.113
 2239TIP3    H2 6640   6.452   1.065   2.148
 2240TIP3   OH2 6641   7.134   0.413   3.297
 2240TIP3    H1 6642   7.080   0.483   3.260
 2240TIP3    H2 6643   7.152   0.356   3.222
 2241TIP3   OH2 6644   5.765   0.796   3.361
 2241TIP3    H1 6645   5.815   0.788   3.442
 2241TIP3    H2 6646   5.694   0.732   3.370
 2242TIP3   OH2 6647   6.875   0.129   3.323
 2242TIP3    H1 6648   6.899   0.207   3.372
 2242TIP3    H2 6649   6.893   0.152   3.231
 2243TIP3   OH2 6650   6.170   0.189   3.219
 2243TIP3    H1 6651   6.093   0.132   3.217
 2243TIP3    H2 6652   6.141   0.270   3.176
 2244TIP3   OH2 6653   5.982   0.031   2.733
 2244TIP3    H1 6654   5.886   0.038   2.730
 2244TIP3    H2 6655   6.006  -0.004   2.647
 2245TIP3   OH2 6656   6.512   0.103   2.358
 2245TIP3    H1 6657   6.438   0.162   2.345
 2245TIP3    H2 6658   6.557   0.102   2.274
 2246TIP3   OH2 6659   6.688   0.452   3.435
 2246TIP3    H1 6660   6.656   0.362   3.446
 2246TIP3    H2 6661   6.773   0.452   3.479
 2247TIP3   OH2 6662   6.584   0.198   2.609
 2247TIP3    H1 6663   6.550   0.282   2.577
 2247TIP3    H2 6664   6.571   0.137   2.536
 2248TIP3   OH2 6665   5.888   0.201   3.431
 2248TIP3    H1 6666   5.926   0.279   3.473
 2248TIP3    H2 6667   5.867   0.143   3.504
 2249TIP3   OH2 6668   2.530   8.083   2.401
 2249TIP3    H1 6669   2.525   8.157   2.340
 2249TIP3    H2 6670   2.489   8.116   2.481
 2250TIP3   OH2 6671   6.650   0.375   2.991
 2250TIP3    H1 6672   6.687   0.298   2.949
 2250TIP3    H2 6673   6.608   0.342   3.071
 2251TIP3   OH2 6674   2.743   8.413   2.711
 2251TIP3    H1 6675   2.656   8.422   2.672
 2251TIP3    H2 6676   2.766   8.321   2.697
 2252TIP3   OH2 6677   3.031   8.339   2.473
 2252TIP3    H1 6678   3.119   8.346   2.436
 2252TIP3    H2 6679   2.973   8.338   2.397
 2253TIP3   OH2 6680   2.864   8.339   2.239
 2253TIP3    H1 6681   2.773   8.310   2.235
 2253TIP3    H2 6682   2.910   8.283   2.176
 2254TIP3   OH2 6683   6.979   1.589   3.187
 2254TIP3    H1 6684   6.976   1.604   3.093
 2254TIP3    H2 6685   7.058   1.634   3.217
 2255TIP3   OH2 6686   5.925   0.727   3.595
 2255TIP3    H1 6687   6.006   0.737   3.647
 2255TIP3    H2 6688   5.855   0.733   3.660
 2256TIP3   OH2 6689   6.370   0.190   2.787
 2256TIP3    H1 6690   6.449   0.163   2.741
 2256TIP3    H2 6691   6.374   0.145   2.871
 2257TIP3   OH2 6692   6.371   0.103   3.049
 2257TIP3    H1 6693   6.281   0.115   3.079
 2257TIP3    H2 6694   6.422   0.165   3.101
 2258TIP3   OH2 6695   6.089   0.411   2.227
 2258TIP3    H1 6696   6.010   0.360   2.210
 2258TIP3    H2 6697   6.067   0.463   2.304
 2259TIP3   OH2 6698   6.972   0.702   2.829
 2259TIP3    H1 6699   7.001   0.749   2.751
 2259TIP3    H2 6700   6.886   0.666   2.806
 2260TIP3   OH2 6701   6.501   0.765   3.270
 2260TIP3    H1 6702   6.547   0.762   3.353
 2260TIP3    H2 6703   6.456   0.850   3.270
 2261TIP3   OH2 6704   5.768   0.441   2.896
 2261TIP3    H1 6705   5.810   0.434   2.810
 2261TIP3    H2 6706   5.837   0.414   2.957
 2262TIP3   OH2 6707   6.238   0.589   2.072
 2262TIP3    H1 6708   6.186   0.668   2.080
 2262TIP3    H2 6709   6.188   0.523   2.121
 2263TIP3   OH2 6710   5.673   0.397   3.543
 2263TIP3    H1 6711   5.714   0.395   3.629
 2263TIP3    H2 6712   5.644   0.307   3.528
 2264TIP3   OH2 6713   6.420   0.522   3.547
 2264TIP3    H1 6714   6.350   0.468   3.512
 2264TIP3    H2 6715   6.497   0.498   3.495
 2265TIP3   OH2 6716   6.639   1.049   3.144
 2265TIP3    H1 6717   6.544   1.036   3.151
 2265TIP3    H2 6718   6.664   1.087   3.228
 2266TIP3   OH2 6719   7.285   0.989   3.107
 2266TIP3    H1 6720   7.193   0.968   3.119
 2266TIP3    H2 6721   7.309   0.946   3.025
 2267TIP3   OH2 6722   6.782   0.894   1.963
 2267TIP3    H1 6723   6.748   0.821   2.015
 2267TIP3    H2 6724   6.792   0.858   1.875
 2268TIP3   OH2 6725   6.730   0.586   2.754
 2268TIP3    H1 6726   6.636   0.571   2.765
 2268TIP3    H2 6727   6.765   0.499   2.734
 2269TIP3   OH2 6728   5.915   0.766   2.565
 2269TIP3    H1 6729   5.912   0.853   2.525
 2269TIP3    H2 6730   5.827   0.731   2.554
 2270TIP3   OH2 6731   5.457   0.108   2.245
 2270TIP3    H1 6732   5.503   0.188   2.268
 2270TIP3    H2 6733   5.384   0.103   2.307
 2271TIP3   OH2 6734   6.021   0.531   2.461
 2271TIP3    H1 6735   6.009   0.624   2.477
 2271TIP3    H2 6736   5.979   0.488   2.536
 2272TIP3   OH2 6737   6.187   1.096   3.013
 2272TIP3    H1 6738   6.222   1.170   2.963
 2272TIP3    H2 6739   6.262   1.064   3.063
 2273TIP3   OH2 6740   5.844   1.008   2.464
 2273TIP3    H1 6741   5.749   1.011   2.465
 2273TIP3    H2 6742   5.871   1.096   2.439
 2274TIP3   OH2 6743   6.533   0.760   2.994
 2274TIP3    H1 6744   6.524   0.757   3.089
 2274TIP3    H2 6745   6.617   0.717   2.977
 2275TIP3   OH2 6746   6.485   0.638   1.905
 2275TIP3    H1 6747   6.560   0.627   1.964
 2275TIP3    H2 6748   6.408   0.625   1.961
 2276TIP3   OH2 6749   6.790   1.263   3.026
 2276TIP3    H1 6750   6.719   1.200   3.041
 2276TIP3    H2 6751   6.758   1.317   2.954
 2277TIP3   OH2 6752   6.841   1.111   1.653
 2277TIP3    H1 6753   6.845   1.164   1.574
 2277TIP3    H2 6754   6.773   1.152   1.706
 2278TIP3   OH2 6755   6.693   0.605   2.086
 2278TIP3    H1 6756   6.674   0.531   2.144
 2278TIP3    H2 6757   6.786   0.596   2.065
 2279TIP3   OH2 6758   5.614   1.000   3.176
 2279TIP3    H1 6759   5.668   0.940   3.228
 2279TIP3    H2 6760   5.632   1.086   3.213
 2280TIP3   OH2 6761   5.564   0.345   2.340
 2280TIP3    H1 6762   5.499   0.390   2.393
 2280TIP3    H2 6763   5.584   0.405   2.269
 2281TIP3   OH2 6764   6.055   0.788   2.095
 2281TIP3    H1 6765   5.962   0.767   2.088
 2281TIP3    H2 6766   6.063   0.873   2.051
 2282TIP3   OH2 6767   3.319   8.350   2.437
 2282TIP3    H1 6768   3.408   8.384   2.429
 2282TIP3    H2 6769   3.318   8.303   2.520
 2283TIP3   OH2 6770   6.553   0.233   3.199
 2283TIP3    H1 6771   6.547   0.248   3.293
 2283TIP3    H2 6772   6.604   0.152   3.190
 2284TIP3   OH2 6773   6.811   0.330   2.692
 2284TIP3    H1 6774   6.736   0.272   2.678
 2284TIP3    H2 6775   6.875   0.276   2.738
 2285TIP3   OH2 6776   5.582   0.515   2.119
 2285TIP3    H1 6777   5.628   0.596   2.099
 2285TIP3    H2 6778   5.626   0.449   2.065
 2286TIP3   OH2 6779   2.599   8.255   2.192
 2286TIP3    H1 6780   2.568   8.340   2.223
 2286TIP3    H2 6781   2.550   8.239   2.112
 2287TIP3   OH2 6782   6.819   1.258   2.598
 2287TIP3    H1 6783   6.776   1.312   2.532
 2287TIP3    H2 6784   6.913   1.270   2.582
 2288TIP3   OH2 6785   5.409   0.764   2.534
 2288TIP3    H1 6786   5.371   0.803   2.612
 2288TIP3    H2 6787   5.363   0.807   2.461
 2289TIP3   OH2 6788   5.607   1.294   3.597
 2289TIP3    H1 6789   5.692   1.293   3.643
 2289TIP3    H2 6790   5.583   1.202   3.590
 2290TIP3   OH2 6791   6.079   1.205   3.638
 2290TIP3    H1 6792   6.170   1.178   3.647
 2290TIP3    H2 6793   6.045   1.152   3.566
 2291TIP3   OH2 6794   5.978   0.796   1.793
 2291TIP3    H1 6795   5.903   0.776   1.849
 2291TIP3    H2 6796   6.032   0.717   1.797
 2292TIP3   OH2 6797   6.700   1.153   3.390
 2292TIP3    H1 6798   6.714   1.084   3.456
 2292TIP3    H2 6799   6.773   1.213   3.403
 2293TIP3   OH2 6800   6.474   0.842   1.722
 2293TIP3    H1 6801   6.493   0.769   1.781
 2293TIP3    H2 6802   6.545   0.839   1.657
 2294TIP3   OH2 6803   5.712   0.717   3.777
 2294TIP3    H1 6804   5.736   0.624   3.778
 2294TIP3    H2 6805   5.628   0.720   3.731
 2295TIP3   OH2 6806   5.712   0.303   1.999
 2295TIP3    H1 6807   5.763   0.282   2.077
 2295TIP3    H2 6808   5.777   0.307   1.929
 2296TIP3   OH2 6809   6.335   0.788   3.567
 2296TIP3    H1 6810   6.289   0.806   3.485
 2296TIP3    H2 6811   6.375   0.702   3.554
 2297TIP3   OH2 6812   6.146   0.573   1.801
 2297TIP3    H1 6813   6.187   0.575   1.888
 2297TIP3    H2 6814   6.097   0.492   1.799
 2298TIP3   OH2 6815   6.799   0.819   3.162
 2298TIP3    H1 6816   6.877   0.849   3.115
 2298TIP3    H2 6817   6.736   0.890   3.153
 2299TIP3   OH2 6818   5.842   0.469   3.774
 2299TIP3    H1 6819   5.918   0.416   3.752
 2299TIP3    H2 6820   5.859   0.498   3.864
 2300TIP3   OH2 6821   5.873   0.220   2.221
 2300TIP3    H1 6822   5.852   0.252   2.309
 2300TIP3    H2 6823   5.857   0.126   2.226
 2301TIP3   OH2 6824   6.192   0.372   3.477
 2301TIP3    H1 6825   6.105   0.410   3.469
 2301TIP3    H2 6826   6.231   0.383   3.390
 2302TIP3   OH2 6827   6.003   0.023   1.994
 2302TIP3    H1 6828   5.945   0.069   1.933
 2302TIP3    H2 6829   6.005   0.079   2.072
 2303TIP3   OH2 6830   6.654   0.716   3.525
 2303TIP3    H1 6831   6.678   0.639   3.473
 2303TIP3    H2 6832   6.646   0.683   3.615
 2304TIP3   OH2 6833   6.306   0.074   3.464
 2304TIP3    H1 6834   6.347   0.014   3.402
 2304TIP3    H2 6835   6.274   0.146   3.410
 2305TIP3   OH2 6836   6.326   0.463   3.256
 2305TIP3    H1 6837   6.412   0.493   3.229
 2305TIP3    H2 6838   6.264   0.512   3.202
 2306TIP3   OH2 6839   6.936   0.483   3.708
 2306TIP3    H1 6840   6.946   0.412   3.645
 2306TIP3    H2 6841   6.984   0.556   3.670
 2307TIP3   OH2 6842   6.921   0.664   3.355
 2307TIP3    H1 6843   6.856   0.721   3.314
 2307TIP3    H2 6844   7.001   0.678   3.304
 2308TIP3   OH2 6845   6.103   0.329   3.741
 2308TIP3    H1 6846   6.095   0.234   3.734
 2308TIP3    H2 6847   6.147   0.355   3.660
 2309TIP3   OH2 6848   6.482   0.098   3.684
 2309TIP3    H1 6849   6.431   0.098   3.765
 2309TIP3    H2 6850   6.417   0.085   3.615
 2310TIP3   OH2 6851   5.881   1.197   1.975
 2310TIP3    H1 6852   5.937   1.119   1.969
 2310TIP3    H2 6853   5.840   1.203   1.889
 2311TIP3   OH2 6854   5.314   0.504   2.169
 2311TIP3    H1 6855   5.406   0.521   2.152
 2311TIP3    H2 6856   5.295   0.423   2.122
 2312TIP3   OH2 6857   5.204   1.069   2.612
 2312TIP3    H1 6858   5.143   1.014   2.564
 2312TIP3    H2 6859   5.252   1.008   2.669
 2313TIP3   OH2 6860   5.351   0.902   2.778
 2313TIP3    H1 6861   5.344   0.836   2.846
 2313TIP3    H2 6862   5.407   0.970   2.816
 2314TIP3   OH2 6863   7.091   1.304   2.590
 2314TIP3    H1 6864   7.110   1.335   2.678
 2314TIP3    H2 6865   7.150   1.353   2.533
 2315TIP3   OH2 6866   7.112   1.343   2.868
 2315TIP3    H1 6867   7.064   1.259   2.865
 2315TIP3    H2 6868   7.182   1.328   2.932
 2316TIP3   OH2 6869   7.163   1.035   3.405
 2316TIP3    H1 6870   7.091   1.039   3.468
 2316TIP3    H2 6871   7.210   1.117   3.417
 2317TIP3   OH2 6872   6.961   0.565   2.061
 2317TIP3    H1 6873   7.025   0.626   2.023
 2317TIP3    H2 6874   7.011   0.516   2.126
 2318TIP3   OH2 6875   7.090   0.435   2.271
 2318TIP3    H1 6876   7.016   0.399   2.319
 2318TIP3    H2 6877   7.166   0.418   2.328
 2319TIP3   OH2 6878   7.172   0.814   2.667
 2319TIP3    H1 6879   7.218   0.751   2.610
 2319TIP3    H2 6880   7.171   0.895   2.617
 2320TIP3   OH2 6881   6.966   1.108   2.875
 2320TIP3    H1 6882   6.897   1.153   2.924
 2320TIP3    H2 6883   6.920   1.067   2.801
 2321TIP3   OH2 6884   6.887   0.319   2.425
 2321TIP3    H1 6885   6.847   0.232   2.421
 2321TIP3    H2 6886   6.865   0.352   2.512
 2322TIP3   OH2 6887   5.546   0.392   3.117
 2322TIP3    H1 6888   5.539   0.356   3.029
 2322TIP3    H2 6889   5.639   0.385   3.138
 2323TIP3   OH2 6890   7.132   0.695   3.189
 2323TIP3    H1 6891   7.227   0.697   3.180
 2323TIP3    H2 6892   7.100   0.761   3.128
 2324TIP3   OH2 6893   7.354   0.588   3.329
 2324TIP3    H1 6894   7.272   0.539   3.316
 2324TIP3    H2 6895   7.421   0.531   3.292
 2325TIP3   OH2 6896   7.120   0.404   3.020
 2325TIP3    H1 6897   7.035   0.440   3.047
 2325TIP3    H2 6898   7.148   0.462   2.949
 2326TIP3   OH2 6899   2.844   8.350   3.893
 2326TIP3    H1 6900   2.939   8.338   3.892
 2326TIP3    H2 6901   2.810   8.271   3.851
 2327TIP3   OH2 6902   5.546   0.061   3.223
 2327TIP3    H1 6903   5.601   0.072   3.145
 2327TIP3    H2 6904   5.519   0.150   3.245
 2328TIP3   OH2 6905   6.661   1.223   2.239
 2328TIP3    H1 6906   6.709   1.204   2.158
 2328TIP3    H2 6907   6.705   1.300   2.274
 2329TIP3   OH2 6908   5.754   1.015   3.610
 2329TIP3    H1 6909   5.659   1.004   3.602
 2329TIP3    H2 6910   5.771   1.004   3.703
 2330TIP3   OH2 6911   5.958   1.063   3.161
 2330TIP3    H1 6912   5.908   1.138   3.129
 2330TIP3    H2 6913   6.042   1.070   3.116
 2331TIP3   OH2 6914   6.355   1.293   3.299
 2331TIP3    H1 6915   6.393   1.287   3.387
 2331TIP3    H2 6916   6.418   1.348   3.250
 2332TIP3   OH2 6917   6.547   1.448   3.173
 2332TIP3    H1 6918   6.611   1.395   3.125
 2332TIP3    H2 6919   6.601   1.506   3.227
 2333TIP3   OH2 6920   5.621   1.298   3.211
 2333TIP3    H1 6921   5.531   1.317   3.188
 2333TIP3    H2 6922   5.644   1.365   3.276
 2334TIP3   OH2 6923   5.851   1.295   3.059
 2334TIP3    H1 6924   5.767   1.299   3.105
 2334TIP3    H2 6925   5.829   1.316   2.968
 2335TIP3   OH2 6926   6.263   1.307   2.851
 2335TIP3    H1 6927   6.191   1.317   2.789
 2335TIP3    H2 6928   6.273   1.394   2.889
 2336TIP3   OH2 6929   6.527   1.242   2.894
 2336TIP3    H1 6930   6.435   1.261   2.876
 2336TIP3    H2 6931   6.575   1.309   2.845
 2337TIP3   OH2 6932   6.732   1.422   2.801
 2337TIP3    H1 6933   6.725   1.508   2.759
 2337TIP3    H2 6934   6.760   1.363   2.731
 2338TIP3   OH2 6935   5.528   1.081   2.925
 2338TIP3    H1 6936   5.557   1.059   3.014
 2338TIP3    H2 6937   5.598   1.048   2.868
 2339TIP3   OH2 6938   5.729   0.969   2.784
 2339TIP3    H1 6939   5.742   0.884   2.827
 2339TIP3    H2 6940   5.816   1.006   2.779
 2340TIP3   OH2 6941   6.001   1.050   2.808
 2340TIP3    H1 6942   6.016   0.957   2.793
 2340TIP3    H2 6943   6.055   1.072   2.884
 2341TIP3   OH2 6944   5.282   0.884   2.324
 2341TIP3    H1 6945   5.201   0.849   2.286
 2341TIP3    H2 6946   5.292   0.971   2.284
 2342TIP3   OH2 6947   6.080   1.012   1.924
 2342TIP3    H1 6948   6.162   1.034   1.879
 2342TIP3    H2 6949   6.040   0.945   1.869
 2343TIP3   OH2 6950   6.797   1.164   2.004
 2343TIP3    H1 6951   6.795   1.068   1.996
 2343TIP3    H2 6952   6.750   1.196   1.927
 2344TIP3   OH2 6953   5.460   0.847   1.953
 2344TIP3    H1 6954   5.457   0.874   2.045
 2344TIP3    H2 6955   5.547   0.807   1.943
 2345TIP3   OH2 6956   7.015   1.316   3.185
 2345TIP3    H1 6957   6.939   1.285   3.135
 2345TIP3    H2 6958   7.001   1.410   3.195
 2346TIP3   OH2 6959   7.600   0.624   2.688
 2346TIP3    H1 6960   7.618   0.548   2.743
 2346TIP3    H2 6961   7.637   0.698   2.735
 2347TIP3   OH2 6962   7.540   0.972   2.414
 2347TIP3    H1 6963   7.506   0.883   2.426
 2347TIP3    H2 6964   7.629   0.959   2.380
 2348TIP3   OH2 6965   7.377   0.475   2.337
 2348TIP3    H1 6966   7.459   0.523   2.345
 2348TIP3    H2 6967   7.338   0.508   2.256
 2349TIP3   OH2 6968   1.156   2.918   2.228
 2349TIP3    H1 6969   1.248   2.906   2.251
 2349TIP3    H2 6970   1.131   2.837   2.183
 2350TIP3   OH2 6971   7.913   0.845   2.584
 2350TIP3    H1 6972   7.851   0.907   2.623
 2350TIP3    H2 6973   7.999   0.880   2.607
 2351TIP3   OH2 6974   7.776   1.048   2.712
 2351TIP3    H1 6975   7.770   1.137   2.677
 2351TIP3    H2 6976   7.690   1.033   2.753
 2352TIP3   OH2 6977   7.142   0.749   1.956
 2352TIP3    H1 6978   7.105   0.770   1.871
 2352TIP3    H2 6979   7.173   0.833   1.990
 2353TIP3   OH2 6980   7.776   0.942   2.280
 2353TIP3    H1 6981   7.756   0.978   2.193
 2353TIP3    H2 6982   7.870   0.954   2.290
 2354TIP3   OH2 6983   7.897   0.588   2.496
 2354TIP3    H1 6984   7.926   0.598   2.405
 2354TIP3    H2 6985   7.894   0.677   2.531
 2355TIP3   OH2 6986   7.951   1.104   2.938
 2355TIP3    H1 6987   7.906   1.186   2.955
 2355TIP3    H2 6988   7.906   1.066   2.863
 2356TIP3   OH2 6989   7.700   0.768   2.904
 2356TIP3    H1 6990   7.710   0.849   2.955
 2356TIP3    H2 6991   7.627   0.723   2.945
 2357TIP3   OH2 6992   7.764   1.317   2.932
 2357TIP3    H1 6993   7.741   1.313   2.839
 2357TIP3    H2 6994   7.683   1.294   2.977
 2358TIP3   OH2 6995   7.354   0.851   2.882
 2358TIP3    H1 6996   7.289   0.829   2.815
 2358TIP3    H2 6997   7.383   0.766   2.914
 2359TIP3   OH2 6998   7.210   1.054   2.536
 2359TIP3    H1 6999   7.300   1.081   2.551
 2359TIP3    H2 7000   7.157   1.129   2.564
 2360TIP3   OH2 7001   7.852   1.385   1.693
 2360TIP3    H1 7002   7.919   1.351   1.634
 2360TIP3    H2 7003   7.876   1.477   1.706
 2361TIP3   OH2 7004   7.378   1.229   2.046
 2361TIP3    H1 7005   7.422   1.219   2.131
 2361TIP3    H2 7006   7.327   1.149   2.037
 2362TIP3   OH2 7007   7.534   1.060   2.849
 2362TIP3    H1 7008   7.582   1.056   2.932
 2362TIP3    H2 7009   7.470   0.989   2.855
 2363TIP3   OH2 7010   8.012   0.409   2.673
 2363TIP3    H1 7011   7.938   0.349   2.679
 2363TIP3    H2 7012   7.984   0.476   2.611
 2364TIP3   OH2 7013   7.696   0.446   2.885
 2364TIP3    H1 7014   7.771   0.500   2.912
 2364TIP3    H2 7015   7.684   0.384   2.956
 2365TIP3   OH2 7016   7.694   0.985   3.073
 2365TIP3    H1 7017   7.780   0.998   3.113
 2365TIP3    H2 7018   7.633   0.984   3.147
 2366TIP3   OH2 7019   7.584   0.653   2.411
 2366TIP3    H1 7020   7.662   0.690   2.371
 2366TIP3    H2 7021   7.608   0.638   2.502
 2367TIP3   OH2 7022   7.479   0.646   3.031
 2367TIP3    H1 7023   7.522   0.658   3.116
 2367TIP3    H2 7024   7.457   0.553   3.028
 2368TIP3   OH2 7025   7.697   1.041   2.033
 2368TIP3    H1 7026   7.665   1.122   1.994
 2368TIP3    H2 7027   7.632   0.975   2.007
 2369TIP3   OH2 7028   7.969   1.364   2.476
 2369TIP3    H1 7029   7.989   1.444   2.427
 2369TIP3    H2 7030   8.051   1.341   2.519
 2370TIP3   OH2 7031   7.603   1.258   1.897
 2370TIP3    H1 7032   7.517   1.260   1.939
 2370TIP3    H2 7033   7.631   1.350   1.896
 2371TIP3   OH2 7034   7.407   1.252   2.669
 2371TIP3    H1 7035   7.454   1.191   2.726
 2371TIP3    H2 7036   7.419   1.338   2.709
 2372TIP3   OH2 7037   7.582   1.258   1.618
 2372TIP3    H1 7038   7.664   1.306   1.607
 2372TIP3    H2 7039   7.578   1.237   1.712
 2373TIP3   OH2 7040   7.203   1.015   2.024
 2373TIP3    H1 7041   7.156   1.051   2.099
 2373TIP3    H2 7042   7.156   1.050   1.948
 2374TIP3   OH2 7043   7.402   1.550   3.081
 2374TIP3    H1 7044   7.485   1.550   3.130
 2374TIP3    H2 7045   7.377   1.458   3.076
 2375TIP3   OH2 7046   7.871   1.511   3.090
 2375TIP3    H1 7047   7.951   1.467   3.121
 2375TIP3    H2 7048   7.829   1.446   3.033
 2376TIP3   OH2 7049   7.504   0.960   3.274
 2376TIP3    H1 7050   7.523   0.866   3.274
 2376TIP3    H2 7051   7.421   0.967   3.227
 2377TIP3   OH2 7052   7.632   0.701   3.257
 2377TIP3    H1 7053   7.708   0.645   3.238
 2377TIP3    H2 7054   7.649   0.734   3.345
 2378TIP3   OH2 7055   7.921   0.593   2.943
 2378TIP3    H1 7056   7.879   0.673   2.909
 2378TIP3    H2 7057   7.991   0.575   2.880
 2379TIP3   OH2 7058   7.861   0.551   3.208
 2379TIP3    H1 7059   7.885   0.459   3.218
 2379TIP3    H2 7060   7.890   0.575   3.120
 2380TIP3   OH2 7061   6.996   1.319   2.104
 2380TIP3    H1 7062   6.932   1.265   2.058
 2380TIP3    H2 7063   7.040   1.259   2.164
 2381TIP3   OH2 7064   7.145   1.158   2.272
 2381TIP3    H1 7065   7.137   1.089   2.337
 2381TIP3    H2 7066   7.198   1.225   2.313
 2382TIP3   OH2 7067   7.341   0.594   2.590
 2382TIP3    H1 7068   7.348   0.566   2.499
 2382TIP3    H2 7069   7.431   0.615   2.616
 2383TIP3   OH2 7070   7.610   0.194   3.423
 2383TIP3    H1 7071   7.679   0.146   3.377
 2383TIP3    H2 7072   7.536   0.135   3.423
 2384TIP3   OH2 7073   7.393   0.311   2.673
 2384TIP3    H1 7074   7.371   0.393   2.629
 2384TIP3    H2 7075   7.377   0.327   2.766
 2385TIP3   OH2 7076   7.547   1.272   3.101
 2385TIP3    H1 7077   7.453   1.261   3.092
 2385TIP3    H2 7078   7.563   1.264   3.195
 2386TIP3   OH2 7079   7.755   1.316   2.646
 2386TIP3    H1 7080   7.696   1.384   2.614
 2386TIP3    H2 7081   7.835   1.328   2.595
 2387TIP3   OH2 7082   7.407   1.549   2.703
 2387TIP3    H1 7083   7.315   1.567   2.682
 2387TIP3    H2 7084   7.431   1.618   2.766
 2388TIP3   OH2 7085   7.628   1.536   2.542
 2388TIP3    H1 7086   7.546   1.541   2.592
 2388TIP3    H2 7087   7.605   1.567   2.455
 2389TIP3   OH2 7088   8.035   1.588   2.337
 2389TIP3    H1 7089   7.983   1.647   2.282
 2389TIP3    H2 7090   8.075   1.645   2.402
 2390TIP3   OH2 7091   7.321   1.336   2.420
 2390TIP3    H1 7092   7.349   1.314   2.509
 2390TIP3    H2 7093   7.390   1.302   2.363
 2391TIP3   OH2 7094   7.519   1.215   2.282
 2391TIP3    H1 7095   7.528   1.132   2.330
 2391TIP3    H2 7096   7.608   1.252   2.282
 2392TIP3   OH2 7097   7.780   1.323   2.273
 2392TIP3    H1 7098   7.833   1.270   2.213
 2392TIP3    H2 7099   7.834   1.333   2.351
 2393TIP3   OH2 7100   7.080   1.121   1.802
 2393TIP3    H1 7101   7.002   1.088   1.759
 2393TIP3    H2 7102   7.074   1.216   1.793
 2394TIP3   OH2 7103   7.236   1.249   1.509
 2394TIP3    H1 7104   7.193   1.234   1.594
 2394TIP3    H2 7105   7.306   1.184   1.506
 2395TIP3   OH2 7106   0.745   1.467   3.643
 2395TIP3    H1 7107   0.726   1.553   3.606
 2395TIP3    H2 7108   0.660   1.435   3.674
 2396TIP3   OH2 7109   0.738   1.490   4.028
 2396TIP3    H1 7110   0.799   1.488   4.102
 2396TIP3    H2 7111   0.703   1.401   4.024
 2397TIP3   OH2 7112   0.063   1.412   4.408
 2397TIP3    H1 7113   0.065   1.327   4.453
 2397TIP3    H2 7114   0.125   1.402   4.335
 2398TIP3   OH2 7115   1.026   1.786   3.714
 2398TIP3    H1 7116   1.007   1.727   3.786
 2398TIP3    H2 7117   1.042   1.871   3.756
 2399TIP3   OH2 7118   0.053   1.778   4.099
 2399TIP3    H1 7119   0.073   1.746   4.187
 2399TIP3    H2 7120   0.137   1.780   4.054
 2400TIP3   OH2 7121   0.675   2.224   3.731
 2400TIP3    H1 7122   0.710   2.164   3.665
 2400TIP3    H2 7123   0.646   2.168   3.802
 2401TIP3   OH2 7124   0.554   1.703   4.066
 2401TIP3    H1 7125   0.600   1.626   4.031
 2401TIP3    H2 7126   0.625   1.760   4.096
 2402TIP3   OH2 7127   1.624   1.044   4.028
 2402TIP3    H1 7128   1.624   1.136   4.053
 2402TIP3    H2 7129   1.656   1.044   3.938
 2403TIP3   OH2 7130   1.000   1.219   4.094
 2403TIP3    H1 7131   1.077   1.165   4.074
 2403TIP3    H2 7132   0.943   1.209   4.019
 2404TIP3   OH2 7133   0.970   0.973   3.673
 2404TIP3    H1 7134   1.049   0.980   3.726
 2404TIP3    H2 7135   0.998   0.924   3.595
 2405TIP3   OH2 7136   1.649   1.251   4.238
 2405TIP3    H1 7137   1.562   1.289   4.225
 2405TIP3    H2 7138   1.687   1.302   4.310
 2406TIP3   OH2 7139   0.619   1.683   3.529
 2406TIP3    H1 7140   0.652   1.706   3.443
 2406TIP3    H2 7141   0.578   1.763   3.562
 2407TIP3   OH2 7142   0.387   1.628   4.274
 2407TIP3    H1 7143   0.330   1.697   4.307
 2407TIP3    H2 7144   0.436   1.670   4.203
 2408TIP3   OH2 7145   1.195   1.007   3.823
 2408TIP3    H1 7146   1.161   0.972   3.905
 2408TIP3    H2 7147   1.267   1.065   3.849
 2409TIP3   OH2 7148   0.214   1.826   4.370
 2409TIP3    H1 7149   0.206   1.918   4.343
 2409TIP3    H2 7150   0.142   1.814   4.432
 2410TIP3   OH2 7151   1.051   2.033   3.851
 2410TIP3    H1 7152   0.966   2.024   3.894
 2410TIP3    H2 7153   1.046   2.116   3.805
 2411TIP3   OH2 7154   1.455   0.968   4.231
 2411TIP3    H1 7155   1.369   0.937   4.203
 2411TIP3    H2 7156   1.501   0.987   4.149
 2412TIP3   OH2 7157   0.774   2.074   3.520
 2412TIP3    H1 7158   0.812   1.988   3.505
 2412TIP3    H2 7159   0.842   2.135   3.493
 2413TIP3   OH2 7160   0.895   1.836   3.474
 2413TIP3    H1 7161   0.927   1.777   3.406
 2413TIP3    H2 7162   0.943   1.810   3.552
 2414TIP3   OH2 7163   1.276   1.929   4.202
 2414TIP3    H1 7164   1.263   1.854   4.143
 2414TIP3    H2 7165   1.260   2.006   4.147
 2415TIP3   OH2 7166   1.461   1.585   4.076
 2415TIP3    H1 7167   1.378   1.633   4.073
 2415TIP3    H2 7168   1.497   1.596   3.988
 2416TIP3   OH2 7169   0.943   1.434   3.446
 2416TIP3    H1 7170   0.878   1.442   3.515
 2416TIP3    H2 7171   1.024   1.409   3.492
 2417TIP3   OH2 7172   1.171   1.461   4.368
 2417TIP3    H1 7173   1.171   1.541   4.420
 2417TIP3    H2 7174   1.097   1.471   4.309
 2418TIP3   OH2 7175   0.304   1.793   3.972
 2418TIP3    H1 7176   0.309   1.780   3.877
 2418TIP3    H2 7177   0.391   1.770   4.004
 2419TIP3   OH2 7178   0.278   1.380   4.228
 2419TIP3    H1 7179   0.290   1.371   4.133
 2419TIP3    H2 7180   0.315   1.466   4.249
 2420TIP3   OH2 7181   0.824   2.019   3.999
 2420TIP3    H1 7182   0.804   2.102   4.042
 2420TIP3    H2 7183   0.804   1.953   4.065
 2421TIP3   OH2 7184   0.421   1.925   4.536
 2421TIP3    H1 7185   0.362   1.983   4.582
 2421TIP3    H2 7186   0.365   1.873   4.478
 2422TIP3   OH2 7187   0.204   1.511   4.629
 2422TIP3    H1 7188   0.178   1.589   4.677
 2422TIP3    H2 7189   0.137   1.501   4.561
 2423TIP3   OH2 7190   0.528   1.938   3.577
 2423TIP3    H1 7191   0.604   1.992   3.558
 2423TIP3    H2 7192   0.464   1.962   3.510
 2424TIP3   OH2 7193   0.216   2.086   4.626
 2424TIP3    H1 7194   0.193   2.102   4.534
 2424TIP3    H2 7195   0.131   2.070   4.669
 2425TIP3   OH2 7196   1.110   1.890   2.695
 2425TIP3    H1 7197   1.044   1.942   2.742
 2425TIP3    H2 7198   1.175   1.867   2.761
 2426TIP3   OH2 7199   8.702   1.651   4.568
 2426TIP3    H1 7200   8.696   1.617   4.479
 2426TIP3    H2 7201   8.616   1.632   4.607
 2427TIP3   OH2 7202   8.681   1.800   4.234
 2427TIP3    H1 7203   8.748   1.792   4.166
 2427TIP3    H2 7204   8.710   1.875   4.287
 2428TIP3   OH2 7205   1.507   2.274   4.274
 2428TIP3    H1 7206   1.511   2.180   4.290
 2428TIP3    H2 7207   1.427   2.303   4.319
 2429TIP3   OH2 7208   0.617   2.063   4.400
 2429TIP3    H1 7209   0.611   2.155   4.425
 2429TIP3    H2 7210   0.546   2.020   4.447
 2430TIP3   OH2 7211   0.170   2.281   3.382
 2430TIP3    H1 7212   0.209   2.197   3.358
 2430TIP3    H2 7213   0.245   2.338   3.403
 2431TIP3   OH2 7214   0.630   2.202   3.311
 2431TIP3    H1 7215   0.544   2.160   3.302
 2431TIP3    H2 7216   0.678   2.145   3.370
 2432TIP3   OH2 7217   1.404   1.414   4.560
 2432TIP3    H1 7218   1.327   1.432   4.506
 2432TIP3    H2 7219   1.423   1.321   4.546
 2433TIP3   OH2 7220   0.013   1.825   4.562
 2433TIP3    H1 7221   0.068   1.802   4.638
 2433TIP3    H2 7222  -0.062   1.765   4.568
 2434TIP3   OH2 7223   0.848   0.611   4.549
 2434TIP3    H1 7224   0.888   0.694   4.576
 2434TIP3    H2 7225   0.754   0.628   4.549
 2435TIP3   OH2 7226   1.158   1.192   4.428
 2435TIP3    H1 7227   1.139   1.192   4.522
 2435TIP3    H2 7228   1.152   1.284   4.403
 2436TIP3   OH2 7229   0.337   1.170   4.397
 2436TIP3    H1 7230   0.271   1.183   4.465
 2436TIP3    H2 7231   0.323   1.243   4.337
 2437TIP3   OH2 7232   0.891   1.432   4.710
 2437TIP3    H1 7233   0.863   1.359   4.765
 2437TIP3    H2 7234   0.984   1.443   4.729
 2438TIP3   OH2 7235   0.892   1.188   3.838
 2438TIP3    H1 7236   0.833   1.245   3.788
 2438TIP3    H2 7237   0.906   1.113   3.781
 2439TIP3   OH2 7238   0.120   1.182   4.567
 2439TIP3    H1 7239   0.148   1.225   4.649
 2439TIP3    H2 7240   0.069   1.106   4.596
 2440TIP3   OH2 7241   0.925   1.441   4.230
 2440TIP3    H1 7242   0.952   1.364   4.180
 2440TIP3    H2 7243   0.887   1.405   4.311
 2441TIP3   OH2 7244   1.074   0.943   4.058
 2441TIP3    H1 7245   1.107   0.948   4.148
 2441TIP3    H2 7246   0.980   0.963   4.066
 2442TIP3   OH2 7247   1.229   2.627   4.361
 2442TIP3    H1 7248   1.226   2.643   4.267
 2442TIP3    H2 7249   1.308   2.672   4.391
 2443TIP3   OH2 7250   0.162   1.742   4.780
 2443TIP3    H1 7251   0.242   1.757   4.830
 2443TIP3    H2 7252   0.093   1.740   4.847
 2444TIP3   OH2 7253   0.660   1.224   4.053
 2444TIP3    H1 7254   0.718   1.152   4.027
 2444TIP3    H2 7255   0.626   1.199   4.138
 2445TIP3   OH2 7256   0.605   1.151   4.324
 2445TIP3    H1 7257   0.511   1.156   4.343
 2445TIP3    H2 7258   0.638   1.238   4.346
 2446TIP3   OH2 7259   1.230   1.724   4.024
 2446TIP3    H1 7260   1.267   1.772   3.950
 2446TIP3    H2 7261   1.147   1.690   3.990
 2447TIP3   OH2 7262   0.741   1.802   4.446
 2447TIP3    H1 7263   0.796   1.804   4.524
 2447TIP3    H2 7264   0.702   1.889   4.442
 2448TIP3   OH2 7265   0.656   1.571   4.747
 2448TIP3    H1 7266   0.588   1.522   4.702
 2448TIP3    H2 7267   0.738   1.530   4.720
 2449TIP3   OH2 7268   0.889   2.082   4.329
 2449TIP3    H1 7269   0.793   2.074   4.333
 2449TIP3    H2 7270   0.912   2.126   4.410
 2450TIP3   OH2 7271   1.524   1.990   4.299
 2450TIP3    H1 7272   1.429   1.983   4.283
 2450TIP3    H2 7273   1.563   1.968   4.214
 2451TIP3   OH2 7274   1.057   1.916   3.133
 2451TIP3    H1 7275   1.001   1.848   3.169
 2451TIP3    H2 7276   1.008   1.949   3.057
 2452TIP3   OH2 7277   0.996   1.602   3.925
 2452TIP3    H1 7278   0.903   1.580   3.939
 2452TIP3    H2 7279   1.036   1.521   3.895
 2453TIP3   OH2 7280   0.436   2.127   4.184
 2453TIP3    H1 7281   0.466   2.204   4.137
 2453TIP3    H2 7282   0.512   2.099   4.235
 2454TIP3   OH2 7283   0.131   2.089   3.653
 2454TIP3    H1 7284   0.050   2.056   3.614
 2454TIP3    H2 7285   0.197   2.077   3.585
 2455TIP3   OH2 7286   0.792   1.800   4.174
 2455TIP3    H1 7287   0.778   1.795   4.269
 2455TIP3    H2 7288   0.878   1.760   4.160
 2456TIP3   OH2 7289   1.038   2.309   4.202
 2456TIP3    H1 7290   0.963   2.249   4.210
 2456TIP3    H2 7291   1.016   2.366   4.128
 2457TIP3   OH2 7292   1.216   2.192   2.750
 2457TIP3    H1 7293   1.227   2.277   2.793
 2457TIP3    H2 7294   1.135   2.156   2.787
 2458TIP3   OH2 7295   0.983   1.654   3.282
 2458TIP3    H1 7296   0.956   1.575   3.329
 2458TIP3    H2 7297   1.073   1.635   3.253
 2459TIP3   OH2 7298   8.792   2.011   4.383
 2459TIP3    H1 7299   8.834   1.959   4.451
 2459TIP3    H2 7300   8.795   2.101   4.416
 2460TIP3   OH2 7301   0.923   1.043   4.357
 2460TIP3    H1 7302   0.980   1.120   4.358
 2460TIP3    H2 7303   0.983   0.969   4.362
 2461TIP3   OH2 7304   0.833   1.339   4.462
 2461TIP3    H1 7305   0.856   1.393   4.538
 2461TIP3    H2 7306   0.812   1.254   4.499
 2462TIP3   OH2 7307   1.432   1.152   4.453
 2462TIP3    H1 7308   1.337   1.160   4.439
 2462TIP3    H2 7309   1.466   1.127   4.367
 2463TIP3   OH2 7310   1.112   1.358   3.850
 2463TIP3    H1 7311   1.039   1.297   3.853
 2463TIP3    H2 7312   1.183   1.314   3.896
 2464TIP3   OH2 7313   1.067   2.301   3.772
 2464TIP3    H1 7314   1.023   2.354   3.706
 2464TIP3    H2 7315   1.161   2.314   3.754
 2465TIP3   OH2 7316   8.788   2.296   4.825
 2465TIP3    H1 7317   8.865   2.326   4.873
 2465TIP3    H2 7318   8.810   2.207   4.798
 2466TIP3   OH2 7319   0.345   2.250   4.804
 2466TIP3    H1 7320   0.434   2.216   4.811
 2466TIP3    H2 7321   0.304   2.196   4.737
 2467TIP3   OH2 7322   0.944   2.192   4.575
 2467TIP3    H1 7323   0.961   2.122   4.638
 2467TIP3    H2 7324   1.019   2.252   4.585
 2468TIP3   OH2 7325   8.840   1.736   4.952
 2468TIP3    H1 7326   8.869   1.645   4.963
 2468TIP3    H2 7327   8.744   1.730   4.948
 2469TIP3   OH2 7328   0.589   1.840   4.739
 2469TIP3    H1 7329   0.542   1.854   4.657
 2469TIP3    H2 7330   0.625   1.752   4.732
 2470TIP3   OH2 7331   1.056   1.860   4.354
 2470TIP3    H1 7332   1.133   1.888   4.305
 2470TIP3    H2 7333   0.993   1.930   4.342
 2471TIP3   OH2 7334   0.079   1.498   4.975
 2471TIP3    H1 7335   0.154   1.462   4.928
 2471TIP3    H2 7336   0.111   1.512   5.065
 2472TIP3   OH2 7337   0.463   1.437   4.609
 2472TIP3    H1 7338   0.376   1.476   4.602
 2472TIP3    H2 7339   0.493   1.430   4.518
 2473TIP3   OH2 7340   0.948   1.744   4.723
 2473TIP3    H1 7341   1.011   1.700   4.666
 2473TIP3    H2 7342   0.935   1.684   4.796
 2474TIP3   OH2 7343   0.346   1.236   4.761
 2474TIP3    H1 7344   0.423   1.184   4.738
 2474TIP3    H2 7345   0.361   1.321   4.718
 2475TIP3   OH2 7346   0.430   0.902   4.477
 2475TIP3    H1 7347   0.436   0.996   4.462
 2475TIP3    H2 7348   0.345   0.877   4.440
 2476TIP3   OH2 7349   0.574   1.439   4.356
 2476TIP3    H1 7350   0.661   1.478   4.364
 2476TIP3    H2 7351   0.519   1.510   4.322
 2477TIP3   OH2 7352   1.152   1.453   4.793
 2477TIP3    H1 7353   1.174   1.366   4.758
 2477TIP3    H2 7354   1.231   1.504   4.780
 2478TIP3   OH2 7355   1.188   1.693   4.522
 2478TIP3    H1 7356   1.130   1.752   4.473
 2478TIP3    H2 7357   1.276   1.713   4.491
 2479TIP3   OH2 7358   0.415   1.249   5.033
 2479TIP3    H1 7359   0.364   1.174   5.062
 2479TIP3    H2 7360   0.391   1.260   4.941
 2480TIP3   OH2 7361   0.562   0.620   4.492
 2480TIP3    H1 7362   0.491   0.683   4.502
 2480TIP3    H2 7363   0.547   0.556   4.562
 2481TIP3   OH2 7364   0.827   1.230   4.879
 2481TIP3    H1 7365   0.832   1.243   4.974
 2481TIP3    H2 7366   0.796   1.140   4.869
 2482TIP3   OH2 7367   1.124   1.190   4.698
 2482TIP3    H1 7368   1.046   1.144   4.727
 2482TIP3    H2 7369   1.195   1.152   4.749
 2483TIP3   OH2 7370   1.312   1.091   4.866
 2483TIP3    H1 7371   1.318   0.997   4.880
 2483TIP3    H2 7372   1.293   1.127   4.953
 2484TIP3   OH2 7373   0.747   0.691   4.857
 2484TIP3    H1 7374   0.842   0.686   4.853
 2484TIP3    H2 7375   0.724   0.756   4.790
 2485TIP3   OH2 7376   0.905   0.901   5.034
 2485TIP3    H1 7377   0.895   0.821   5.085
 2485TIP3    H2 7378   0.818   0.919   5.000
 2486TIP3   OH2 7379   1.341   2.352   3.764
 2486TIP3    H1 7380   1.360   2.379   3.854
 2486TIP3    H2 7381   1.399   2.405   3.710
 2487TIP3   OH2 7382   1.356   2.383   4.048
 2487TIP3    H1 7383   1.309   2.301   4.041
 2487TIP3    H2 7384   1.427   2.365   4.109
 2488TIP3   OH2 7385   1.418   2.080   4.627
 2488TIP3    H1 7386   1.347   2.093   4.690
 2488TIP3    H2 7387   1.462   2.165   4.624
 2489TIP3   OH2 7388   1.250   1.589   3.219
 2489TIP3    H1 7389   1.301   1.668   3.200
 2489TIP3    H2 7390   1.294   1.549   3.294
 2490TIP3   OH2 7391   1.377   1.457   3.426
 2490TIP3    H1 7392   1.308   1.432   3.486
 2490TIP3    H2 7393   1.443   1.499   3.481
 2491TIP3   OH2 7394   1.416   1.853   3.860
 2491TIP3    H1 7395   1.463   1.785   3.812
 2491TIP3    H2 7396   1.418   1.929   3.801
 2492TIP3   OH2 7397   1.211   2.146   4.050
 2492TIP3    H1 7398   1.142   2.191   4.099
 2492TIP3    H2 7399   1.166   2.108   3.975
 2493TIP3   OH2 7400   1.288   1.390   3.031
 2493TIP3    H1 7401   1.198   1.358   3.019
 2493TIP3    H2 7402   1.279   1.460   3.096
 2494TIP3   OH2 7403   1.176   1.346   3.584
 2494TIP3    H1 7404   1.188   1.251   3.587
 2494TIP3    H2 7405   1.157   1.370   3.675
 2495TIP3   OH2 7406   1.442   1.740   4.426
 2495TIP3    H1 7407   1.506   1.673   4.403
 2495TIP3    H2 7408   1.466   1.815   4.371
 2496TIP3   OH2 7409   1.613   1.525   4.415
 2496TIP3    H1 7410   1.546   1.489   4.472
 2496TIP3    H2 7411   1.693   1.478   4.440
 2497TIP3   OH2 7412   1.323   1.219   3.972
 2497TIP3    H1 7413   1.404   1.240   3.926
 2497TIP3    H2 7414   1.336   1.254   4.061
 2498TIP3   OH2 7415   1.386   1.358   4.208
 2498TIP3    H1 7416   1.313   1.391   4.260
 2498TIP3    H2 7417   1.419   1.435   4.161
 2499TIP3   OH2 7418   1.852   0.951   4.745
 2499TIP3    H1 7419   1.914   0.893   4.699
 2499TIP3    H2 7420   1.822   1.012   4.677
 2500TIP3   OH2 7421   1.712   1.106   4.569
 2500TIP3    H1 7422   1.639   1.142   4.619
 2500TIP3    H2 7423   1.671   1.043   4.509
 2501TIP3   OH2 7424   0.957   2.253   3.420
 2501TIP3    H1 7425   0.984   2.228   3.332
 2501TIP3    H2 7426   0.975   2.347   3.425
 2502TIP3   OH2 7427   8.885   2.037   4.799
 2502TIP3    H1 7428   8.842   1.956   4.774
 2502TIP3    H2 7429   8.898   2.029   4.894
 2503TIP3   OH2 7430   0.213   2.104   4.344
 2503TIP3    H1 7431   0.160   2.178   4.313
 2503TIP3    H2 7432   0.294   2.109   4.293
 2504TIP3   OH2 7433   0.612   2.330   4.472
 2504TIP3    H1 7434   0.649   2.328   4.560
 2504TIP3    H2 7435   0.673   2.384   4.422
 2505TIP3   OH2 7436   0.800   2.490   4.349
 2505TIP3    H1 7437   0.864   2.442   4.296
 2505TIP3    H2 7438   0.853   2.548   4.403
 2506TIP3   OH2 7439   1.615   0.886   4.433
 2506TIP3    H1 7440   1.559   0.906   4.358
 2506TIP3    H2 7441   1.643   0.795   4.417
 2507TIP3   OH2 7442   8.787   2.292   4.425
 2507TIP3    H1 7443   8.696   2.318   4.408
 2507TIP3    H2 7444   8.818   2.356   4.489
 2508TIP3   OH2 7445   0.102   2.334   4.236
 2508TIP3    H1 7446   0.016   2.322   4.276
 2508TIP3    H2 7447   0.084   2.335   4.142
 2509TIP3   OH2 7448   0.515   2.345   4.034
 2509TIP3    H1 7449   0.448   2.356   3.966
 2509TIP3    H2 7450   0.526   2.433   4.070
 2510TIP3   OH2 7451   0.779   2.282   4.077
 2510TIP3    H1 7452   0.686   2.300   4.059
 2510TIP3    H2 7453   0.826   2.346   4.024
 2511TIP3   OH2 7454   0.981   2.462   3.977
 2511TIP3    H1 7455   0.974   2.548   3.937
 2511TIP3    H2 7456   1.008   2.404   3.906
 2512TIP3   OH2 7457   8.766   2.167   4.149
 2512TIP3    H1 7458   8.768   2.112   4.227
 2512TIP3    H2 7459   8.801   2.111   4.079
 2513TIP3   OH2 7460  -0.022   2.011   3.959
 2513TIP3    H1 7461   0.003   1.926   3.994
 2513TIP3    H2 7462   0.059   2.046   3.922
 2514TIP3   OH2 7463   0.262   2.099   3.964
 2514TIP3    H1 7464   0.285   2.014   3.926
 2514TIP3    H2 7465   0.311   2.103   4.045
 2515TIP3   OH2 7466   1.395   0.738   3.994
 2515TIP3    H1 7467   1.417   0.764   3.905
 2515TIP3    H2 7468   1.312   0.691   3.985
 2516TIP3   OH2 7469   1.398   0.750   3.720
 2516TIP3    H1 7470   1.461   0.695   3.674
 2516TIP3    H2 7471   1.427   0.840   3.701
 2517TIP3   OH2 7472   1.064   2.191   3.169
 2517TIP3    H1 7473   1.079   2.097   3.183
 2517TIP3    H2 7474   1.019   2.195   3.084
 2518TIP3   OH2 7475   1.372   0.825   4.887
 2518TIP3    H1 7476   1.395   0.800   4.977
 2518TIP3    H2 7477   1.456   0.825   4.841
 2519TIP3   OH2 7478   1.259   2.352   4.370
 2519TIP3    H1 7479   1.185   2.325   4.315
 2519TIP3    H2 7480   1.251   2.448   4.375
 2520TIP3   OH2 7481   2.514   1.705   3.089
 2520TIP3    H1 7482   2.502   1.799   3.105
 2520TIP3    H2 7483   2.439   1.680   3.036
 2521TIP3   OH2 7484   2.566   1.729   3.512
 2521TIP3    H1 7485   2.605   1.715   3.598
 2521TIP3    H2 7486   2.502   1.659   3.503
 2522TIP3   OH2 7487   1.840   1.594   3.878
 2522TIP3    H1 7488   1.880   1.543   3.947
 2522TIP3    H2 7489   1.913   1.622   3.822
 2523TIP3   OH2 7490   2.811   2.043   3.204
 2523TIP3    H1 7491   2.804   1.978   3.274
 2523TIP3    H2 7492   2.830   2.125   3.249
 2524TIP3   OH2 7493   1.809   2.024   3.573
 2524TIP3    H1 7494   1.794   1.929   3.575
 2524TIP3    H2 7495   1.904   2.033   3.563
 2525TIP3   OH2 7496   1.527   1.229   3.358
 2525TIP3    H1 7497   1.482   1.313   3.372
 2525TIP3    H2 7498   1.459   1.171   3.324
 2526TIP3   OH2 7499   1.597   1.549   3.569
 2526TIP3    H1 7500   1.651   1.472   3.591
 2526TIP3    H2 7501   1.661   1.618   3.551
 2527TIP3   OH2 7502   2.468   2.477   3.223
 2527TIP3    H1 7503   2.494   2.406   3.164
 2527TIP3    H2 7504   2.469   2.437   3.310
 2528TIP3   OH2 7505   2.330   1.982   3.547
 2528TIP3    H1 7506   2.410   1.941   3.514
 2528TIP3    H2 7507   2.361   2.052   3.605
 2529TIP3   OH2 7508   3.385   1.277   3.553
 2529TIP3    H1 7509   3.399   1.362   3.595
 2529TIP3    H2 7510   3.407   1.292   3.461
 2530TIP3   OH2 7511   2.749   1.440   3.562
 2530TIP3    H1 7512   2.781   1.353   3.588
 2530TIP3    H2 7513   2.707   1.425   3.477
 2531TIP3   OH2 7514   2.119   1.106   3.529
 2531TIP3    H1 7515   2.098   1.180   3.472
 2531TIP3    H2 7516   2.059   1.037   3.501
 2532TIP3   OH2 7517   2.804   1.212   3.175
 2532TIP3    H1 7518   2.864   1.203   3.249
 2532TIP3    H2 7519   2.858   1.248   3.105
 2533TIP3   OH2 7520   1.739   1.328   3.659
 2533TIP3    H1 7521   1.825   1.317   3.700
 2533TIP3    H2 7522   1.745   1.277   3.579
 2534TIP3   OH2 7523   2.152   1.521   3.477
 2534TIP3    H1 7524   2.247   1.507   3.484
 2534TIP3    H2 7525   2.119   1.440   3.438
 2535TIP3   OH2 7526   3.437   1.499   3.717
 2535TIP3    H1 7527   3.349   1.536   3.708
 2535TIP3    H2 7528   3.469   1.535   3.800
 2536TIP3   OH2 7529   2.089   1.111   3.981
 2536TIP3    H1 7530   2.041   1.149   3.907
 2536TIP3    H2 7531   2.033   1.129   4.057
 2537TIP3   OH2 7532   2.426   1.956   2.995
 2537TIP3    H1 7533   2.367   1.891   2.957
 2537TIP3    H2 7534   2.374   2.036   3.000
 2538TIP3   OH2 7535   2.176   1.882   3.753
 2538TIP3    H1 7536   2.124   1.954   3.789
 2538TIP3    H2 7537   2.227   1.921   3.683
 2539TIP3   OH2 7538   2.970   1.218   3.393
 2539TIP3    H1 7539   2.922   1.201   3.474
 2539TIP3    H2 7540   3.022   1.296   3.411
 2540TIP3   OH2 7541   1.988   1.222   3.747
 2540TIP3    H1 7542   2.042   1.297   3.772
 2540TIP3    H2 7543   2.037   1.180   3.676
 2541TIP3   OH2 7544   2.021   2.086   3.850
 2541TIP3    H1 7545   2.020   2.178   3.823
 2541TIP3    H2 7546   1.940   2.075   3.900
 2542TIP3   OH2 7547   1.407   1.801   3.122
 2542TIP3    H1 7548   1.345   1.833   3.056
 2542TIP3    H2 7549   1.435   1.879   3.169
 2543TIP3   OH2 7550   2.854   2.295   3.335
 2543TIP3    H1 7551   2.767   2.285   3.374
 2543TIP3    H2 7552   2.852   2.380   3.292
 2544TIP3   OH2 7553   3.188   1.163   3.722
 2544TIP3    H1 7554   3.102   1.188   3.689
 2544TIP3    H2 7555   3.249   1.191   3.654
 2545TIP3   OH2 7556   2.436   0.808   3.708
 2545TIP3    H1 7557   2.432   0.716   3.736
 2545TIP3    H2 7558   2.361   0.849   3.749
 2546TIP3   OH2 7559   2.552   2.321   3.004
 2546TIP3    H1 7560   2.602   2.240   2.995
 2546TIP3    H2 7561   2.611   2.390   2.975
 2547TIP3   OH2 7562   2.677   2.082   2.964
 2547TIP3    H1 7563   2.601   2.025   2.971
 2547TIP3    H2 7564   2.731   2.061   3.041
 2548TIP3   OH2 7565   3.073   2.184   3.697
 2548TIP3    H1 7566   3.056   2.108   3.641
 2548TIP3    H2 7567   3.057   2.260   3.640
 2549TIP3   OH2 7568   3.259   1.838   3.553
 2549TIP3    H1 7569   3.176   1.885   3.556
 2549TIP3    H2 7570   3.292   1.853   3.464
 2550TIP3   OH2 7571   2.721   1.674   2.912
 2550TIP3    H1 7572   2.654   1.690   2.979
 2550TIP3    H2 7573   2.801   1.655   2.962
 2551TIP3   OH2 7574   2.958   1.680   3.851
 2551TIP3    H1 7575   2.961   1.765   3.894
 2551TIP3    H2 7576   2.874   1.679   3.805
 2552TIP3   OH2 7577   1.929   1.640   3.346
 2552TIP3    H1 7578   1.910   1.600   3.261
 2552TIP3    H2 7579   2.016   1.608   3.369
 2553TIP3   OH2 7580   2.070   2.073   3.474
 2553TIP3    H1 7581   2.050   2.061   3.381
 2553TIP3    H2 7582   2.158   2.038   3.484
 2554TIP3   OH2 7583   2.048   1.648   3.701
 2554TIP3    H1 7584   2.084   1.616   3.619
 2554TIP3    H2 7585   2.094   1.731   3.717
 2555TIP3   OH2 7586   2.613   2.283   3.458
 2555TIP3    H1 7587   2.591   2.352   3.521
 2555TIP3    H2 7588   2.609   2.202   3.508
 2556TIP3   OH2 7589   2.184   2.129   4.090
 2556TIP3    H1 7590   2.136   2.211   4.103
 2556TIP3    H2 7591   2.176   2.112   3.996
 2557TIP3   OH2 7592   2.609   1.485   2.736
 2557TIP3    H1 7593   2.628   1.562   2.790
 2557TIP3    H2 7594   2.593   1.520   2.649
 2558TIP3   OH2 7595   1.979   1.722   4.172
 2558TIP3    H1 7596   1.984   1.817   4.181
 2558TIP3    H2 7597   1.885   1.704   4.161
 2559TIP3   OH2 7598   2.303   2.205   2.991
 2559TIP3    H1 7599   2.385   2.250   3.009
 2559TIP3    H2 7600   2.244   2.274   2.960
 2560TIP3   OH2 7601   2.012   2.345   4.111
 2560TIP3    H1 7602   1.999   2.358   4.017
 2560TIP3    H2 7603   1.924   2.338   4.146
 2561TIP3   OH2 7604   3.063   0.758   2.812
 2561TIP3    H1 7605   2.988   0.780   2.867
 2561TIP3    H2 7606   3.073   0.832   2.753
 2562TIP3   OH2 7607   1.829   1.508   3.116
 2562TIP3    H1 7608   1.755   1.559   3.083
 2562TIP3    H2 7609   1.789   1.431   3.157
 2563TIP3   OH2 7610   2.882   2.132   2.370
 2563TIP3    H1 7611   2.880   2.225   2.348
 2563TIP3    H2 7612   2.973   2.105   2.355
 2564TIP3   OH2 7613   1.609   1.898   4.058
 2564TIP3    H1 7614   1.542   1.880   3.992
 2564TIP3    H2 7615   1.647   1.813   4.078
 2565TIP3   OH2 7616   1.471   2.082   3.704
 2565TIP3    H1 7617   1.566   2.092   3.692
 2565TIP3    H2 7618   1.444   2.163   3.745
 2566TIP3   OH2 7619   2.194   2.425   2.840
 2566TIP3    H1 7620   2.148   2.405   2.758
 2566TIP3    H2 7621   2.156   2.508   2.869
 2567TIP3   OH2 7622   1.635   2.282   3.222
 2567TIP3    H1 7623   1.683   2.277   3.305
 2567TIP3    H2 7624   1.587   2.200   3.217
 2568TIP3   OH2 7625   2.398   2.357   2.467
 2568TIP3    H1 7626   2.448   2.282   2.436
 2568TIP3    H2 7627   2.431   2.372   2.556
 2569TIP3   OH2 7628   2.448   2.403   2.736
 2569TIP3    H1 7629   2.362   2.406   2.779
 2569TIP3    H2 7630   2.507   2.368   2.803
 2570TIP3   OH2 7631   3.210   1.654   4.024
 2570TIP3    H1 7632   3.125   1.673   3.985
 2570TIP3    H2 7633   3.222   1.560   4.010
 2571TIP3   OH2 7634   1.800   2.093   4.017
 2571TIP3    H1 7635   1.855   2.076   4.093
 2571TIP3    H2 7636   1.728   2.029   4.024
 2572TIP3   OH2 7637   2.200   0.898   3.836
 2572TIP3    H1 7638   2.118   0.872   3.794
 2572TIP3    H2 7639   2.177   0.979   3.884
 2573TIP3   OH2 7640   2.737   1.011   4.041
 2573TIP3    H1 7641   2.806   0.989   4.104
 2573TIP3    H2 7642   2.656   0.997   4.089
 2574TIP3   OH2 7643   2.962   1.425   3.957
 2574TIP3    H1 7644   2.919   1.424   4.043
 2574TIP3    H2 7645   2.947   1.513   3.924
 2575TIP3   OH2 7646   2.580   1.532   2.465
 2575TIP3    H1 7647   2.573   1.496   2.377
 2575TIP3    H2 7648   2.663   1.581   2.465
 2576TIP3   OH2 7649   2.322   0.977   2.761
 2576TIP3    H1 7650   2.311   0.966   2.855
 2576TIP3    H2 7651   2.408   0.941   2.742
 2577TIP3   OH2 7652   2.138   1.430   3.846
 2577TIP3    H1 7653   2.095   1.439   3.931
 2577TIP3    H2 7654   2.115   1.510   3.799
 2578TIP3   OH2 7655   2.025   1.300   3.362
 2578TIP3    H1 7656   1.935   1.282   3.390
 2578TIP3    H2 7657   2.029   1.267   3.272
 2579TIP3   OH2 7658   2.470   1.398   3.060
 2579TIP3    H1 7659   2.420   1.470   3.022
 2579TIP3    H2 7660   2.540   1.381   2.997
 2580TIP3   OH2 7661   2.684   1.639   4.165
 2580TIP3    H1 7662   2.661   1.572   4.229
 2580TIP3    H2 7663   2.775   1.662   4.185
 2581TIP3   OH2 7664   2.640   1.400   3.313
 2581TIP3    H1 7665   2.581   1.440   3.249
 2581TIP3    H2 7666   2.683   1.329   3.264
 2582TIP3   OH2 7667   1.975   1.440   4.069
 2582TIP3    H1 7668   1.989   1.507   4.135
 2582TIP3    H2 7669   1.956   1.361   4.118
 2583TIP3   OH2 7670   2.039   1.051   2.736
 2583TIP3    H1 7671   2.036   0.987   2.808
 2583TIP3    H2 7672   1.965   1.108   2.752
 2584TIP3   OH2 7673   1.534   0.979   3.661
 2584TIP3    H1 7674   1.616   1.011   3.697
 2584TIP3    H2 7675   1.552   0.964   3.568
 2585TIP3   OH2 7676   2.705   1.639   3.741
 2585TIP3    H1 7677   2.725   1.572   3.676
 2585TIP3    H2 7678   2.659   1.592   3.811
 2586TIP3   OH2 7679   2.380   1.094   3.412
 2586TIP3    H1 7680   2.302   1.098   3.466
 2586TIP3    H2 7681   2.453   1.089   3.474
 2587TIP3   OH2 7682   1.785   1.184   3.431
 2587TIP3    H1 7683   1.696   1.190   3.397
 2587TIP3    H2 7684   1.810   1.093   3.418
 2588TIP3   OH2 7685   2.035   1.179   3.111
 2588TIP3    H1 7686   2.128   1.200   3.105
 2588TIP3    H2 7687   1.996   1.219   3.033
 2589TIP3   OH2 7688   2.820   1.179   3.624
 2589TIP3    H1 7689   2.804   1.197   3.717
 2589TIP3    H2 7690   2.749   1.120   3.599
 2590TIP3   OH2 7691   1.884   1.259   2.879
 2590TIP3    H1 7692   1.791   1.269   2.896
 2590TIP3    H2 7693   1.917   1.348   2.868
 2591TIP3   OH2 7694   3.018   2.924   3.841
 2591TIP3    H1 7695   3.018   2.926   3.746
 2591TIP3    H2 7696   3.008   3.016   3.867
 2592TIP3   OH2 7697   1.952   1.992   4.241
 2592TIP3    H1 7698   2.037   2.035   4.253
 2592TIP3    H2 7699   1.903   2.013   4.320
 2593TIP3   OH2 7700   2.422   1.462   3.525
 2593TIP3    H1 7701   2.491   1.421   3.474
 2593TIP3    H2 7702   2.426   1.419   3.611
 2594TIP3   OH2 7703   1.925   0.936   3.417
 2594TIP3    H1 7704   1.887   0.861   3.464
 2594TIP3    H2 7705   1.956   0.899   3.335
 2595TIP3   OH2 7706   2.402   1.362   3.793
 2595TIP3    H1 7707   2.315   1.398   3.812
 2595TIP3    H2 7708   2.462   1.416   3.844
 2596TIP3   OH2 7709   3.028   1.981   3.516
 2596TIP3    H1 7710   3.061   2.032   3.442
 2596TIP3    H2 7711   2.948   1.940   3.482
 2597TIP3   OH2 7712   2.598   1.059   2.793
 2597TIP3    H1 7713   2.533   1.103   2.740
 2597TIP3    H2 7714   2.650   1.129   2.831
 2598TIP3   OH2 7715   2.703   1.286   2.889
 2598TIP3    H1 7716   2.794   1.305   2.909
 2598TIP3    H2 7717   2.675   1.358   2.832
 2599TIP3   OH2 7718   1.808   1.736   3.568
 2599TIP3    H1 7719   1.842   1.714   3.481
 2599TIP3    H2 7720   1.878   1.713   3.628
 2600TIP3   OH2 7721   2.315   1.877   2.677
 2600TIP3    H1 7722   2.255   1.945   2.710
 2600TIP3    H2 7723   2.308   1.806   2.742
 2601TIP3   OH2 7724   1.706   1.663   4.186
 2601TIP3    H1 7725   1.708   1.640   4.279
 2601TIP3    H2 7726   1.627   1.619   4.152
 2602TIP3   OH2 7727   2.462   1.800   4.210
 2602TIP3    H1 7728   2.389   1.755   4.166
 2602TIP3    H2 7729   2.540   1.752   4.181
 2603TIP3   OH2 7730   2.695   2.351   3.812
 2603TIP3    H1 7731   2.610   2.310   3.796
 2603TIP3    H2 7732   2.690   2.382   3.903
 2604TIP3   OH2 7733   3.084   1.390   2.704
 2604TIP3    H1 7734   3.039   1.340   2.636
 2604TIP3    H2 7735   3.080   1.481   2.672
 2605TIP3   OH2 7736   3.330   2.222   3.787
 2605TIP3    H1 7737   3.236   2.230   3.773
 2605TIP3    H2 7738   3.366   2.210   3.699
 2606TIP3   OH2 7739   2.806   2.205   2.637
 2606TIP3    H1 7740   2.781   2.138   2.699
 2606TIP3    H2 7741   2.826   2.158   2.556
 2607TIP3   OH2 7742   2.811   1.843   3.403
 2607TIP3    H1 7743   2.723   1.833   3.439
 2607TIP3    H2 7744   2.833   1.756   3.369
 2608TIP3   OH2 7745   1.952   2.086   3.222
 2608TIP3    H1 7746   1.941   2.162   3.165
 2608TIP3    H2 7747   1.869   2.040   3.218
 2609TIP3   OH2 7748   1.561   1.361   2.955
 2609TIP3    H1 7749   1.578   1.454   2.968
 2609TIP3    H2 7750   1.468   1.350   2.975
 2610TIP3   OH2 7751   2.226   2.390   3.677
 2610TIP3    H1 7752   2.279   2.461   3.640
 2610TIP3    H2 7753   2.289   2.326   3.709
 2611TIP3   OH2 7754   1.859   2.304   3.064
 2611TIP3    H1 7755   1.776   2.305   3.110
 2611TIP3    H2 7756   1.894   2.393   3.073
 2612TIP3   OH2 7757   2.651   2.039   3.605
 2612TIP3    H1 7758   2.584   2.076   3.662
 2612TIP3    H2 7759   2.712   1.996   3.665
 2613TIP3   OH2 7760   2.557   1.938   2.547
 2613TIP3    H1 7761   2.626   1.909   2.606
 2613TIP3    H2 7762   2.476   1.920   2.594
 2614TIP3   OH2 7763   2.843   2.555   3.687
 2614TIP3    H1 7764   2.782   2.487   3.717
 2614TIP3    H2 7765   2.796   2.600   3.617
 2615TIP3   OH2 7766   2.895   2.409   2.330
 2615TIP3    H1 7767   2.939   2.480   2.284
 2615TIP3    H2 7768   2.817   2.450   2.369
 2616TIP3   OH2 7769   1.920   1.187   4.191
 2616TIP3    H1 7770   1.825   1.198   4.197
 2616TIP3    H2 7771   1.944   1.142   4.272
 2617TIP3   OH2 7772   2.764   1.847   2.698
 2617TIP3    H1 7773   2.741   1.796   2.776
 2617TIP3    H2 7774   2.859   1.853   2.699
 2618TIP3   OH2 7775   1.657   2.301   3.841
 2618TIP3    H1 7776   1.709   2.239   3.892
 2618TIP3    H2 7777   1.678   2.386   3.879
 2619TIP3   OH2 7778   1.929   1.918   2.539
 2619TIP3    H1 7779   1.941   1.826   2.514
 2619TIP3    H2 7780   1.917   1.915   2.634
 2620TIP3   OH2 7781   1.873   1.930   2.811
 2620TIP3    H1 7782   1.945   1.904   2.869
 2620TIP3    H2 7783   1.872   2.025   2.815
 2621TIP3   OH2 7784   1.601   1.631   3.017
 2621TIP3    H1 7785   1.537   1.679   3.069
 2621TIP3    H2 7786   1.619   1.687   2.942
 2622TIP3   OH2 7787   2.771   1.237   3.887
 2622TIP3    H1 7788   2.847   1.285   3.921
 2622TIP3    H2 7789   2.761   1.163   3.946
 2623TIP3   OH2 7790   2.656   0.996   3.075
 2623TIP3    H1 7791   2.623   1.022   2.989
 2623TIP3    H2 7792   2.698   1.075   3.109
 2624TIP3   OH2 7793   2.144   2.086   2.737
 2624TIP3    H1 7794   2.060   2.117   2.770
 2624TIP3    H2 7795   2.194   2.165   2.719
 2625TIP3   OH2 7796   2.313   1.194   3.154
 2625TIP3    H1 7797   2.367   1.269   3.127
 2625TIP3    H2 7798   2.338   1.180   3.246
 2626TIP3   OH2 7799   2.606   1.479   3.943
 2626TIP3    H1 7800   2.630   1.528   4.022
 2626TIP3    H2 7801   2.658   1.398   3.948
 2627TIP3   OH2 7802   2.476   0.885   3.255
 2627TIP3    H1 7803   2.448   0.961   3.306
 2627TIP3    H2 7804   2.548   0.917   3.201
 2628TIP3   OH2 7805   1.902   2.201   2.814
 2628TIP3    H1 7806   1.876   2.271   2.754
 2628TIP3    H2 7807   1.887   2.237   2.901
 2629TIP3   OH2 7808   2.041   0.927   2.983
 2629TIP3    H1 7809   2.009   1.000   3.036
 2629TIP3    H2 7810   2.133   0.917   3.009
 2630TIP3   OH2 7811   3.227   1.382   3.935
 2630TIP3    H1 7812   3.132   1.386   3.949
 2630TIP3    H2 7813   3.237   1.331   3.855
 2631TIP3   OH2 7814   2.886   1.577   3.319
 2631TIP3    H1 7815   2.804   1.532   3.340
 2631TIP3    H2 7816   2.951   1.537   3.377
 2632TIP3   OH2 7817   1.633   1.789   2.794
 2632TIP3    H1 7818   1.700   1.857   2.803
 2632TIP3    H2 7819   1.677   1.720   2.744
 2633TIP3   OH2 7820   2.875   2.561   3.253
 2633TIP3    H1 7821   2.831   2.611   3.185
 2633TIP3    H2 7822   2.967   2.582   3.243
 2634TIP3   OH2 7823   1.940   0.824   3.770
 2634TIP3    H1 7824   1.903   0.786   3.691
 2634TIP3    H2 7825   1.940   0.752   3.833
 2635TIP3   OH2 7826   1.462   2.060   3.215
 2635TIP3    H1 7827   1.417   2.103   3.288
 2635TIP3    H2 7828   1.425   2.101   3.137
 2636TIP3   OH2 7829   1.658   2.600   4.253
 2636TIP3    H1 7830   1.736   2.611   4.307
 2636TIP3    H2 7831   1.657   2.507   4.230
 2637TIP3   OH2 7832   2.115   2.514   4.305
 2637TIP3    H1 7833   2.210   2.509   4.304
 2637TIP3    H2 7834   2.088   2.456   4.233
 2638TIP3   OH2 7835   2.088   2.113   2.424
 2638TIP3    H1 7836   2.041   2.046   2.474
 2638TIP3    H2 7837   2.162   2.066   2.385
 2639TIP3   OH2 7838   2.765   2.421   4.081
 2639TIP3    H1 7839   2.787   2.334   4.112
 2639TIP3    H2 7840   2.843   2.473   4.097
 2640TIP3   OH2 7841   2.527   2.140   2.362
 2640TIP3    H1 7842   2.555   2.078   2.429
 2640TIP3    H2 7843   2.596   2.135   2.295
 2641TIP3   OH2 7844   1.758   1.996   4.452
 2641TIP3    H1 7845   1.779   1.903   4.459
 2641TIP3    H2 7846   1.672   1.998   4.410
 2642TIP3   OH2 7847   1.804   1.606   2.686
 2642TIP3    H1 7848   1.868   1.575   2.749
 2642TIP3    H2 7849   1.853   1.614   2.604
 2643TIP3   OH2 7850   2.402   2.075   4.240
 2643TIP3    H1 7851   2.338   2.095   4.171
 2643TIP3    H2 7852   2.431   1.986   4.221
 2644TIP3   OH2 7853   2.244   1.768   2.438
 2644TIP3    H1 7854   2.267   1.817   2.517
 2644TIP3    H2 7855   2.229   1.679   2.468
 2645TIP3   OH2 7856   2.859   2.128   3.865
 2645TIP3    H1 7857   2.934   2.153   3.810
 2645TIP3    H2 7858   2.791   2.192   3.845
 2646TIP3   OH2 7859   1.871   1.736   4.455
 2646TIP3    H1 7860   1.940   1.735   4.389
 2646TIP3    H2 7861   1.916   1.760   4.536
 2647TIP3   OH2 7862   1.987   1.517   2.879
 2647TIP3    H1 7863   1.954   1.533   2.967
 2647TIP3    H2 7864   2.076   1.552   2.880
 2648TIP3   OH2 7865   2.234   1.615   4.111
 2648TIP3    H1 7866   2.152   1.661   4.126
 2648TIP3    H2 7867   2.269   1.654   4.030
 2649TIP3   OH2 7868   2.825   2.021   4.231
 2649TIP3    H1 7869   2.778   2.014   4.148
 2649TIP3    H2 7870   2.766   1.979   4.295
 2650TIP3   OH2 7871   2.833   1.641   2.399
 2650TIP3    H1 7872   2.833   1.610   2.308
 2650TIP3    H2 7873   2.811   1.734   2.392
 2651TIP3   OH2 7874   2.346   1.391   4.219
 2651TIP3    H1 7875   2.348   1.320   4.154
 2651TIP3    H2 7876   2.309   1.466   4.172
 2652TIP3   OH2 7877   2.350   1.190   4.017
 2652TIP3    H1 7878   2.378   1.232   3.935
 2652TIP3    H2 7879   2.258   1.168   4.003
 2653TIP3   OH2 7880   2.357   1.741   3.904
 2653TIP3    H1 7881   2.442   1.776   3.879
 2653TIP3    H2 7882   2.294   1.794   3.855
 2654TIP3   OH2 7883   2.947   1.692   4.261
 2654TIP3    H1 7884   3.010   1.620   4.262
 2654TIP3    H2 7885   3.000   1.770   4.244
 2655TIP3   OH2 7886   2.992   1.916   3.976
 2655TIP3    H1 7887   2.937   1.989   3.947
 2655TIP3    H2 7888   3.082   1.947   3.964
 2656TIP3   OH2 7889   2.230   1.472   4.463
 2656TIP3    H1 7890   2.160   1.408   4.479
 2656TIP3    H2 7891   2.258   1.454   4.373
 2657TIP3   OH2 7892   2.472   0.962   4.120
 2657TIP3    H1 7893   2.433   1.043   4.086
 2657TIP3    H2 7894   2.406   0.895   4.104
 2658TIP3   OH2 7895   2.600   1.430   4.325
 2658TIP3    H1 7896   2.587   1.420   4.419
 2658TIP3    H2 7897   2.515   1.413   4.286
 2659TIP3   OH2 7898   2.843   1.380   4.194
 2659TIP3    H1 7899   2.764   1.384   4.249
 2659TIP3    H2 7900   2.915   1.366   4.256
 2660TIP3   OH2 7901   3.084   1.355   4.343
 2660TIP3    H1 7902   3.094   1.260   4.349
 2660TIP3    H2 7903   3.076   1.385   4.433
 2661TIP3   OH2 7904   2.063   1.253   4.524
 2661TIP3    H1 7905   2.065   1.163   4.491
 2661TIP3    H2 7906   2.101   1.248   4.612
 2662TIP3   OH2 7907   2.534   0.936   4.386
 2662TIP3    H1 7908   2.604   0.871   4.379
 2662TIP3    H2 7909   2.505   0.950   4.295
 2663TIP3   OH2 7910   2.632   1.149   4.532
 2663TIP3    H1 7911   2.600   1.079   4.475
 2663TIP3    H2 7912   2.561   1.214   4.532
 2664TIP3   OH2 7913   1.887   2.413   2.634
 2664TIP3    H1 7914   1.977   2.390   2.610
 2664TIP3    H2 7915   1.852   2.456   2.556
 2665TIP3   OH2 7916   1.359   1.796   2.821
 2665TIP3    H1 7917   1.454   1.805   2.821
 2665TIP3    H2 7918   1.344   1.704   2.844
 2666TIP3   OH2 7919   1.246   2.374   3.261
 2666TIP3    H1 7920   1.186   2.314   3.218
 2666TIP3    H2 7921   1.290   2.321   3.327
 2667TIP3   OH2 7922   1.387   2.218   3.444
 2667TIP3    H1 7923   1.366   2.151   3.508
 2667TIP3    H2 7924   1.445   2.278   3.490
 2668TIP3   OH2 7925   3.140   2.639   3.245
 2668TIP3    H1 7926   3.143   2.728   3.280
 2668TIP3    H2 7927   3.199   2.641   3.169
 2669TIP3   OH2 7928   3.157   2.657   3.559
 2669TIP3    H1 7929   3.146   2.605   3.479
 2669TIP3    H2 7930   3.133   2.597   3.630
 2670TIP3   OH2 7931   3.208   2.354   4.131
 2670TIP3    H1 7932   3.121   2.385   4.109
 2670TIP3    H2 7933   3.263   2.432   4.128
 2671TIP3   OH2 7934   3.042   1.848   2.711
 2671TIP3    H1 7935   3.099   1.921   2.685
 2671TIP3    H2 7936   3.085   1.811   2.788
 2672TIP3   OH2 7937   3.163   1.706   2.916
 2672TIP3    H1 7938   3.092   1.675   2.972
 2672TIP3    H2 7939   3.225   1.746   2.977
 2673TIP3   OH2 7940   3.215   2.117   3.353
 2673TIP3    H1 7941   3.260   2.045   3.309
 2673TIP3    H2 7942   3.211   2.186   3.286
 2674TIP3   OH2 7943   3.017   2.397   3.535
 2674TIP3    H1 7944   2.952   2.448   3.584
 2674TIP3    H2 7945   2.969   2.358   3.463
 2675TIP3   OH2 7946   3.060   1.623   2.557
 2675TIP3    H1 7947   2.982   1.624   2.501
 2675TIP3    H2 7948   3.052   1.703   2.609
 2676TIP3   OH2 7949   2.978   1.259   2.491
 2676TIP3    H1 7950   2.912   1.304   2.439
 2676TIP3    H2 7951   2.952   1.167   2.490
 2677TIP3   OH2 7952   2.951   1.581   3.051
 2677TIP3    H1 7953   2.960   1.486   3.037
 2677TIP3    H2 7954   2.931   1.589   3.145
 2678TIP3   OH2 7955   1.575   1.614   3.832
 2678TIP3    H1 7956   1.567   1.596   3.738
 2678TIP3    H2 7957   1.669   1.619   3.848
 2679TIP3   OH2 7958   3.253   1.993   3.924
 2679TIP3    H1 7959   3.316   1.924   3.904
 2679TIP3    H2 7960   3.277   2.066   3.866
 2680TIP3   OH2 7961   3.423   1.777   3.902
 2680TIP3    H1 7962   3.347   1.738   3.946
 2680TIP3    H2 7963   3.495   1.720   3.926
 2681TIP3   OH2 7964   2.902   0.995   2.445
 2681TIP3    H1 7965   2.964   0.967   2.511
 2681TIP3    H2 7966   2.818   0.961   2.475
 2682TIP3   OH2 7967   2.972   1.305   2.953
 2682TIP3    H1 7968   3.015   1.220   2.966
 2682TIP3    H2 7969   3.013   1.341   2.875
 2683TIP3   OH2 7970   3.102   1.454   3.462
 2683TIP3    H1 7971   3.182   1.473   3.412
 2683TIP3    H2 7972   3.115   1.498   3.546
 2684TIP3   OH2 7973   3.179   1.607   3.685
 2684TIP3    H1 7974   3.104   1.631   3.740
 2684TIP3    H2 7975   3.205   1.690   3.644
 2685TIP3   OH2 7976   1.808   1.338   4.463
 2685TIP3    H1 7977   1.903   1.330   4.476
 2685TIP3    H2 7978   1.772   1.261   4.506
 2686TIP3   OH2 7979   3.640   1.206   4.231
 2686TIP3    H1 7980   3.704   1.151   4.186
 2686TIP3    H2 7981   3.600   1.257   4.161
 2687TIP3   OH2 7982   3.070   1.045   2.989
 2687TIP3    H1 7983   3.113   1.030   3.073
 2687TIP3    H2 7984   3.004   0.976   2.984
 2688TIP3   OH2 7985   1.774   1.042   3.793
 2688TIP3    H1 7986   1.830   0.964   3.791
 2688TIP3    H2 7987   1.833   1.115   3.777
 2689TIP3   OH2 7988   1.563   1.317   3.878
 2689TIP3    H1 7989   1.615   1.300   3.799
 2689TIP3    H2 7990   1.567   1.412   3.889
 2690TIP3   OH2 7991   3.490   1.328   4.040
 2690TIP3    H1 7992   3.413   1.370   4.079
 2690TIP3    H2 7993   3.454   1.261   3.981
 2691TIP3   OH2 7994   3.111   0.952   2.619
 2691TIP3    H1 7995   3.168   0.885   2.580
 2691TIP3    H2 7996   3.168   1.028   2.631
 2692TIP3   OH2 7997   1.536   0.868   3.403
 2692TIP3    H1 7998   1.454   0.820   3.414
 2692TIP3    H2 7999   1.578   0.827   3.328
 2693TIP3   OH2 8000   2.692   2.522   2.892
 2693TIP3    H1 8001   2.750   2.513   2.817
 2693TIP3    H2 8002   2.734   2.589   2.946
 2694TIP3   OH2 8003   1.779   0.873   4.182
 2694TIP3    H1 8004   1.742   0.900   4.266
 2694TIP3    H2 8005   1.732   0.925   4.117
 2695TIP3   OH2 8006   1.777   2.329   4.261
 2695TIP3    H1 8007   1.686   2.299   4.263
 2695TIP3    H2 8008   1.802   2.332   4.354
 2696TIP3   OH2 8009   2.002   2.367   3.832
 2696TIP3    H1 8010   1.955   2.441   3.796
 2696TIP3    H2 8011   2.089   2.371   3.791
 2697TIP3   OH2 8012   2.390   2.650   3.983
 2697TIP3    H1 8013   2.436   2.610   4.056
 2697TIP3    H2 8014   2.459   2.678   3.924
 2698TIP3   OH2 8015   2.592   2.746   3.824
 2698TIP3    H1 8016   2.649   2.684   3.778
 2698TIP3    H2 8017   2.652   2.797   3.879
 2699TIP3   OH2 8018   3.396   1.086   3.920
 2699TIP3    H1 8019   3.313   1.090   3.872
 2699TIP3    H2 8020   3.424   0.995   3.913
 2700TIP3   OH2 8021   1.661   2.603   3.869
 2700TIP3    H1 8022   1.569   2.620   3.848
 2700TIP3    H2 8023   1.684   2.670   3.933
 2701TIP3   OH2 8024   1.891   2.593   3.719
 2701TIP3    H1 8025   1.809   2.597   3.767
 2701TIP3    H2 8026   1.868   2.614   3.628
 2702TIP3   OH2 8027   2.315   2.606   3.511
 2702TIP3    H1 8028   2.235   2.614   3.458
 2702TIP3    H2 8029   2.321   2.689   3.558
 2703TIP3   OH2 8030   2.580   2.549   3.558
 2703TIP3    H1 8031   2.486   2.563   3.544
 2703TIP3    H2 8032   2.622   2.619   3.509
 2704TIP3   OH2 8033   2.779   2.721   3.457
 2704TIP3    H1 8034   2.776   2.806   3.414
 2704TIP3    H2 8035   2.808   2.660   3.389
 2705TIP3   OH2 8036   1.572   2.383   3.590
 2705TIP3    H1 8037   1.597   2.361   3.680
 2705TIP3    H2 8038   1.645   2.350   3.537
 2706TIP3   OH2 8039   1.778   2.270   3.455
 2706TIP3    H1 8040   1.786   2.184   3.495
 2706TIP3    H2 8041   1.866   2.307   3.459
 2707TIP3   OH2 8042   2.045   2.352   3.473
 2707TIP3    H1 8043   2.059   2.258   3.460
 2707TIP3    H2 8044   2.100   2.374   3.549
 2708TIP3   OH2 8045   2.607   1.002   3.555
 2708TIP3    H1 8046   2.564   0.932   3.605
 2708TIP3    H2 8047   2.674   0.958   3.503
 2709TIP3   OH2 8048   3.109   0.918   3.448
 2709TIP3    H1 8049   3.148   0.967   3.376
 2709TIP3    H2 8050   3.018   0.948   3.452
 2710TIP3   OH2 8051   3.226   0.993   3.212
 2710TIP3    H1 8052   3.294   0.932   3.184
 2710TIP3    H2 8053   3.264   1.079   3.199
 2711TIP3   OH2 8054   1.831   0.708   3.542
 2711TIP3    H1 8055   1.741   0.676   3.551
 2711TIP3    H2 8056   1.884   0.629   3.539
 2712TIP3   OH2 8057   2.324   0.742   3.452
 2712TIP3    H1 8058   2.369   0.791   3.383
 2712TIP3    H2 8059   2.363   0.772   3.534
 2713TIP3   OH2 8060   2.817   0.877   3.425
 2713TIP3    H1 8061   2.847   0.842   3.341
 2713TIP3    H2 8062   2.824   0.802   3.485
 2714TIP3   OH2 8063   2.875   0.841   2.996
 2714TIP3    H1 8064   2.797   0.891   3.021
 2714TIP3    H2 8065   2.862   0.755   3.037
 2715TIP3   OH2 8066   1.371   2.180   2.990
 2715TIP3    H1 8067   1.311   2.133   2.933
 2715TIP3    H2 8068   1.369   2.271   2.958
 2716TIP3   OH2 8069   2.310   0.950   3.034
 2716TIP3    H1 8070   2.359   0.897   3.097
 2716TIP3    H2 8071   2.312   1.038   3.070
 2717TIP3   OH2 8072   2.143   2.338   2.572
 2717TIP3    H1 8073   2.227   2.361   2.533
 2717TIP3    H2 8074   2.115   2.260   2.523
 2718TIP3   OH2 8075   2.844   2.475   2.662
 2718TIP3    H1 8076   2.835   2.380   2.658
 2718TIP3    H2 8077   2.800   2.507   2.583
 2719TIP3   OH2 8078   2.071   0.980   4.443
 2719TIP3    H1 8079   2.038   0.912   4.502
 2719TIP3    H2 8080   2.163   0.990   4.466
 2720TIP3   OH2 8081   2.320   0.988   4.560
 2720TIP3    H1 8082   2.397   0.969   4.506
 2720TIP3    H2 8083   2.317   0.917   4.623
 2721TIP3   OH2 8084   1.448   2.191   2.596
 2721TIP3    H1 8085   1.398   2.173   2.675
 2721TIP3    H2 8086   1.529   2.141   2.607
 2722TIP3   OH2 8087   3.142   1.082   4.350
 2722TIP3    H1 8088   3.160   1.054   4.440
 2722TIP3    H2 8089   3.227   1.078   4.306
 2723TIP3   OH2 8090   3.033   2.644   3.868
 2723TIP3    H1 8091   2.966   2.612   3.808
 2723TIP3    H2 8092   3.033   2.739   3.857
 2724TIP3   OH2 8093   4.340   2.002   2.597
 2724TIP3    H1 8094   4.310   2.088   2.568
 2724TIP3    H2 8095   4.271   1.942   2.569
 2725TIP3   OH2 8096   4.340   1.994   3.021
 2725TIP3    H1 8097   4.393   1.972   3.097
 2725TIP3    H2 8098   4.294   1.913   2.999
 2726TIP3   OH2 8099   3.634   1.852   3.359
 2726TIP3    H1 8100   3.672   1.800   3.430
 2726TIP3    H2 8101   3.709   1.876   3.304
 2727TIP3   OH2 8102   4.606   2.300   2.693
 2727TIP3    H1 8103   4.593   2.233   2.761
 2727TIP3    H2 8104   4.628   2.380   2.742
 2728TIP3   OH2 8105   3.629   2.284   3.054
 2728TIP3    H1 8106   3.609   2.191   3.058
 2728TIP3    H2 8107   3.723   2.288   3.039
 2729TIP3   OH2 8108   3.316   1.486   2.832
 2729TIP3    H1 8109   3.279   1.569   2.861
 2729TIP3    H2 8110   3.242   1.439   2.793
 2730TIP3   OH2 8111   3.392   1.797   3.054
 2730TIP3    H1 8112   3.444   1.721   3.081
 2730TIP3    H2 8113   3.458   1.862   3.028
 2731TIP3   OH2 8114   4.262   2.729   2.704
 2731TIP3    H1 8115   4.290   2.665   2.638
 2731TIP3    H2 8116   4.260   2.680   2.786
 2732TIP3   OH2 8117   4.140   2.213   3.022
 2732TIP3    H1 8118   4.185   2.134   2.993
 2732TIP3    H2 8119   4.210   2.272   3.051
 2733TIP3   OH2 8120   5.181   1.532   3.036
 2733TIP3    H1 8121   5.196   1.618   3.075
 2733TIP3    H2 8122   5.210   1.541   2.946
 2734TIP3   OH2 8123   4.549   1.700   3.058
 2734TIP3    H1 8124   4.582   1.614   3.085
 2734TIP3    H2 8125   4.514   1.685   2.970
 2735TIP3   OH2 8126   3.907   1.358   3.016
 2735TIP3    H1 8127   3.886   1.432   2.959
 2735TIP3    H2 8128   3.852   1.287   2.985
 2736TIP3   OH2 8129   4.603   1.462   2.653
 2736TIP3    H1 8130   4.666   1.456   2.724
 2736TIP3    H2 8131   4.654   1.495   2.578
 2737TIP3   OH2 8132   3.531   1.576   3.149
 2737TIP3    H1 8133   3.614   1.558   3.193
 2737TIP3    H2 8134   3.535   1.524   3.069
 2738TIP3   OH2 8135   3.951   1.776   2.964
 2738TIP3    H1 8136   4.045   1.761   2.969
 2738TIP3    H2 8137   3.915   1.694   2.930
 2739TIP3   OH2 8138   5.234   1.754   3.203
 2739TIP3    H1 8139   5.145   1.789   3.198
 2739TIP3    H2 8140   5.269   1.790   3.285
 2740TIP3   OH2 8141   3.885   1.365   3.470
 2740TIP3    H1 8142   3.837   1.400   3.395
 2740TIP3    H2 8143   3.829   1.382   3.545
 2741TIP3   OH2 8144   4.240   2.218   2.455
 2741TIP3    H1 8145   4.201   2.189   2.373
 2741TIP3    H2 8146   4.186   2.293   2.482
 2742TIP3   OH2 8147   3.974   2.143   3.234
 2742TIP3    H1 8148   3.921   2.214   3.268
 2742TIP3    H2 8149   4.022   2.182   3.160
 2743TIP3   OH2 8150   4.758   1.487   2.876
 2743TIP3    H1 8151   4.718   1.463   2.960
 2743TIP3    H2 8152   4.816   1.560   2.897
 2744TIP3   OH2 8153   3.780   1.471   3.237
 2744TIP3    H1 8154   3.835   1.546   3.259
 2744TIP3    H2 8155   3.826   1.428   3.165
 2745TIP3   OH2 8156   3.820   2.346   3.347
 2745TIP3    H1 8157   3.803   2.431   3.307
 2745TIP3    H2 8158   3.745   2.330   3.404
 2746TIP3   OH2 8159   3.211   2.044   2.605
 2746TIP3    H1 8160   3.174   2.060   2.518
 2746TIP3    H2 8161   3.233   2.131   2.638
 2747TIP3   OH2 8162   4.645   2.547   2.835
 2747TIP3    H1 8163   4.558   2.540   2.874
 2747TIP3    H2 8164   4.644   2.629   2.786
 2748TIP3   OH2 8165   4.981   1.427   3.208
 2748TIP3    H1 8166   4.896   1.445   3.168
 2748TIP3    H2 8167   5.044   1.452   3.141
 2749TIP3   OH2 8168   4.229   1.057   3.202
 2749TIP3    H1 8169   4.222   0.965   3.227
 2749TIP3    H2 8170   4.152   1.098   3.240
 2750TIP3   OH2 8171   4.350   2.578   2.487
 2750TIP3    H1 8172   4.403   2.499   2.476
 2750TIP3    H2 8173   4.407   2.649   2.458
 2751TIP3   OH2 8174   4.489   2.348   2.447
 2751TIP3    H1 8175   4.416   2.286   2.445
 2751TIP3    H2 8176   4.539   2.323   2.525
 2752TIP3   OH2 8177   4.880   2.426   3.176
 2752TIP3    H1 8178   4.859   2.354   3.116
 2752TIP3    H2 8179   4.865   2.505   3.124
 2753TIP3   OH2 8180   4.169   1.839   2.448
 2753TIP3    H1 8181   4.087   1.886   2.430
 2753TIP3    H2 8182   4.215   1.839   2.364
 2754TIP3   OH2 8183   4.141   1.645   2.143
 2754TIP3    H1 8184   4.205   1.698   2.190
 2754TIP3    H2 8185   4.194   1.580   2.097
 2755TIP3   OH2 8186   5.053   2.099   3.046
 2755TIP3    H1 8187   4.967   2.141   3.039
 2755TIP3    H2 8188   5.091   2.109   2.959
 2756TIP3   OH2 8189   4.525   1.931   2.408
 2756TIP3    H1 8190   4.472   1.960   2.482
 2756TIP3    H2 8191   4.609   1.905   2.447
 2757TIP3   OH2 8192   4.753   1.956   3.353
 2757TIP3    H1 8193   4.746   2.037   3.403
 2757TIP3    H2 8194   4.672   1.951   3.303
 2758TIP3   OH2 8195   3.749   1.907   2.813
 2758TIP3    H1 8196   3.711   1.847   2.749
 2758TIP3    H2 8197   3.822   1.858   2.851
 2759TIP3   OH2 8198   3.887   2.328   2.953
 2759TIP3    H1 8199   3.863   2.317   2.861
 2759TIP3    H2 8200   3.975   2.290   2.959
 2760TIP3   OH2 8201   3.848   1.903   3.187
 2760TIP3    H1 8202   3.887   1.868   3.107
 2760TIP3    H2 8203   3.895   1.985   3.202
 2761TIP3   OH2 8204   4.408   2.544   2.966
 2761TIP3    H1 8205   4.389   2.623   3.016
 2761TIP3    H2 8206   4.389   2.472   3.028
 2762TIP3   OH2 8207   4.021   2.433   3.516
 2762TIP3    H1 8208   3.965   2.497   3.558
 2762TIP3    H2 8209   3.963   2.385   3.457
 2763TIP3   OH2 8210   4.357   1.792   2.240
 2763TIP3    H1 8211   4.417   1.850   2.288
 2763TIP3    H2 8212   4.388   1.796   2.150
 2764TIP3   OH2 8213   3.774   1.979   3.663
 2764TIP3    H1 8214   3.779   2.073   3.680
 2764TIP3    H2 8215   3.680   1.961   3.655
 2765TIP3   OH2 8216   4.103   2.457   2.497
 2765TIP3    H1 8217   4.184   2.507   2.501
 2765TIP3    H2 8218   4.042   2.514   2.449
 2766TIP3   OH2 8219   3.818   2.612   3.578
 2766TIP3    H1 8220   3.811   2.636   3.486
 2766TIP3    H2 8221   3.731   2.582   3.602
 2767TIP3   OH2 8222   4.862   1.014   2.297
 2767TIP3    H1 8223   4.786   1.037   2.351
 2767TIP3    H2 8224   4.875   1.090   2.240
 2768TIP3   OH2 8225   3.619   1.747   2.617
 2768TIP3    H1 8226   3.547   1.798   2.580
 2768TIP3    H2 8227   3.581   1.662   2.637
 2769TIP3   OH2 8228   4.690   2.389   1.854
 2769TIP3    H1 8229   4.684   2.482   1.832
 2769TIP3    H2 8230   4.780   2.365   1.831
 2770TIP3   OH2 8231   3.422   2.158   3.537
 2770TIP3    H1 8232   3.348   2.145   3.477
 2770TIP3    H2 8233   3.451   2.070   3.559
 2771TIP3   OH2 8234   3.253   2.352   3.196
 2771TIP3    H1 8235   3.345   2.377   3.208
 2771TIP3    H2 8236   3.204   2.420   3.242
 2772TIP3   OH2 8237   5.091   2.806   3.248
 2772TIP3    H1 8238   5.099   2.710   3.251
 2772TIP3    H2 8239   5.027   2.826   3.317
 2773TIP3   OH2 8240   4.215   2.565   3.374
 2773TIP3    H1 8241   4.218   2.655   3.406
 2773TIP3    H2 8242   4.145   2.524   3.424
 2774TIP3   OH2 8243   3.993   2.682   2.325
 2774TIP3    H1 8244   3.945   2.664   2.244
 2774TIP3    H2 8245   3.957   2.765   2.356
 2775TIP3   OH2 8246   3.427   2.539   2.703
 2775TIP3    H1 8247   3.472   2.531   2.787
 2775TIP3    H2 8248   3.379   2.456   2.694
 2776TIP3   OH2 8249   4.194   2.616   1.951
 2776TIP3    H1 8250   4.245   2.542   1.916
 2776TIP3    H2 8251   4.228   2.629   2.039
 2777TIP3   OH2 8252   4.247   2.659   2.220
 2777TIP3    H1 8253   4.160   2.662   2.262
 2777TIP3    H2 8254   4.304   2.623   2.287
 2778TIP3   OH2 8255   4.992   1.913   3.514
 2778TIP3    H1 8256   4.912   1.919   3.461
 2778TIP3    H2 8257   5.014   1.820   3.513
 2779TIP3   OH2 8258   3.614   2.354   3.536
 2779TIP3    H1 8259   3.669   2.325   3.609
 2779TIP3    H2 8260   3.543   2.289   3.533
 2780TIP3   OH2 8261   3.991   1.148   3.327
 2780TIP3    H1 8262   3.908   1.114   3.294
 2780TIP3    H2 8263   3.968   1.228   3.373
 2781TIP3   OH2 8264   4.532   1.271   3.527
 2781TIP3    H1 8265   4.601   1.244   3.587
 2781TIP3    H2 8266   4.451   1.254   3.575
 2782TIP3   OH2 8267   4.756   1.690   3.441
 2782TIP3    H1 8268   4.716   1.687   3.529
 2782TIP3    H2 8269   4.739   1.779   3.410
 2783TIP3   OH2 8270   4.439   1.766   1.980
 2783TIP3    H1 8271   4.394   1.775   1.896
 2783TIP3    H2 8272   4.523   1.811   1.967
 2784TIP3   OH2 8273   4.129   1.194   2.291
 2784TIP3    H1 8274   4.099   1.199   2.382
 2784TIP3    H2 8275   4.100   1.108   2.261
 2785TIP3   OH2 8276   3.931   1.682   3.335
 2785TIP3    H1 8277   3.885   1.689   3.418
 2785TIP3    H2 8278   3.909   1.763   3.289
 2786TIP3   OH2 8279   3.810   1.562   2.860
 2786TIP3    H1 8280   3.721   1.538   2.885
 2786TIP3    H2 8281   3.820   1.528   2.770
 2787TIP3   OH2 8282   4.290   1.633   2.582
 2787TIP3    H1 8283   4.243   1.706   2.542
 2787TIP3    H2 8284   4.348   1.601   2.513
 2788TIP3   OH2 8285   4.473   1.902   3.654
 2788TIP3    H1 8286   4.449   1.832   3.715
 2788TIP3    H2 8287   4.565   1.920   3.674
 2789TIP3   OH2 8288   4.459   1.649   2.804
 2789TIP3    H1 8289   4.390   1.669   2.741
 2789TIP3    H2 8290   4.506   1.575   2.766
 2790TIP3   OH2 8291   3.768   1.699   3.555
 2790TIP3    H1 8292   3.770   1.766   3.624
 2790TIP3    H2 8293   3.747   1.618   3.601
 2791TIP3   OH2 8294   3.784   1.157   2.272
 2791TIP3    H1 8295   3.779   1.170   2.367
 2791TIP3    H2 8296   3.704   1.198   2.238
 2792TIP3   OH2 8297   3.360   1.213   3.136
 2792TIP3    H1 8298   3.430   1.251   3.190
 2792TIP3    H2 8299   3.401   1.197   3.052
 2793TIP3   OH2 8300   3.262   1.184   2.644
 2793TIP3    H1 8301   3.309   1.221   2.569
 2793TIP3    H2 8302   3.203   1.253   2.672
 2794TIP3   OH2 8303   4.504   1.901   3.232
 2794TIP3    H1 8304   4.527   1.834   3.168
 2794TIP3    H2 8305   4.457   1.854   3.300
 2795TIP3   OH2 8306   4.177   1.348   2.907
 2795TIP3    H1 8307   4.098   1.347   2.963
 2795TIP3    H2 8308   4.249   1.339   2.969
 2796TIP3   OH2 8309   3.573   1.435   2.918
 2796TIP3    H1 8310   3.485   1.440   2.879
 2796TIP3    H2 8311   3.602   1.345   2.900
 2797TIP3   OH2 8312   3.827   1.433   2.618
 2797TIP3    H1 8313   3.922   1.443   2.608
 2797TIP3    H2 8314   3.792   1.450   2.531
 2798TIP3   OH2 8315   4.619   1.438   3.117
 2798TIP3    H1 8316   4.599   1.456   3.209
 2798TIP3    H2 8317   4.552   1.376   3.089
 2799TIP3   OH2 8318   3.715   1.450   2.371
 2799TIP3    H1 8319   3.647   1.406   2.319
 2799TIP3    H2 8320   3.769   1.495   2.306
 2800TIP3   OH2 8321   4.823   3.127   3.333
 2800TIP3    H1 8322   4.813   3.142   3.239
 2800TIP3    H2 8323   4.901   3.176   3.358
 2801TIP3   OH2 8324   3.763   2.250   3.753
 2801TIP3    H1 8325   3.844   2.269   3.800
 2801TIP3    H2 8326   3.695   2.255   3.820
 2802TIP3   OH2 8327   4.224   1.723   3.012
 2802TIP3    H1 8328   4.289   1.674   2.963
 2802TIP3    H2 8329   4.222   1.681   3.098
 2803TIP3   OH2 8330   3.713   1.186   2.899
 2803TIP3    H1 8331   3.685   1.110   2.951
 2803TIP3    H2 8332   3.737   1.150   2.814
 2804TIP3   OH2 8333   4.195   1.622   3.276
 2804TIP3    H1 8334   4.108   1.654   3.300
 2804TIP3    H2 8335   4.256   1.674   3.329
 2805TIP3   OH2 8336   3.936   1.980   2.397
 2805TIP3    H1 8337   3.865   1.920   2.377
 2805TIP3    H2 8338   3.909   2.022   2.479
 2806TIP3   OH2 8339   4.817   2.231   2.995
 2806TIP3    H1 8340   4.853   2.280   2.921
 2806TIP3    H2 8341   4.738   2.189   2.960
 2807TIP3   OH2 8342   4.387   1.293   2.304
 2807TIP3    H1 8343   4.294   1.275   2.295
 2807TIP3    H2 8344   4.393   1.388   2.313
 2808TIP3   OH2 8345   4.344   2.308   3.405
 2808TIP3    H1 8346   4.388   2.303   3.490
 2808TIP3    H2 8347   4.297   2.391   3.408
 2809TIP3   OH2 8348   4.453   1.558   2.365
 2809TIP3    H1 8349   4.549   1.560   2.375
 2809TIP3    H2 8350   4.433   1.636   2.314
 2810TIP3   OH2 8351   3.618   1.994   3.040
 2810TIP3    H1 8352   3.656   1.975   2.954
 2810TIP3    H2 8353   3.684   1.964   3.102
 2811TIP3   OH2 8354   4.083   2.140   2.234
 2811TIP3    H1 8355   4.035   2.222   2.232
 2811TIP3    H2 8356   4.029   2.082   2.288
 2812TIP3   OH2 8357   3.500   1.915   3.671
 2812TIP3    H1 8358   3.496   1.884   3.761
 2812TIP3    H2 8359   3.423   1.876   3.629
 2813TIP3   OH2 8360   4.243   2.053   3.716
 2813TIP3    H1 8361   4.172   1.997   3.683
 2813TIP3    H2 8362   4.323   2.014   3.681
 2814TIP3   OH2 8363   4.483   2.600   3.302
 2814TIP3    H1 8364   4.390   2.580   3.298
 2814TIP3    H2 8365   4.492   2.659   3.377
 2815TIP3   OH2 8366   4.868   1.648   2.185
 2815TIP3    H1 8367   4.809   1.604   2.124
 2815TIP3    H2 8368   4.877   1.737   2.150
 2816TIP3   OH2 8369   5.120   2.530   3.258
 2816TIP3    H1 8370   5.030   2.499   3.252
 2816TIP3    H2 8371   5.162   2.500   3.177
 2817TIP3   OH2 8372   4.610   2.462   2.119
 2817TIP3    H1 8373   4.582   2.393   2.179
 2817TIP3    H2 8374   4.629   2.417   2.037
 2818TIP3   OH2 8375   4.590   2.095   2.894
 2818TIP3    H1 8376   4.500   2.072   2.916
 2818TIP3    H2 8377   4.626   2.015   2.855
 2819TIP3   OH2 8378   3.744   2.335   2.711
 2819TIP3    H1 8379   3.743   2.411   2.654
 2819TIP3    H2 8380   3.652   2.324   2.738
 2820TIP3   OH2 8381   3.304   1.616   2.425
 2820TIP3    H1 8382   3.343   1.702   2.437
 2820TIP3    H2 8383   3.218   1.621   2.466
 2821TIP3   OH2 8384   3.834   2.091   2.621
 2821TIP3    H1 8385   3.814   2.179   2.650
 2821TIP3    H2 8386   3.805   2.035   2.693
 2822TIP3   OH2 8387   4.024   2.652   3.170
 2822TIP3    H1 8388   4.056   2.732   3.128
 2822TIP3    H2 8389   4.098   2.619   3.220
 2823TIP3   OH2 8390   3.663   2.558   2.561
 2823TIP3    H1 8391   3.575   2.565   2.599
 2823TIP3    H2 8392   3.699   2.647   2.567
 2824TIP3   OH2 8393   4.377   2.317   3.131
 2824TIP3    H1 8394   4.368   2.308   3.226
 2824TIP3    H2 8395   4.440   2.250   3.106
 2825TIP3   OH2 8396   4.373   2.197   2.003
 2825TIP3    H1 8397   4.424   2.169   2.079
 2825TIP3    H2 8398   4.289   2.153   2.012
 2826TIP3   OH2 8399   4.641   2.813   3.186
 2826TIP3    H1 8400   4.564   2.756   3.195
 2826TIP3    H2 8401   4.618   2.872   3.114
 2827TIP3   OH2 8402   4.682   2.662   1.808
 2827TIP3    H1 8403   4.694   2.719   1.732
 2827TIP3    H2 8404   4.614   2.705   1.860
 2828TIP3   OH2 8405   3.710   1.445   3.672
 2828TIP3    H1 8406   3.615   1.457   3.675
 2828TIP3    H2 8407   3.730   1.391   3.748
 2829TIP3   OH2 8408   4.548   2.110   2.195
 2829TIP3    H1 8409   4.533   2.058   2.274
 2829TIP3    H2 8410   4.643   2.118   2.189
 2830TIP3   OH2 8411   3.482   2.520   3.306
 2830TIP3    H1 8412   3.502   2.461   3.378
 2830TIP3    H2 8413   3.559   2.577   3.300
 2831TIP3   OH2 8414   3.727   2.164   2.031
 2831TIP3    H1 8415   3.739   2.072   2.009
 2831TIP3    H2 8416   3.707   2.164   2.125
 2832TIP3   OH2 8417   3.664   2.189   2.300
 2832TIP3    H1 8418   3.728   2.160   2.365
 2832TIP3    H2 8419   3.666   2.284   2.305
 2833TIP3   OH2 8420   3.402   1.871   2.496
 2833TIP3    H1 8421   3.339   1.920   2.550
 2833TIP3    H2 8422   3.418   1.928   2.421
 2834TIP3   OH2 8423   4.560   1.502   3.379
 2834TIP3    H1 8424   4.640   1.545   3.409
 2834TIP3    H2 8425   4.552   1.424   3.434
 2835TIP3   OH2 8426   4.453   1.243   2.569
 2835TIP3    H1 8427   4.431   1.261   2.478
 2835TIP3    H2 8428   4.498   1.322   2.598
 2836TIP3   OH2 8429   3.938   2.368   2.231
 2836TIP3    H1 8430   3.853   2.393   2.268
 2836TIP3    H2 8431   3.962   2.442   2.175
 2837TIP3   OH2 8432   4.106   1.441   2.655
 2837TIP3    H1 8433   4.167   1.509   2.628
 2837TIP3    H2 8434   4.130   1.421   2.745
 2838TIP3   OH2 8435   4.401   1.737   3.427
 2838TIP3    H1 8436   4.426   1.779   3.509
 2838TIP3    H2 8437   4.451   1.655   3.425
 2839TIP3   OH2 8438   4.266   1.138   2.742
 2839TIP3    H1 8439   4.242   1.215   2.793
 2839TIP3    H2 8440   4.336   1.168   2.684
 2840TIP3   OH2 8441   3.690   2.460   2.307
 2840TIP3    H1 8442   3.670   2.532   2.248
 2840TIP3    H2 8443   3.679   2.497   2.395
 2841TIP3   OH2 8444   3.777   1.161   2.554
 2841TIP3    H1 8445   3.768   1.252   2.582
 2841TIP3    H2 8446   3.871   1.145   2.555
 2842TIP3   OH2 8447   5.020   1.636   3.423
 2842TIP3    H1 8448   4.926   1.645   3.434
 2842TIP3    H2 8449   5.031   1.578   3.347
 2843TIP3   OH2 8450   4.683   1.838   2.806
 2843TIP3    H1 8451   4.607   1.780   2.815
 2843TIP3    H2 8452   4.750   1.797   2.861
 2844TIP3   OH2 8453   3.413   2.067   2.286
 2844TIP3    H1 8454   3.487   2.128   2.296
 2844TIP3    H2 8455   3.448   1.997   2.231
 2845TIP3   OH2 8456   3.343   1.336   2.435
 2845TIP3    H1 8457   3.343   1.425   2.473
 2845TIP3    H2 8458   3.344   1.350   2.341
 2846TIP3   OH2 8459   4.662   2.813   2.748
 2846TIP3    H1 8460   4.618   2.864   2.680
 2846TIP3    H2 8461   4.755   2.826   2.732
 2847TIP3   OH2 8462   3.730   1.061   3.284
 2847TIP3    H1 8463   3.701   1.029   3.198
 2847TIP3    H2 8464   3.720   0.986   3.342
 2848TIP3   OH2 8465   3.258   2.313   2.681
 2848TIP3    H1 8466   3.214   2.349   2.758
 2848TIP3    H2 8467   3.214   2.355   2.607
 2849TIP3   OH2 8468   3.895   2.807   3.773
 2849TIP3    H1 8469   3.989   2.825   3.773
 2849TIP3    H2 8470   3.882   2.748   3.699
 2850TIP3   OH2 8471   3.881   2.359   1.912
 2850TIP3    H1 8472   3.835   2.291   1.960
 2850TIP3    H2 8473   3.956   2.315   1.873
 2851TIP3   OH2 8474   4.631   2.690   3.538
 2851TIP3    H1 8475   4.585   2.650   3.612
 2851TIP3    H2 8476   4.660   2.616   3.485
 2852TIP3   OH2 8477   4.323   2.406   1.833
 2852TIP3    H1 8478   4.356   2.341   1.895
 2852TIP3    H2 8479   4.382   2.400   1.758
 2853TIP3   OH2 8480   3.557   2.248   3.941
 2853TIP3    H1 8481   3.579   2.156   3.955
 2853TIP3    H2 8482   3.471   2.246   3.898
 2854TIP3   OH2 8483   3.562   1.874   2.172
 2854TIP3    H1 8484   3.621   1.846   2.242
 2854TIP3    H2 8485   3.617   1.875   2.093
 2855TIP3   OH2 8486   4.183   2.334   3.718
 2855TIP3    H1 8487   4.134   2.354   3.638
 2855TIP3    H2 8488   4.213   2.244   3.707
 2856TIP3   OH2 8489   4.118   2.079   1.969
 2856TIP3    H1 8490   4.095   2.091   2.061
 2856TIP3    H2 8491   4.100   1.987   1.952
 2857TIP3   OH2 8492   4.665   2.394   3.349
 2857TIP3    H1 8493   4.734   2.407   3.284
 2857TIP3    H2 8494   4.592   2.447   3.318
 2858TIP3   OH2 8495   3.681   1.999   3.954
 2858TIP3    H1 8496   3.753   1.977   3.895
 2858TIP3    H2 8497   3.723   2.020   4.038
 2859TIP3   OH2 8498   3.742   1.791   2.365
 2859TIP3    H1 8499   3.711   1.760   2.450
 2859TIP3    H2 8500   3.784   1.715   2.325
 2860TIP3   OH2 8501   4.038   1.887   3.608
 2860TIP3    H1 8502   3.950   1.922   3.616
 2860TIP3    H2 8503   4.068   1.916   3.522
 2861TIP3   OH2 8504   3.873   1.603   2.206
 2861TIP3    H1 8505   3.842   1.618   2.117
 2861TIP3    H2 8506   3.968   1.612   2.202
 2862TIP3   OH2 8507   4.544   2.261   3.688
 2862TIP3    H1 8508   4.611   2.217   3.636
 2862TIP3    H2 8509   4.533   2.204   3.765
 2863TIP3   OH2 8510   4.656   1.902   1.872
 2863TIP3    H1 8511   4.645   1.861   1.786
 2863TIP3    H2 8512   4.631   1.993   1.858
 2864TIP3   OH2 8513   4.137   1.651   3.709
 2864TIP3    H1 8514   4.138   1.581   3.644
 2864TIP3    H2 8515   4.103   1.727   3.662
 2865TIP3   OH2 8516   4.144   1.452   3.506
 2865TIP3    H1 8517   4.172   1.487   3.422
 2865TIP3    H2 8518   4.054   1.424   3.492
 2866TIP3   OH2 8519   4.146   1.985   3.379
 2866TIP3    H1 8520   4.234   2.019   3.364
 2866TIP3    H2 8521   4.089   2.042   3.328
 2867TIP3   OH2 8522   4.741   1.936   3.751
 2867TIP3    H1 8523   4.770   1.844   3.755
 2867TIP3    H2 8524   4.820   1.985   3.728
 2868TIP3   OH2 8525   4.774   2.198   3.502
 2868TIP3    H1 8526   4.723   2.264   3.455
 2868TIP3    H2 8527   4.863   2.209   3.470
 2869TIP3   OH2 8528   4.026   1.731   3.960
 2869TIP3    H1 8529   3.954   1.670   3.976
 2869TIP3    H2 8530   4.048   1.716   3.868
 2870TIP3   OH2 8531   4.267   1.221   3.609
 2870TIP3    H1 8532   4.227   1.301   3.576
 2870TIP3    H2 8533   4.201   1.153   3.595
 2871TIP3   OH2 8534   4.396   1.686   3.804
 2871TIP3    H1 8535   4.384   1.670   3.897
 2871TIP3    H2 8536   4.310   1.667   3.765
 2872TIP3   OH2 8537   4.646   1.654   3.684
 2872TIP3    H1 8538   4.565   1.647   3.735
 2872TIP3    H2 8539   4.714   1.620   3.742
 2873TIP3   OH2 8540   4.875   1.603   3.833
 2873TIP3    H1 8541   4.890   1.509   3.840
 2873TIP3    H2 8542   4.872   1.635   3.923
 2874TIP3   OH2 8543   3.857   1.510   4.015
 2874TIP3    H1 8544   3.861   1.423   3.976
 2874TIP3    H2 8545   3.895   1.498   4.102
 2875TIP3   OH2 8546   4.333   1.192   3.874
 2875TIP3    H1 8547   4.401   1.125   3.866
 2875TIP3    H2 8548   4.302   1.206   3.785
 2876TIP3   OH2 8549   4.438   1.403   4.016
 2876TIP3    H1 8550   4.410   1.328   3.963
 2876TIP3    H2 8551   4.366   1.466   4.008
 2877TIP3   OH2 8552   3.686   2.666   2.123
 2877TIP3    H1 8553   3.775   2.643   2.095
 2877TIP3    H2 8554   3.648   2.713   2.049
 2878TIP3   OH2 8555   3.145   2.049   2.329
 2878TIP3    H1 8556   3.236   2.074   2.316
 2878TIP3    H2 8557   3.136   1.965   2.284
 2879TIP3   OH2 8558   3.052   2.622   2.762
 2879TIP3    H1 8559   2.986   2.572   2.715
 2879TIP3    H2 8560   3.095   2.559   2.820
 2880TIP3   OH2 8561   3.193   2.448   2.926
 2880TIP3    H1 8562   3.183   2.382   2.994
 2880TIP3    H2 8563   3.249   2.515   2.966
 2881TIP3   OH2 8564   4.933   2.863   2.739
 2881TIP3    H1 8565   4.950   2.896   2.827
 2881TIP3    H2 8566   4.986   2.918   2.682
 2882TIP3   OH2 8567   4.942   2.899   3.022
 2882TIP3    H1 8568   4.899   2.813   3.015
 2882TIP3    H2 8569   5.011   2.886   3.086
 2883TIP3   OH2 8570   4.828   2.112   2.198
 2883TIP3    H1 8571   4.885   2.183   2.169
 2883TIP3    H2 8572   4.873   2.074   2.274
 2884TIP3   OH2 8573   4.955   1.968   2.400
 2884TIP3    H1 8574   4.887   1.930   2.456
 2884TIP3    H2 8575   5.019   2.003   2.462
 2885TIP3   OH2 8576   5.005   2.371   2.839
 2885TIP3    H1 8577   5.055   2.303   2.793
 2885TIP3    H2 8578   5.005   2.445   2.778
 2886TIP3   OH2 8579   4.811   2.651   3.034
 2886TIP3    H1 8580   4.743   2.699   3.083
 2886TIP3    H2 8581   4.764   2.614   2.959
 2887TIP3   OH2 8582   4.867   1.886   2.047
 2887TIP3    H1 8583   4.795   1.884   1.983
 2887TIP3    H2 8584   4.850   1.965   2.099
 2888TIP3   OH2 8585   4.708   1.541   1.993
 2888TIP3    H1 8586   4.663   1.570   1.913
 2888TIP3    H2 8587   4.705   1.446   1.988
 2889TIP3   OH2 8588   4.752   1.829   2.536
 2889TIP3    H1 8589   4.756   1.735   2.521
 2889TIP3    H2 8590   4.734   1.837   2.630
 2890TIP3   OH2 8591   3.370   1.889   3.310
 2890TIP3    H1 8592   3.360   1.859   3.219
 2890TIP3    H2 8593   3.464   1.885   3.326
 2891TIP3   OH2 8594   5.026   2.249   3.396
 2891TIP3    H1 8595   5.093   2.182   3.387
 2891TIP3    H2 8596   5.015   2.284   3.307
 2892TIP3   OH2 8597   5.206   2.038   3.395
 2892TIP3    H1 8598   5.132   1.994   3.438
 2892TIP3    H2 8599   5.281   1.983   3.415
 2893TIP3   OH2 8600   4.679   1.272   1.969
 2893TIP3    H1 8601   4.747   1.238   2.028
 2893TIP3    H2 8602   4.599   1.226   1.996
 2894TIP3   OH2 8603   4.745   1.553   2.423
 2894TIP3    H1 8604   4.791   1.470   2.436
 2894TIP3    H2 8605   4.786   1.592   2.346
 2895TIP3   OH2 8606   4.899   1.717   2.947
 2895TIP3    H1 8607   4.979   1.734   2.898
 2895TIP3    H2 8608   4.915   1.756   3.033
 2896TIP3   OH2 8609   4.973   1.867   3.175
 2896TIP3    H1 8610   4.899   1.895   3.229
 2896TIP3    H2 8611   5.004   1.947   3.132
 2897TIP3   OH2 8612   3.594   1.569   3.954
 2897TIP3    H1 8613   3.688   1.563   3.972
 2897TIP3    H2 8614   3.558   1.489   3.992
 2898TIP3   OH2 8615   5.430   1.467   3.712
 2898TIP3    H1 8616   5.496   1.411   3.671
 2898TIP3    H2 8617   5.393   1.518   3.639
 2899TIP3   OH2 8618   4.861   1.305   2.477
 2899TIP3    H1 8619   4.906   1.289   2.559
 2899TIP3    H2 8620   4.799   1.232   2.469
 2900TIP3   OH2 8621   3.570   1.287   3.304
 2900TIP3    H1 8622   3.623   1.208   3.308
 2900TIP3    H2 8623   3.632   1.357   3.285
 2901TIP3   OH2 8624   3.345   1.548   3.363
 2901TIP3    H1 8625   3.399   1.541   3.284
 2901TIP3    H2 8626   3.358   1.637   3.394
 2902TIP3   OH2 8627   5.282   1.581   3.511
 2902TIP3    H1 8628   5.196   1.620   3.527
 2902TIP3    H2 8629   5.264   1.502   3.459
 2903TIP3   OH2 8630   4.909   1.213   2.115
 2903TIP3    H1 8631   4.958   1.153   2.059
 2903TIP3    H2 8632   4.963   1.292   2.118
 2904TIP3   OH2 8633   3.338   1.055   2.871
 2904TIP3    H1 8634   3.253   1.045   2.914
 2904TIP3    H2 8635   3.319   1.110   2.794
 2905TIP3   OH2 8636   4.492   2.779   2.381
 2905TIP3    H1 8637   4.549   2.769   2.305
 2905TIP3    H2 8638   4.532   2.850   2.431
 2906TIP3   OH2 8639   3.563   1.112   3.689
 2906TIP3    H1 8640   3.513   1.111   3.771
 2906TIP3    H2 8641   3.508   1.163   3.629
 2907TIP3   OH2 8642   3.518   2.667   3.692
 2907TIP3    H1 8643   3.495   2.578   3.719
 2907TIP3    H2 8644   3.563   2.704   3.767
 2908TIP3   OH2 8645   3.781   2.621   3.298
 2908TIP3    H1 8646   3.733   2.699   3.269
 2908TIP3    H2 8647   3.868   2.631   3.260
 2909TIP3   OH2 8648   4.232   2.827   3.453
 2909TIP3    H1 8649   4.144   2.865   3.459
 2909TIP3    H2 8650   4.283   2.892   3.405
 2910TIP3   OH2 8651   4.391   3.014   3.328
 2910TIP3    H1 8652   4.446   2.986   3.254
 2910TIP3    H2 8653   4.450   3.065   3.383
 2911TIP3   OH2 8654   5.195   1.336   3.407
 2911TIP3    H1 8655   5.110   1.330   3.365
 2911TIP3    H2 8656   5.231   1.247   3.401
 2912TIP3   OH2 8657   3.427   2.834   3.395
 2912TIP3    H1 8658   3.342   2.861   3.358
 2912TIP3    H2 8659   3.489   2.845   3.323
 2913TIP3   OH2 8660   3.644   2.844   3.217
 2913TIP3    H1 8661   3.697   2.915   3.253
 2913TIP3    H2 8662   3.635   2.866   3.124
 2914TIP3   OH2 8663   4.101   2.875   3.025
 2914TIP3    H1 8664   4.035   2.893   2.957
 2914TIP3    H2 8665   4.103   2.955   3.078
 2915TIP3   OH2 8666   4.366   2.802   3.061
 2915TIP3    H1 8667   4.275   2.827   3.046
 2915TIP3    H2 8668   4.417   2.866   3.011
 2916TIP3   OH2 8669   4.574   2.967   2.960
 2916TIP3    H1 8670   4.569   3.055   2.924
 2916TIP3    H2 8671   4.601   2.912   2.887
 2917TIP3   OH2 8672   3.362   2.628   3.073
 2917TIP3    H1 8673   3.392   2.604   3.161
 2917TIP3    H2 8674   3.435   2.603   3.016
 2918TIP3   OH2 8675   3.573   2.525   2.936
 2918TIP3    H1 8676   3.586   2.442   2.981
 2918TIP3    H2 8677   3.659   2.567   2.938
 2919TIP3   OH2 8678   3.843   2.606   2.960
 2919TIP3    H1 8679   3.861   2.513   2.946
 2919TIP3    H2 8680   3.900   2.631   3.033
 2920TIP3   OH2 8681   4.404   1.257   3.048
 2920TIP3    H1 8682   4.365   1.185   3.097
 2920TIP3    H2 8683   4.472   1.215   2.994
 2921TIP3   OH2 8684   4.903   1.183   2.943
 2921TIP3    H1 8685   4.939   1.229   2.867
 2921TIP3    H2 8686   4.808   1.197   2.937
 2922TIP3   OH2 8687   5.015   1.249   2.701
 2922TIP3    H1 8688   5.082   1.187   2.672
 2922TIP3    H2 8689   5.055   1.335   2.688
 2923TIP3   OH2 8690   3.641   0.959   3.042
 2923TIP3    H1 8691   3.552   0.925   3.052
 2923TIP3    H2 8692   3.695   0.881   3.035
 2924TIP3   OH2 8693   3.441   0.861   2.692
 2924TIP3    H1 8694   3.480   0.910   2.620
 2924TIP3    H2 8695   3.416   0.928   2.756
 2925TIP3   OH2 8696   4.120   1.000   2.942
 2925TIP3    H1 8697   4.169   1.044   2.872
 2925TIP3    H2 8698   4.163   1.028   3.023
 2926TIP3   OH2 8699   4.618   1.140   2.915
 2926TIP3    H1 8700   4.632   1.105   2.827
 2926TIP3    H2 8701   4.623   1.063   2.972
 2927TIP3   OH2 8702   4.675   1.095   2.484
 2927TIP3    H1 8703   4.595   1.141   2.509
 2927TIP3    H2 8704   4.666   1.009   2.524
 2928TIP3   OH2 8705   3.140   2.432   2.465
 2928TIP3    H1 8706   3.056   2.394   2.438
 2928TIP3    H2 8707   3.139   2.521   2.429
 2929TIP3   OH2 8708   3.568   0.988   2.468
 2929TIP3    H1 8709   3.614   0.926   2.411
 2929TIP3    H2 8710   3.638   1.045   2.502
 2930TIP3   OH2 8711   4.053   1.191   2.556
 2930TIP3    H1 8712   4.111   1.135   2.609
 2930TIP3    H2 8713   4.071   1.280   2.587
 2931TIP3   OH2 8714   3.939   2.587   2.052
 2931TIP3    H1 8715   4.023   2.614   2.014
 2931TIP3    H2 8716   3.911   2.514   1.997
 2932TIP3   OH2 8717   4.644   2.731   2.153
 2932TIP3    H1 8718   4.637   2.636   2.146
 2932TIP3    H2 8719   4.600   2.764   2.075
 2933TIP3   OH2 8720   3.871   1.239   3.929
 2933TIP3    H1 8721   3.835   1.171   3.987
 2933TIP3    H2 8722   3.963   1.245   3.954
 2934TIP3   OH2 8723   4.119   1.244   4.054
 2934TIP3    H1 8724   4.195   1.223   4.000
 2934TIP3    H2 8725   4.112   1.171   4.116
 2935TIP3   OH2 8726   3.247   2.438   2.119
 2935TIP3    H1 8727   3.243   2.444   2.214
 2935TIP3    H2 8728   3.330   2.394   2.101
 2936TIP3   OH2 8729   4.939   1.334   3.837
 2936TIP3    H1 8730   4.957   1.304   3.926
 2936TIP3    H2 8731   5.024   1.331   3.792
 2937TIP3   OH2 8732   4.821   2.866   3.423
 2937TIP3    H1 8733   4.767   2.829   3.353
 2937TIP3    H2 8734   4.835   2.957   3.397
 2938TIP3   OH2 8735   6.136   2.260   2.080
 2938TIP3    H1 8736   6.102   2.346   2.053
 2938TIP3    H2 8737   6.066   2.199   2.056
 2939TIP3   OH2 8738   6.138   2.248   2.505
 2939TIP3    H1 8739   6.190   2.229   2.583
 2939TIP3    H2 8740   6.092   2.167   2.485
 2940TIP3   OH2 8741   5.431   2.108   2.853
 2940TIP3    H1 8742   5.471   2.055   2.922
 2940TIP3    H2 8743   5.504   2.131   2.795
 2941TIP3   OH2 8744   6.433   2.548   2.178
 2941TIP3    H1 8745   6.403   2.485   2.244
 2941TIP3    H2 8746   6.436   2.632   2.224
 2942TIP3   OH2 8747   5.427   2.541   2.539
 2942TIP3    H1 8748   5.408   2.448   2.544
 2942TIP3    H2 8749   5.522   2.547   2.527
 2943TIP3   OH2 8750   5.107   1.742   2.321
 2943TIP3    H1 8751   5.067   1.826   2.344
 2943TIP3    H2 8752   5.035   1.692   2.280
 2944TIP3   OH2 8753   5.183   2.049   2.546
 2944TIP3    H1 8754   5.233   1.970   2.569
 2944TIP3    H2 8755   5.248   2.110   2.513
 2945TIP3   OH2 8756   6.057   2.987   2.186
 2945TIP3    H1 8757   6.084   2.923   2.120
 2945TIP3    H2 8758   6.052   2.937   2.267
 2946TIP3   OH2 8759   5.939   2.469   2.506
 2946TIP3    H1 8760   5.983   2.390   2.476
 2946TIP3    H2 8761   6.009   2.525   2.541
 2947TIP3   OH2 8762   6.974   1.783   2.525
 2947TIP3    H1 8763   6.991   1.867   2.568
 2947TIP3    H2 8764   7.014   1.792   2.438
 2948TIP3   OH2 8765   6.352   1.959   2.543
 2948TIP3    H1 8766   6.383   1.872   2.571
 2948TIP3    H2 8767   6.311   1.944   2.459
 2949TIP3   OH2 8768   5.703   1.616   2.505
 2949TIP3    H1 8769   5.683   1.687   2.444
 2949TIP3    H2 8770   5.651   1.542   2.473
 2950TIP3   OH2 8771   6.398   1.721   2.145
 2950TIP3    H1 8772   6.463   1.715   2.215
 2950TIP3    H2 8773   6.447   1.752   2.069
 2951TIP3   OH2 8774   5.326   1.827   2.631
 2951TIP3    H1 8775   5.410   1.809   2.674
 2951TIP3    H2 8776   5.330   1.777   2.550
 2952TIP3   OH2 8777   5.744   2.030   2.453
 2952TIP3    H1 8778   5.838   2.016   2.457
 2952TIP3    H2 8779   5.709   1.948   2.417
 2953TIP3   OH2 8780   7.023   2.015   2.675
 2953TIP3    H1 8781   6.931   2.037   2.686
 2953TIP3    H2 8782   7.066   2.050   2.754
 2954TIP3   OH2 8783   5.683   1.620   2.955
 2954TIP3    H1 8784   5.633   1.653   2.880
 2954TIP3    H2 8785   5.627   1.636   3.031
 2955TIP3   OH2 8786   6.030   2.476   1.945
 2955TIP3    H1 8787   5.988   2.446   1.864
 2955TIP3    H2 8788   5.978   2.552   1.972
 2956TIP3   OH2 8789   5.774   2.395   2.717
 2956TIP3    H1 8790   5.722   2.467   2.752
 2956TIP3    H2 8791   5.823   2.433   2.644
 2957TIP3   OH2 8792   6.560   1.748   2.363
 2957TIP3    H1 8793   6.519   1.722   2.446
 2957TIP3    H2 8794   6.615   1.823   2.386
 2958TIP3   OH2 8795   5.573   1.726   2.724
 2958TIP3    H1 8796   5.629   1.800   2.746
 2958TIP3    H2 8797   5.618   1.682   2.652
 2959TIP3   OH2 8798   5.623   2.600   2.825
 2959TIP3    H1 8799   5.608   2.689   2.793
 2959TIP3    H2 8800   5.546   2.580   2.879
 2960TIP3   OH2 8801   4.998   2.303   2.081
 2960TIP3    H1 8802   4.964   2.319   1.993
 2960TIP3    H2 8803   5.021   2.389   2.115
 2961TIP3   OH2 8804   6.441   2.799   2.311
 2961TIP3    H1 8805   6.356   2.791   2.356
 2961TIP3    H2 8806   6.436   2.883   2.266
 2962TIP3   OH2 8807   6.763   1.683   2.690
 2962TIP3    H1 8808   6.678   1.697   2.648
 2962TIP3    H2 8809   6.827   1.706   2.623
 2963TIP3   OH2 8810   6.028   1.312   2.688
 2963TIP3    H1 8811   6.018   1.219   2.707
 2963TIP3    H2 8812   5.950   1.353   2.725
 2964TIP3   OH2 8813   6.146   2.835   1.970
 2964TIP3    H1 8814   6.200   2.756   1.963
 2964TIP3    H2 8815   6.203   2.906   1.941
 2965TIP3   OH2 8816   6.301   2.614   1.939
 2965TIP3    H1 8817   6.244   2.540   1.917
 2965TIP3    H2 8818   6.351   2.583   2.014
 2966TIP3   OH2 8819   6.667   2.690   2.656
 2966TIP3    H1 8820   6.655   2.614   2.599
 2966TIP3    H2 8821   6.651   2.765   2.600
 2967TIP3   OH2 8822   5.959   2.098   1.936
 2967TIP3    H1 8823   5.876   2.140   1.916
 2967TIP3    H2 8824   6.004   2.092   1.852
 2968TIP3   OH2 8825   5.934   1.900   1.619
 2968TIP3    H1 8826   5.998   1.949   1.671
 2968TIP3    H2 8827   5.987   1.837   1.569
 2969TIP3   OH2 8828   6.860   2.339   2.537
 2969TIP3    H1 8829   6.781   2.387   2.515
 2969TIP3    H2 8830   6.872   2.278   2.464
 2970TIP3   OH2 8831   6.319   2.195   1.889
 2970TIP3    H1 8832   6.263   2.220   1.963
 2970TIP3    H2 8833   6.397   2.158   1.930
 2971TIP3   OH2 8834   6.546   2.212   2.845
 2971TIP3    H1 8835   6.544   2.296   2.890
 2971TIP3    H2 8836   6.464   2.209   2.796
 2972TIP3   OH2 8837   5.544   2.162   2.300
 2972TIP3    H1 8838   5.508   2.102   2.234
 2972TIP3    H2 8839   5.617   2.113   2.339
 2973TIP3   OH2 8840   5.687   2.589   2.438
 2973TIP3    H1 8841   5.661   2.575   2.347
 2973TIP3    H2 8842   5.773   2.549   2.445
 2974TIP3   OH2 8843   5.642   2.158   2.675
 2974TIP3    H1 8844   5.680   2.120   2.596
 2974TIP3    H2 8845   5.691   2.239   2.690
 2975TIP3   OH2 8846   6.212   2.792   2.456
 2975TIP3    H1 8847   6.192   2.874   2.502
 2975TIP3    H2 8848   6.191   2.724   2.519
 2976TIP3   OH2 8849   5.819   2.697   2.996
 2976TIP3    H1 8850   5.758   2.753   3.043
 2976TIP3    H2 8851   5.765   2.647   2.936
 2977TIP3   OH2 8852   6.148   2.048   1.731
 2977TIP3    H1 8853   6.206   2.106   1.779
 2977TIP3    H2 8854   6.173   2.058   1.639
 2978TIP3   OH2 8855   5.571   2.241   3.148
 2978TIP3    H1 8856   5.573   2.336   3.165
 2978TIP3    H2 8857   5.478   2.221   3.137
 2979TIP3   OH2 8858   5.896   2.718   1.984
 2979TIP3    H1 8859   5.980   2.765   1.985
 2979TIP3    H2 8860   5.838   2.773   1.932
 2980TIP3   OH2 8861   5.605   2.852   3.082
 2980TIP3    H1 8862   5.584   2.864   2.989
 2980TIP3    H2 8863   5.520   2.840   3.124
 2981TIP3   OH2 8864   6.657   1.266   1.790
 2981TIP3    H1 8865   6.579   1.287   1.842
 2981TIP3    H2 8866   6.669   1.342   1.733
 2982TIP3   OH2 8867   5.421   2.005   2.099
 2982TIP3    H1 8868   5.343   2.051   2.068
 2982TIP3    H2 8869   5.394   1.914   2.109
 2983TIP3   OH2 8870   6.462   2.654   1.336
 2983TIP3    H1 8871   6.467   2.747   1.312
 2983TIP3    H2 8872   6.553   2.624   1.336
 2984TIP3   OH2 8873   5.209   2.412   3.030
 2984TIP3    H1 8874   5.140   2.394   2.966
 2984TIP3    H2 8875   5.242   2.325   3.054
 2985TIP3   OH2 8876   5.043   2.609   2.689
 2985TIP3    H1 8877   5.134   2.634   2.704
 2985TIP3    H2 8878   4.992   2.686   2.713
 2986TIP3   OH2 8879   6.900   3.047   2.731
 2986TIP3    H1 8880   6.904   2.953   2.746
 2986TIP3    H2 8881   6.821   3.075   2.779
 2987TIP3   OH2 8882   6.009   2.842   2.858
 2987TIP3    H1 8883   6.000   2.933   2.887
 2987TIP3    H2 8884   5.942   2.794   2.907
 2988TIP3   OH2 8885   5.792   2.939   1.807
 2988TIP3    H1 8886   5.746   2.916   1.726
 2988TIP3    H2 8887   5.751   3.020   1.836
 2989TIP3   OH2 8888   5.223   2.795   2.188
 2989TIP3    H1 8889   5.267   2.786   2.272
 2989TIP3    H2 8890   5.173   2.714   2.178
 2990TIP3   OH2 8891   5.990   2.869   1.430
 2990TIP3    H1 8892   6.043   2.798   1.393
 2990TIP3    H2 8893   6.025   2.883   1.518
 2991TIP3   OH2 8894   6.045   2.914   1.700
 2991TIP3    H1 8895   5.959   2.918   1.741
 2991TIP3    H2 8896   6.102   2.875   1.767
 2992TIP3   OH2 8897   6.796   2.160   2.997
 2992TIP3    H1 8898   6.710   2.171   2.956
 2992TIP3    H2 8899   6.813   2.066   2.992
 2993TIP3   OH2 8900   5.410   2.598   3.001
 2993TIP3    H1 8901   5.457   2.584   3.082
 2993TIP3    H2 8902   5.337   2.535   3.004
 2994TIP3   OH2 8903   5.788   1.402   2.812
 2994TIP3    H1 8904   5.705   1.368   2.778
 2994TIP3    H2 8905   5.764   1.483   2.858
 2995TIP3   OH2 8906   6.328   1.527   3.012
 2995TIP3    H1 8907   6.397   1.502   3.073
 2995TIP3    H2 8908   6.247   1.510   3.059
 2996TIP3   OH2 8909   6.551   1.948   2.936
 2996TIP3    H1 8910   6.511   1.942   3.022
 2996TIP3    H2 8911   6.532   2.038   2.907
 2997TIP3   OH2 8912   6.226   2.065   1.474
 2997TIP3    H1 8913   6.177   2.043   1.395
 2997TIP3    H2 8914   6.312   2.094   1.443
 2998TIP3   OH2 8915   5.934   1.461   1.761
 2998TIP3    H1 8916   5.889   1.476   1.844
 2998TIP3    H2 8917   5.904   1.375   1.732
 2999TIP3   OH2 8918   5.726   1.936   2.821
 2999TIP3    H1 8919   5.681   1.943   2.905
 2999TIP3    H2 8920   5.704   2.017   2.776
 3000TIP3   OH2 8921   5.608   1.815   2.341
 3000TIP3    H1 8922   5.519   1.789   2.363
 3000TIP3    H2 8923   5.621   1.784   2.251
 3001TIP3   OH2 8924   6.085   1.894   2.072
 3001TIP3    H1 8925   6.035   1.964   2.032
 3001TIP3    H2 8926   6.140   1.860   2.002
 3002TIP3   OH2 8927   6.272   2.156   3.142
 3002TIP3    H1 8928   6.245   2.088   3.204
 3002TIP3    H2 8929   6.364   2.172   3.163
 3003TIP3   OH2 8930   6.254   1.908   2.292
 3003TIP3    H1 8931   6.185   1.928   2.229
 3003TIP3    H2 8932   6.300   1.833   2.255
 3004TIP3   OH2 8933   5.566   1.951   3.044
 3004TIP3    H1 8934   5.582   2.013   3.116
 3004TIP3    H2 8935   5.547   1.868   3.088
 3005TIP3   OH2 8936   5.604   1.425   1.757
 3005TIP3    H1 8937   5.594   1.429   1.852
 3005TIP3    H2 8938   5.526   1.468   1.723
 3006TIP3   OH2 8939   5.151   1.469   2.625
 3006TIP3    H1 8940   5.225   1.504   2.674
 3006TIP3    H2 8941   5.187   1.449   2.539
 3007TIP3   OH2 8942   5.055   1.449   2.126
 3007TIP3    H1 8943   5.100   1.484   2.049
 3007TIP3    H2 8944   4.992   1.517   2.149
 3008TIP3   OH2 8945   6.299   2.158   2.719
 3008TIP3    H1 8946   6.325   2.092   2.655
 3008TIP3    H2 8947   6.254   2.109   2.787
 3009TIP3   OH2 8948   5.978   1.622   2.409
 3009TIP3    H1 8949   5.899   1.612   2.462
 3009TIP3    H2 8950   6.050   1.602   2.469
 3010TIP3   OH2 8951   5.368   1.690   2.398
 3010TIP3    H1 8952   5.280   1.693   2.361
 3010TIP3    H2 8953   5.398   1.600   2.382
 3011TIP3   OH2 8954   5.624   1.696   2.095
 3011TIP3    H1 8955   5.718   1.686   2.083
 3011TIP3    H2 8956   5.589   1.710   2.007
 3012TIP3   OH2 8957   6.422   1.697   2.604
 3012TIP3    H1 8958   6.400   1.715   2.696
 3012TIP3    H2 8959   6.356   1.633   2.576
 3013TIP3   OH2 8960   5.507   1.717   1.847
 3013TIP3    H1 8961   5.445   1.667   1.794
 3013TIP3    H2 8962   5.562   1.762   1.783
 3014TIP3   OH2 8963   6.617   3.400   2.824
 3014TIP3    H1 8964   6.616   3.416   2.729
 3014TIP3    H2 8965   6.696   3.445   2.854
 3015TIP3   OH2 8966   5.548   2.509   3.242
 3015TIP3    H1 8967   5.631   2.528   3.285
 3015TIP3    H2 8968   5.483   2.519   3.311
 3016TIP3   OH2 8969   6.019   1.981   2.500
 3016TIP3    H1 8970   6.076   1.924   2.448
 3016TIP3    H2 8971   6.015   1.938   2.586
 3017TIP3   OH2 8972   5.511   1.442   2.385
 3017TIP3    H1 8973   5.481   1.367   2.437
 3017TIP3    H2 8974   5.539   1.404   2.302
 3018TIP3   OH2 8975   5.992   1.880   2.762
 3018TIP3    H1 8976   5.904   1.910   2.787
 3018TIP3    H2 8977   6.051   1.932   2.817
 3019TIP3   OH2 8978   5.721   2.231   1.877
 3019TIP3    H1 8979   5.647   2.175   1.853
 3019TIP3    H2 8980   5.695   2.271   1.960
 3020TIP3   OH2 8981   6.630   2.481   2.473
 3020TIP3    H1 8982   6.658   2.534   2.399
 3020TIP3    H2 8983   6.546   2.443   2.445
 3021TIP3   OH2 8984   6.189   1.550   1.796
 3021TIP3    H1 8985   6.096   1.531   1.781
 3021TIP3    H2 8986   6.194   1.645   1.800
 3022TIP3   OH2 8987   6.136   2.574   2.901
 3022TIP3    H1 8988   6.188   2.562   2.980
 3022TIP3    H2 8989   6.097   2.661   2.910
 3023TIP3   OH2 8990   6.246   1.817   1.855
 3023TIP3    H1 8991   6.342   1.820   1.861
 3023TIP3    H2 8992   6.223   1.891   1.800
 3024TIP3   OH2 8993   5.417   2.255   2.527
 3024TIP3    H1 8994   5.453   2.233   2.441
 3024TIP3    H2 8995   5.482   2.222   2.589
 3025TIP3   OH2 8996   5.877   2.392   1.722
 3025TIP3    H1 8997   5.829   2.475   1.718
 3025TIP3    H2 8998   5.820   2.334   1.772
 3026TIP3   OH2 8999   5.295   2.178   3.164
 3026TIP3    H1 9000   5.297   2.150   3.256
 3026TIP3    H2 9001   5.221   2.131   3.126
 3027TIP3   OH2 9002   6.040   2.313   3.182
 3027TIP3    H1 9003   5.971   2.253   3.155
 3027TIP3    H2 9004   6.121   2.271   3.153
 3028TIP3   OH2 9005   6.279   2.863   2.782
 3028TIP3    H1 9006   6.185   2.849   2.787
 3028TIP3    H2 9007   6.302   2.898   2.868
 3029TIP3   OH2 9008   6.653   1.911   1.682
 3029TIP3    H1 9009   6.601   1.861   1.619
 3029TIP3    H2 9010   6.661   1.998   1.644
 3030TIP3   OH2 9011   6.914   2.764   2.748
 3030TIP3    H1 9012   6.819   2.752   2.741
 3030TIP3    H2 9013   6.948   2.737   2.663
 3031TIP3   OH2 9014   6.405   2.717   1.607
 3031TIP3    H1 9015   6.374   2.644   1.661
 3031TIP3    H2 9016   6.415   2.680   1.520
 3032TIP3   OH2 9017   6.390   2.350   2.380
 3032TIP3    H1 9018   6.301   2.331   2.408
 3032TIP3    H2 9019   6.421   2.268   2.341
 3033TIP3   OH2 9020   5.541   2.589   2.196
 3033TIP3    H1 9021   5.540   2.665   2.138
 3033TIP3    H2 9022   5.450   2.576   2.222
 3034TIP3   OH2 9023   5.106   1.873   1.908
 3034TIP3    H1 9024   5.147   1.957   1.930
 3034TIP3    H2 9025   5.024   1.873   1.958
 3035TIP3   OH2 9026   5.627   2.343   2.104
 3035TIP3    H1 9027   5.609   2.432   2.134
 3035TIP3    H2 9028   5.599   2.287   2.177
 3036TIP3   OH2 9029   5.825   2.912   2.651
 3036TIP3    H1 9030   5.860   2.986   2.601
 3036TIP3    H2 9031   5.899   2.879   2.701
 3037TIP3   OH2 9032   5.458   2.812   2.045
 3037TIP3    H1 9033   5.371   2.818   2.083
 3037TIP3    H2 9034   5.493   2.901   2.050
 3038TIP3   OH2 9035   6.170   2.573   2.626
 3038TIP3    H1 9036   6.158   2.571   2.721
 3038TIP3    H2 9037   6.243   2.513   2.610
 3039TIP3   OH2 9038   6.177   2.452   1.484
 3039TIP3    H1 9039   6.222   2.431   1.566
 3039TIP3    H2 9040   6.094   2.404   1.490
 3040TIP3   OH2 9041   6.432   3.070   2.662
 3040TIP3    H1 9042   6.363   3.007   2.683
 3040TIP3    H2 9043   6.395   3.123   2.591
 3041TIP3   OH2 9044   6.493   2.924   1.294
 3041TIP3    H1 9045   6.507   2.964   1.209
 3041TIP3    H2 9046   6.425   2.978   1.336
 3042TIP3   OH2 9047   5.510   1.698   3.161
 3042TIP3    H1 9048   5.414   1.707   3.164
 3042TIP3    H2 9049   5.531   1.641   3.235
 3043TIP3   OH2 9050   6.341   2.396   1.698
 3043TIP3    H1 9051   6.322   2.330   1.765
 3043TIP3    H2 9052   6.437   2.396   1.691
 3044TIP3   OH2 9053   5.253   2.810   2.810
 3044TIP3    H1 9054   5.309   2.752   2.862
 3044TIP3    H2 9055   5.268   2.897   2.847
 3045TIP3   OH2 9056   5.522   2.418   1.505
 3045TIP3    H1 9057   5.532   2.326   1.477
 3045TIP3    H2 9058   5.507   2.413   1.599
 3046TIP3   OH2 9059   5.462   2.437   1.777
 3046TIP3    H1 9060   5.528   2.410   1.841
 3046TIP3    H2 9061   5.462   2.532   1.781
 3047TIP3   OH2 9062   5.196   2.126   1.989
 3047TIP3    H1 9063   5.130   2.174   2.040
 3047TIP3    H2 9064   5.215   2.183   1.915
 3048TIP3   OH2 9065   6.358   1.759   2.866
 3048TIP3    H1 9066   6.436   1.802   2.900
 3048TIP3    H2 9067   6.348   1.681   2.920
 3049TIP3   OH2 9068   6.250   1.503   2.060
 3049TIP3    H1 9069   6.225   1.520   1.969
 3049TIP3    H2 9070   6.292   1.583   2.089
 3050TIP3   OH2 9071   5.734   2.623   1.716
 3050TIP3    H1 9072   5.649   2.647   1.752
 3050TIP3    H2 9073   5.756   2.694   1.656
 3051TIP3   OH2 9074   5.912   1.691   2.151
 3051TIP3    H1 9075   5.970   1.762   2.123
 3051TIP3    H2 9076   5.932   1.679   2.243
 3052TIP3   OH2 9077   6.198   1.993   2.915
 3052TIP3    H1 9078   6.223   2.035   2.997
 3052TIP3    H2 9079   6.247   1.911   2.913
 3053TIP3   OH2 9080   6.061   1.408   2.236
 3053TIP3    H1 9081   6.037   1.489   2.282
 3053TIP3    H2 9082   6.127   1.435   2.173
 3054TIP3   OH2 9083   5.484   2.710   1.792
 3054TIP3    H1 9084   5.465   2.782   1.732
 3054TIP3    H2 9085   5.473   2.747   1.879
 3055TIP3   OH2 9086   5.559   1.422   2.037
 3055TIP3    H1 9087   5.544   1.513   2.065
 3055TIP3    H2 9088   5.654   1.413   2.037
 3056TIP3   OH2 9089   6.809   1.878   2.894
 3056TIP3    H1 9090   6.717   1.896   2.913
 3056TIP3    H2 9091   6.808   1.813   2.825
 3057TIP3   OH2 9092   6.476   2.093   2.286
 3057TIP3    H1 9093   6.398   2.038   2.298
 3057TIP3    H2 9094   6.541   2.054   2.345
 3058TIP3   OH2 9095   5.219   2.302   1.771
 3058TIP3    H1 9096   5.291   2.365   1.779
 3058TIP3    H2 9097   5.250   2.238   1.707
 3059TIP3   OH2 9098   5.124   1.595   1.905
 3059TIP3    H1 9099   5.138   1.689   1.913
 3059TIP3    H2 9100   5.074   1.584   1.825
 3060TIP3   OH2 9101   6.454   3.068   2.233
 3060TIP3    H1 9102   6.410   3.121   2.166
 3060TIP3    H2 9103   6.547   3.087   2.221
 3061TIP3   OH2 9104   5.524   1.318   2.772
 3061TIP3    H1 9105   5.495   1.287   2.687
 3061TIP3    H2 9106   5.516   1.242   2.830
 3062TIP3   OH2 9107   5.046   2.574   2.161
 3062TIP3    H1 9108   5.000   2.609   2.237
 3062TIP3    H2 9109   5.002   2.616   2.086
 3063TIP3   OH2 9110   5.261   3.112   3.232
 3063TIP3    H1 9111   5.340   3.123   3.285
 3063TIP3    H2 9112   5.260   3.019   3.210
 3064TIP3   OH2 9113   5.716   3.015   3.275
 3064TIP3    H1 9114   5.808   2.988   3.284
 3064TIP3    H2 9115   5.682   2.961   3.204
 3065TIP3   OH2 9116   5.676   2.620   1.394
 3065TIP3    H1 9117   5.630   2.548   1.437
 3065TIP3    H2 9118   5.751   2.578   1.353
 3066TIP3   OH2 9119   6.336   2.960   3.032
 3066TIP3    H1 9120   6.349   2.890   3.095
 3066TIP3    H2 9121   6.410   3.019   3.046
 3067TIP3   OH2 9122   6.137   2.664   1.318
 3067TIP3    H1 9123   6.158   2.596   1.382
 3067TIP3    H2 9124   6.220   2.682   1.274
 3068TIP3   OH2 9125   5.333   2.500   3.435
 3068TIP3    H1 9126   5.360   2.408   3.433
 3068TIP3    H2 9127   5.258   2.504   3.375
 3069TIP3   OH2 9128   5.341   2.112   1.617
 3069TIP3    H1 9129   5.392   2.086   1.694
 3069TIP3    H2 9130   5.406   2.125   1.548
 3070TIP3   OH2 9131   5.973   2.590   3.199
 3070TIP3    H1 9132   5.930   2.612   3.117
 3070TIP3    H2 9133   6.009   2.502   3.185
 3071TIP3   OH2 9134   5.928   2.335   1.458
 3071TIP3    H1 9135   5.901   2.345   1.549
 3071TIP3    H2 9136   5.906   2.244   1.437
 3072TIP3   OH2 9137   6.448   2.636   2.816
 3072TIP3    H1 9138   6.524   2.663   2.765
 3072TIP3    H2 9139   6.383   2.705   2.800
 3073TIP3   OH2 9140   5.464   2.256   3.430
 3073TIP3    H1 9141   5.538   2.238   3.372
 3073TIP3    H2 9142   5.504   2.274   3.515
 3074TIP3   OH2 9143   5.515   2.052   1.829
 3074TIP3    H1 9144   5.495   2.020   1.917
 3074TIP3    H2 9145   5.564   1.981   1.788
 3075TIP3   OH2 9146   5.830   2.138   3.092
 3075TIP3    H1 9147   5.744   2.179   3.103
 3075TIP3    H2 9148   5.859   2.166   3.006
 3076TIP3   OH2 9149   5.660   1.870   1.676
 3076TIP3    H1 9150   5.629   1.874   1.585
 3076TIP3    H2 9151   5.755   1.875   1.669
 3077TIP3   OH2 9152   6.327   2.511   3.167
 3077TIP3    H1 9153   6.397   2.472   3.113
 3077TIP3    H2 9154   6.324   2.456   3.245
 3078TIP3   OH2 9155   6.454   2.160   1.346
 3078TIP3    H1 9156   6.432   2.118   1.263
 3078TIP3    H2 9157   6.429   2.252   1.334
 3079TIP3   OH2 9158   5.933   1.904   3.195
 3079TIP3    H1 9159   5.936   1.834   3.130
 3079TIP3    H2 9160   5.899   1.980   3.147
 3080TIP3   OH2 9161   5.942   1.707   2.991
 3080TIP3    H1 9162   5.969   1.742   2.906
 3080TIP3    H2 9163   5.851   1.678   2.977
 3081TIP3   OH2 9164   5.942   2.234   2.865
 3081TIP3    H1 9165   6.031   2.266   2.851
 3081TIP3    H2 9166   5.887   2.293   2.813
 3082TIP3   OH2 9167   6.539   2.196   3.242
 3082TIP3    H1 9168   6.586   2.113   3.248
 3082TIP3    H2 9169   6.608   2.262   3.237
 3083TIP3   OH2 9170   6.571   2.458   2.980
 3083TIP3    H1 9171   6.517   2.520   2.930
 3083TIP3    H2 9172   6.660   2.473   2.948
 3084TIP3   OH2 9173   5.818   1.985   3.439
 3084TIP3    H1 9174   5.749   1.922   3.458
 3084TIP3    H2 9175   5.847   1.963   3.350
 3085TIP3   OH2 9176   6.064   1.477   3.095
 3085TIP3    H1 9177   6.023   1.556   3.061
 3085TIP3    H2 9178   5.998   1.408   3.081
 3086TIP3   OH2 9179   6.188   1.945   3.298
 3086TIP3    H1 9180   6.177   1.932   3.392
 3086TIP3    H2 9181   6.103   1.924   3.261
 3087TIP3   OH2 9182   6.437   1.902   3.174
 3087TIP3    H1 9183   6.357   1.901   3.228
 3087TIP3    H2 9184   6.507   1.878   3.235
 3088TIP3   OH2 9185   6.676   1.867   3.319
 3088TIP3    H1 9186   6.688   1.773   3.326
 3088TIP3    H2 9187   6.670   1.897   3.410
 3089TIP3   OH2 9188   5.648   1.769   3.502
 3089TIP3    H1 9189   5.654   1.681   3.465
 3089TIP3    H2 9190   5.688   1.761   3.589
 3090TIP3   OH2 9191   6.129   1.451   3.360
 3090TIP3    H1 9192   6.197   1.384   3.353
 3090TIP3    H2 9193   6.099   1.464   3.270
 3091TIP3   OH2 9194   6.226   1.665   3.504
 3091TIP3    H1 9195   6.195   1.593   3.449
 3091TIP3    H2 9196   6.154   1.728   3.505
 3092TIP3   OH2 9197   5.485   2.923   1.613
 3092TIP3    H1 9198   5.573   2.900   1.583
 3092TIP3    H2 9199   5.445   2.966   1.537
 3093TIP3   OH2 9200   4.946   2.301   1.792
 3093TIP3    H1 9201   5.041   2.312   1.787
 3093TIP3    H2 9202   4.930   2.215   1.753
 3094TIP3   OH2 9203   4.849   2.885   2.250
 3094TIP3    H1 9204   4.784   2.832   2.203
 3094TIP3    H2 9205   4.893   2.823   2.308
 3095TIP3   OH2 9206   4.992   2.714   2.416
 3095TIP3    H1 9207   4.982   2.645   2.481
 3095TIP3    H2 9208   5.045   2.781   2.459
 3096TIP3   OH2 9209   6.721   3.136   2.230
 3096TIP3    H1 9210   6.741   3.158   2.321
 3096TIP3    H2 9211   6.771   3.199   2.179
 3097TIP3   OH2 9212   6.747   3.150   2.510
 3097TIP3    H1 9213   6.699   3.068   2.504
 3097TIP3    H2 9214   6.816   3.134   2.574
 3098TIP3   OH2 9215   6.802   2.854   3.075
 3098TIP3    H1 9216   6.730   2.862   3.137
 3098TIP3    H2 9217   6.849   2.937   3.082
 3099TIP3   OH2 9218   6.620   2.370   1.695
 3099TIP3    H1 9219   6.678   2.440   1.666
 3099TIP3    H2 9220   6.663   2.333   1.772
 3100TIP3   OH2 9221   6.729   2.241   1.921
 3100TIP3    H1 9222   6.662   2.177   1.944
 3100TIP3    H2 9223   6.724   2.308   1.989
 3101TIP3   OH2 9224   6.797   2.631   2.298
 3101TIP3    H1 9225   6.791   2.586   2.214
 3101TIP3    H2 9226   6.801   2.723   2.275
 3102TIP3   OH2 9227   6.603   2.913   2.508
 3102TIP3    H1 9228   6.537   2.957   2.561
 3102TIP3    H2 9229   6.553   2.874   2.436
 3103TIP3   OH2 9230   6.649   2.146   1.538
 3103TIP3    H1 9231   6.580   2.141   1.472
 3103TIP3    H2 9232   6.628   2.225   1.588
 3104TIP3   OH2 9233   6.514   1.790   1.484
 3104TIP3    H1 9234   6.496   1.817   1.394
 3104TIP3    H2 9235   6.493   1.696   1.485
 3105TIP3   OH2 9236   6.535   2.074   2.016
 3105TIP3    H1 9237   6.536   1.980   1.999
 3105TIP3    H2 9238   6.517   2.081   2.110
 3106TIP3   OH2 9239   5.167   2.143   2.802
 3106TIP3    H1 9240   5.157   2.113   2.712
 3106TIP3    H2 9241   5.262   2.141   2.818
 3107TIP3   OH2 9242   6.830   2.504   2.888
 3107TIP3    H1 9243   6.895   2.436   2.871
 3107TIP3    H2 9244   6.852   2.573   2.825
 3108TIP3   OH2 9245   7.003   2.291   2.875
 3108TIP3    H1 9246   6.930   2.247   2.919
 3108TIP3    H2 9247   7.078   2.234   2.892
 3109TIP3   OH2 9248   6.457   1.522   1.484
 3109TIP3    H1 9249   6.520   1.492   1.550
 3109TIP3    H2 9250   6.374   1.482   1.509
 3110TIP3   OH2 9251   6.537   1.808   1.915
 3110TIP3    H1 9252   6.581   1.724   1.927
 3110TIP3    H2 9253   6.578   1.845   1.836
 3111TIP3   OH2 9254   6.692   1.985   2.435
 3111TIP3    H1 9255   6.771   2.016   2.392
 3111TIP3    H2 9256   6.700   2.017   2.525
 3112TIP3   OH2 9257   6.757   2.119   2.673
 3112TIP3    H1 9258   6.684   2.143   2.730
 3112TIP3    H2 9259   6.793   2.202   2.643
 3113TIP3   OH2 9260   5.384   1.829   3.441
 3113TIP3    H1 9261   5.478   1.825   3.457
 3113TIP3    H2 9262   5.349   1.748   3.478
 3114TIP3   OH2 9263   7.230   1.724   3.200
 3114TIP3    H1 9264   7.294   1.665   3.160
 3114TIP3    H2 9265   7.192   1.773   3.127
 3115TIP3   OH2 9266   6.649   1.560   1.973
 3115TIP3    H1 9267   6.691   1.543   2.057
 3115TIP3    H2 9268   6.586   1.488   1.962
 3116TIP3   OH2 9269   5.362   1.542   2.796
 3116TIP3    H1 9270   5.415   1.463   2.798
 3116TIP3    H2 9271   5.424   1.612   2.774
 3117TIP3   OH2 9272   5.140   1.809   2.846
 3117TIP3    H1 9273   5.192   1.791   2.767
 3117TIP3    H2 9274   5.168   1.896   2.873
 3118TIP3   OH2 9275   7.077   1.844   3.008
 3118TIP3    H1 9276   7.008   1.883   3.060
 3118TIP3    H2 9277   7.032   1.781   2.951
 3119TIP3   OH2 9278   6.704   1.467   1.612
 3119TIP3    H1 9279   6.754   1.414   1.551
 3119TIP3    H2 9280   6.751   1.550   1.618
 3120TIP3   OH2 9281   5.131   1.322   2.356
 3120TIP3    H1 9282   5.045   1.307   2.394
 3120TIP3    H2 9283   5.114   1.374   2.278
 3121TIP3   OH2 9284   6.290   3.038   1.868
 3121TIP3    H1 9285   6.344   3.024   1.790
 3121TIP3    H2 9286   6.334   3.109   1.915
 3122TIP3   OH2 9287   5.361   1.376   3.179
 3122TIP3    H1 9288   5.308   1.368   3.258
 3122TIP3    H2 9289   5.305   1.422   3.117
 3123TIP3   OH2 9290   5.370   2.838   3.243
 3123TIP3    H1 9291   5.278   2.813   3.243
 3123TIP3    H2 9292   5.396   2.834   3.335
 3124TIP3   OH2 9293   5.596   2.877   2.800
 3124TIP3    H1 9294   5.546   2.952   2.768
 3124TIP3    H2 9295   5.681   2.885   2.756
 3125TIP3   OH2 9296   5.992   3.108   2.936
 3125TIP3    H1 9297   6.029   3.100   3.024
 3125TIP3    H2 9298   6.055   3.162   2.889
 3126TIP3   OH2 9299   6.184   3.263   2.810
 3126TIP3    H1 9300   6.247   3.208   2.763
 3126TIP3    H2 9301   6.239   3.320   2.865
 3127TIP3   OH2 9302   6.984   1.587   2.902
 3127TIP3    H1 9303   6.895   1.574   2.867
 3127TIP3    H2 9304   7.025   1.500   2.895
 3128TIP3   OH2 9305   5.257   3.111   2.848
 3128TIP3    H1 9306   5.165   3.127   2.825
 3128TIP3    H2 9307   5.278   3.180   2.911
 3129TIP3   OH2 9308   5.487   3.109   2.696
 3129TIP3    H1 9309   5.404   3.112   2.743
 3129TIP3    H2 9310   5.465   3.132   2.606
 3130TIP3   OH2 9311   5.901   3.123   2.487
 3130TIP3    H1 9312   5.828   3.134   2.426
 3130TIP3    H2 9313   5.911   3.210   2.528
 3131TIP3   OH2 9314   6.164   3.056   2.533
 3131TIP3    H1 9315   6.072   3.076   2.514
 3131TIP3    H2 9316   6.213   3.124   2.487
 3132TIP3   OH2 9317   6.365   3.231   2.438
 3132TIP3    H1 9318   6.364   3.318   2.398
 3132TIP3    H2 9319   6.394   3.173   2.367
 3133TIP3   OH2 9320   5.165   2.892   2.559
 3133TIP3    H1 9321   5.191   2.869   2.649
 3133TIP3    H2 9322   5.237   2.860   2.505
 3134TIP3   OH2 9323   5.371   2.781   2.421
 3134TIP3    H1 9324   5.383   2.697   2.465
 3134TIP3    H2 9325   5.457   2.822   2.424
 3135TIP3   OH2 9326   5.639   2.866   2.446
 3135TIP3    H1 9327   5.658   2.773   2.430
 3135TIP3    H2 9328   5.693   2.888   2.522
 3136TIP3   OH2 9329   6.203   1.513   2.543
 3136TIP3    H1 9330   6.160   1.440   2.588
 3136TIP3    H2 9331   6.268   1.472   2.486
 3137TIP3   OH2 9332   6.698   1.442   2.435
 3137TIP3    H1 9333   6.731   1.487   2.357
 3137TIP3    H2 9334   6.602   1.448   2.426
 3138TIP3   OH2 9335   6.810   1.505   2.191
 3138TIP3    H1 9336   6.878   1.445   2.161
 3138TIP3    H2 9337   6.850   1.592   2.182
 3139TIP3   OH2 9338   5.431   1.219   2.532
 3139TIP3    H1 9339   5.342   1.184   2.539
 3139TIP3    H2 9340   5.486   1.142   2.523
 3140TIP3   OH2 9341   5.249   1.121   2.184
 3140TIP3    H1 9342   5.281   1.168   2.106
 3140TIP3    H2 9343   5.219   1.191   2.243
 3141TIP3   OH2 9344   5.910   1.272   2.426
 3141TIP3    H1 9345   5.957   1.312   2.353
 3141TIP3    H2 9346   5.960   1.296   2.504
 3142TIP3   OH2 9347   6.417   1.404   2.402
 3142TIP3    H1 9348   6.411   1.370   2.312
 3142TIP3    H2 9349   6.420   1.325   2.457
 3143TIP3   OH2 9350   6.467   1.351   1.972
 3143TIP3    H1 9351   6.386   1.397   1.996
 3143TIP3    H2 9352   6.456   1.263   2.010
 3144TIP3   OH2 9353   4.928   2.694   1.943
 3144TIP3    H1 9354   4.844   2.662   1.908
 3144TIP3    H2 9355   4.933   2.784   1.912
 3145TIP3   OH2 9356   5.363   1.243   1.948
 3145TIP3    H1 9357   5.411   1.181   1.893
 3145TIP3    H2 9358   5.430   1.301   1.983
 3146TIP3   OH2 9359   5.828   1.462   2.018
 3146TIP3    H1 9360   5.868   1.376   2.033
 3146TIP3    H2 9361   5.878   1.521   2.075
 3147TIP3   OH2 9362   5.737   2.843   1.538
 3147TIP3    H1 9363   5.820   2.870   1.498
 3147TIP3    H2 9364   5.705   2.772   1.482
 3148TIP3   OH2 9365   6.439   2.987   1.640
 3148TIP3    H1 9366   6.433   2.892   1.632
 3148TIP3    H2 9367   6.400   3.020   1.559
 3149TIP3   OH2 9368   5.665   1.497   3.415
 3149TIP3    H1 9369   5.630   1.430   3.474
 3149TIP3    H2 9370   5.757   1.506   3.439
 3150TIP3   OH2 9371   5.913   1.503   3.536
 3150TIP3    H1 9372   5.990   1.481   3.484
 3150TIP3    H2 9373   5.907   1.433   3.601
 3151TIP3   OH2 9374   5.048   2.687   1.598
 3151TIP3    H1 9375   5.048   2.694   1.693
 3151TIP3    H2 9376   5.128   2.639   1.576
 3152TIP3   OH2 9377   6.735   1.595   3.323
 3152TIP3    H1 9378   6.751   1.566   3.413
 3152TIP3    H2 9379   6.820   1.590   3.280
 3153TIP3   OH2 9380   6.652   3.125   2.827
 3153TIP3    H1 9381   6.577   3.096   2.775
 3153TIP3    H2 9382   6.640   3.220   2.837
 3154TIP3   OH2 9383   7.913   2.531   1.672
 3154TIP3    H1 9384   7.922   2.625   1.662
 3154TIP3    H2 9385   7.862   2.503   1.596
 3155TIP3   OH2 9386   7.879   2.507   1.964
 3155TIP3    H1 9387   7.899   2.446   2.036
 3155TIP3    H2 9388   7.876   2.451   1.886
 3156TIP3   OH2 9389   8.176   2.806   1.676
 3156TIP3    H1 9390   8.164   2.752   1.754
 3156TIP3    H2 9391   8.196   2.893   1.710
 3157TIP3   OH2 9392   7.241   2.820   2.040
 3157TIP3    H1 9393   7.255   2.788   2.129
 3157TIP3    H2 9394   7.328   2.824   2.002
 3158TIP3   OH2 9395   6.890   2.021   1.823
 3158TIP3    H1 9396   6.843   2.099   1.852
 3158TIP3    H2 9397   6.825   1.972   1.772
 3159TIP3   OH2 9398   7.111   2.305   2.001
 3159TIP3    H1 9399   7.090   2.238   2.066
 3159TIP3    H2 9400   7.032   2.314   1.948
 3160TIP3   OH2 9401   7.860   3.235   1.682
 3160TIP3    H1 9402   7.900   3.166   1.629
 3160TIP3    H2 9403   7.861   3.200   1.771
 3161TIP3   OH2 9404   7.711   2.722   2.000
 3161TIP3    H1 9405   7.756   2.642   1.973
 3161TIP3    H2 9406   7.782   2.781   2.027
 3162TIP3   OH2 9407   7.472   1.877   1.971
 3162TIP3    H1 9408   7.467   1.911   1.882
 3162TIP3    H2 9409   7.413   1.801   1.971
 3163TIP3   OH2 9410   7.110   2.086   2.165
 3163TIP3    H1 9411   7.197   2.064   2.198
 3163TIP3    H2 9412   7.097   2.027   2.090
 3164TIP3   OH2 9413   7.573   2.279   1.906
 3164TIP3    H1 9414   7.663   2.266   1.936
 3164TIP3    H2 9415   7.540   2.191   1.893
 3165TIP3   OH2 9416   7.470   1.881   2.449
 3165TIP3    H1 9417   7.423   1.926   2.378
 3165TIP3    H2 9418   7.416   1.895   2.526
 3166TIP3   OH2 9419   7.853   2.752   1.466
 3166TIP3    H1 9420   7.799   2.710   1.399
 3166TIP3    H2 9421   7.799   2.825   1.497
 3167TIP3   OH2 9422   7.542   2.636   2.201
 3167TIP3    H1 9423   7.499   2.710   2.244
 3167TIP3    H2 9424   7.597   2.676   2.134
 3168TIP3   OH2 9425   7.368   1.988   2.210
 3168TIP3    H1 9426   7.425   2.062   2.232
 3168TIP3    H2 9427   7.407   1.950   2.132
 3169TIP3   OH2 9428   7.403   2.853   2.308
 3169TIP3    H1 9429   7.397   2.945   2.283
 3169TIP3    H2 9430   7.331   2.841   2.371
 3170TIP3   OH2 9431   6.797   2.558   1.591
 3170TIP3    H1 9432   6.758   2.568   1.504
 3170TIP3    H2 9433   6.820   2.647   1.617
 3171TIP3   OH2 9434   8.198   3.065   1.763
 3171TIP3    H1 9435   8.120   3.054   1.817
 3171TIP3    H2 9436   8.207   3.160   1.754
 3172TIP3   OH2 9437   7.777   1.586   2.166
 3172TIP3    H1 9438   7.783   1.497   2.201
 3172TIP3    H2 9439   7.704   1.626   2.212
 3173TIP3   OH2 9440   7.967   3.081   1.471
 3173TIP3    H1 9441   8.014   2.997   1.468
 3173TIP3    H2 9442   8.032   3.146   1.448
 3174TIP3   OH2 9443   8.107   2.835   1.418
 3174TIP3    H1 9444   8.019   2.798   1.423
 3174TIP3    H2 9445   8.141   2.827   1.507
 3175TIP3   OH2 9446   7.780   2.449   1.447
 3175TIP3    H1 9447   7.690   2.480   1.458
 3175TIP3    H2 9448   7.787   2.429   1.353
 3176TIP3   OH2 9449   7.848   2.146   1.063
 3176TIP3    H1 9450   7.902   2.126   1.140
 3176TIP3    H2 9451   7.761   2.114   1.086
 3177TIP3   OH2 9452   7.343   2.407   1.799
 3177TIP3    H1 9453   7.301   2.366   1.723
 3177TIP3    H2 9454   7.436   2.388   1.788
 3178TIP3   OH2 9455   7.483   2.854   1.915
 3178TIP3    H1 9456   7.467   2.836   1.823
 3178TIP3    H2 9457   7.565   2.809   1.934
 3179TIP3   OH2 9458   7.421   2.408   2.093
 3179TIP3    H1 9459   7.502   2.384   2.048
 3179TIP3    H2 9460   7.442   2.488   2.140
 3180TIP3   OH2 9461   7.973   3.038   1.913
 3180TIP3    H1 9462   7.964   3.119   1.964
 3180TIP3    H2 9463   7.962   2.968   1.977
 3181TIP3   OH2 9464   7.611   2.958   2.474
 3181TIP3    H1 9465   7.550   3.013   2.522
 3181TIP3    H2 9466   7.556   2.902   2.420
 3182TIP3   OH2 9467   8.013   2.262   1.298
 3182TIP3    H1 9468   8.063   2.333   1.340
 3182TIP3    H2 9469   7.956   2.307   1.235
 3183TIP3   OH2 9470   7.369   2.497   2.618
 3183TIP3    H1 9471   7.374   2.590   2.639
 3183TIP3    H2 9472   7.275   2.478   2.616
 3184TIP3   OH2 9473   7.699   2.981   1.490
 3184TIP3    H1 9474   7.776   3.038   1.495
 3184TIP3    H2 9475   7.634   3.032   1.440
 3185TIP3   OH2 9476   7.398   3.109   2.566
 3185TIP3    H1 9477   7.372   3.122   2.475
 3185TIP3    H2 9478   7.316   3.097   2.613
 3186TIP3   OH2 9479   7.220   2.267   1.599
 3186TIP3    H1 9480   7.140   2.309   1.569
 3186TIP3    H2 9481   7.205   2.174   1.583
 3187TIP3   OH2 9482   6.995   2.662   2.506
 3187TIP3    H1 9483   6.929   2.638   2.440
 3187TIP3    H2 9484   7.028   2.578   2.538
 3188TIP3   OH2 9485   6.837   2.886   2.196
 3188TIP3    H1 9486   6.922   2.919   2.223
 3188TIP3    H2 9487   6.777   2.960   2.208
 3189TIP3   OH2 9488   7.798   3.098   2.330
 3189TIP3    H1 9489   7.796   3.186   2.366
 3189TIP3    H2 9490   7.734   3.049   2.382
 3190TIP3   OH2 9491   7.583   3.204   1.318
 3190TIP3    H1 9492   7.536   3.174   1.240
 3190TIP3    H2 9493   7.542   3.287   1.341
 3191TIP3   OH2 9494   7.016   3.056   1.673
 3191TIP3    H1 9495   7.060   3.048   1.758
 3191TIP3    H2 9496   6.967   2.974   1.665
 3192TIP3   OH2 9497   7.772   3.151   0.978
 3192TIP3    H1 9498   7.808   3.074   0.935
 3192TIP3    H2 9499   7.816   3.156   1.062
 3193TIP3   OH2 9500   7.843   3.179   1.242
 3193TIP3    H1 9501   7.752   3.181   1.271
 3193TIP3    H2 9502   7.890   3.135   1.312
 3194TIP3   OH2 9503   7.193   2.854   2.485
 3194TIP3    H1 9504   7.243   2.841   2.566
 3194TIP3    H2 9505   7.122   2.790   2.491
 3195TIP3   OH2 9506   7.557   1.664   2.308
 3195TIP3    H1 9507   7.472   1.631   2.281
 3195TIP3    H2 9508   7.538   1.745   2.355
 3196TIP3   OH2 9509   8.098   1.742   2.553
 3196TIP3    H1 9510   8.140   1.792   2.623
 3196TIP3    H2 9511   8.006   1.736   2.579
 3197TIP3   OH2 9512   7.680   1.757   1.252
 3197TIP3    H1 9513   7.604   1.765   1.309
 3197TIP3    H2 9514   7.750   1.726   1.309
 3198TIP3   OH2 9515   7.517   2.201   2.302
 3198TIP3    H1 9516   7.473   2.200   2.387
 3198TIP3    H2 9517   7.515   2.293   2.276
 3199TIP3   OH2 9518   7.325   2.132   1.887
 3199TIP3    H1 9519   7.260   2.068   1.916
 3199TIP3    H2 9520   7.358   2.095   1.805
 3200TIP3   OH2 9521   7.919   2.214   1.551
 3200TIP3    H1 9522   7.858   2.287   1.560
 3200TIP3    H2 9523   7.947   2.216   1.460
 3201TIP3   OH2 9524   8.050   2.439   2.634
 3201TIP3    H1 9525   8.015   2.383   2.703
 3201TIP3    H2 9526   8.141   2.411   2.623
 3202TIP3   OH2 9527   8.020   2.199   1.814
 3202TIP3    H1 9528   7.981   2.218   1.729
 3202TIP3    H2 9529   8.094   2.141   1.794
 3203TIP3   OH2 9530   7.375   2.186   2.535
 3203TIP3    H1 9531   7.360   2.262   2.590
 3203TIP3    H2 9532   7.355   2.111   2.591
 3204TIP3   OH2 9533   7.424   1.635   1.143
 3204TIP3    H1 9534   7.451   1.660   1.232
 3204TIP3    H2 9535   7.329   1.621   1.151
 3205TIP3   OH2 9536   6.947   1.730   2.126
 3205TIP3    H1 9537   7.025   1.767   2.167
 3205TIP3    H2 9538   6.975   1.704   2.039
 3206TIP3   OH2 9539   6.839   1.708   1.646
 3206TIP3    H1 9540   6.881   1.749   1.570
 3206TIP3    H2 9541   6.770   1.770   1.671
 3207TIP3   OH2 9542   7.981   2.397   2.203
 3207TIP3    H1 9543   8.071   2.421   2.180
 3207TIP3    H2 9544   7.991   2.337   2.277
 3208TIP3   OH2 9545   7.746   1.846   1.888
 3208TIP3    H1 9546   7.662   1.862   1.931
 3208TIP3    H2 9547   7.811   1.856   1.957
 3209TIP3   OH2 9548   7.133   1.943   1.935
 3209TIP3    H1 9549   7.053   1.951   1.883
 3209TIP3    H2 9550   7.169   1.857   1.912
 3210TIP3   OH2 9551   8.375   3.631   2.304
 3210TIP3    H1 9552   8.374   3.642   2.209
 3210TIP3    H2 9553   8.465   3.651   2.330
 3211TIP3   OH2 9554   7.351   2.764   2.714
 3211TIP3    H1 9555   7.432   2.785   2.761
 3211TIP3    H2 9556   7.282   2.773   2.781
 3212TIP3   OH2 9557   7.813   2.206   2.003
 3212TIP3    H1 9558   7.892   2.191   1.952
 3212TIP3    H2 9559   7.831   2.163   2.087
 3213TIP3   OH2 9560   7.265   1.696   1.913
 3213TIP3    H1 9561   7.251   1.614   1.961
 3213TIP3    H2 9562   7.271   1.670   1.821
 3214TIP3   OH2 9563   7.792   2.121   2.285
 3214TIP3    H1 9564   7.709   2.168   2.288
 3214TIP3    H2 9565   7.853   2.175   2.335
 3215TIP3   OH2 9566   7.512   2.528   1.428
 3215TIP3    H1 9567   7.430   2.491   1.397
 3215TIP3    H2 9568   7.490   2.569   1.512
 3216TIP3   OH2 9569   7.909   2.819   2.367
 3216TIP3    H1 9570   8.005   2.821   2.374
 3216TIP3    H2 9571   7.882   2.909   2.387
 3217TIP3   OH2 9572   7.687   2.683   1.262
 3217TIP3    H1 9573   7.633   2.761   1.247
 3217TIP3    H2 9574   7.627   2.618   1.296
 3218TIP3   OH2 9575   7.095   2.437   2.646
 3218TIP3    H1 9576   7.100   2.415   2.739
 3218TIP3    H2 9577   7.019   2.389   2.613
 3219TIP3   OH2 9578   7.817   2.582   2.677
 3219TIP3    H1 9579   7.749   2.521   2.647
 3219TIP3    H2 9580   7.899   2.545   2.642
 3220TIP3   OH2 9581   8.069   3.103   2.249
 3220TIP3    H1 9582   7.974   3.094   2.245
 3220TIP3    H2 9583   8.086   3.141   2.335
 3221TIP3   OH2 9584   8.123   2.620   1.879
 3221TIP3    H1 9585   8.034   2.592   1.901
 3221TIP3    H2 9586   8.153   2.556   1.814
 3222TIP3   OH2 9587   7.316   2.861   1.677
 3222TIP3    H1 9588   7.319   2.937   1.620
 3222TIP3    H2 9589   7.223   2.849   1.697
 3223TIP3   OH2 9590   6.882   2.158   1.396
 3223TIP3    H1 9591   6.916   2.244   1.421
 3223TIP3    H2 9592   6.802   2.147   1.446
 3224TIP3   OH2 9593   7.446   2.626   1.668
 3224TIP3    H1 9594   7.404   2.711   1.663
 3224TIP3    H2 9595   7.394   2.577   1.731
 3225TIP3   OH2 9596   7.616   3.173   2.131
 3225TIP3    H1 9597   7.653   3.247   2.083
 3225TIP3    H2 9598   7.689   3.139   2.183
 3226TIP3   OH2 9599   7.249   3.084   1.529
 3226TIP3    H1 9600   7.162   3.089   1.568
 3226TIP3    H2 9601   7.283   3.173   1.536
 3227TIP3   OH2 9602   7.949   2.826   2.092
 3227TIP3    H1 9603   7.934   2.817   2.186
 3227TIP3    H2 9604   8.025   2.770   2.073
 3228TIP3   OH2 9605   7.871   2.727   1.059
 3228TIP3    H1 9606   7.961   2.758   1.070
 3228TIP3    H2 9607   7.832   2.734   1.146
 3229TIP3   OH2 9608   8.183   3.350   2.173
 3229TIP3    H1 9609   8.145   3.262   2.170
 3229TIP3    H2 9610   8.176   3.382   2.083
 3230TIP3   OH2 9611   7.310   1.939   2.666
 3230TIP3    H1 9612   7.215   1.945   2.673
 3230TIP3    H2 9613   7.337   1.886   2.741
 3231TIP3   OH2 9614   7.046   3.056   2.302
 3231TIP3    H1 9615   7.099   3.000   2.358
 3231TIP3    H2 9616   7.059   3.144   2.337
 3232TIP3   OH2 9617   7.208   2.686   1.037
 3232TIP3    H1 9618   7.276   2.668   0.972
 3232TIP3    H2 9619   7.249   2.668   1.121
 3233TIP3   OH2 9620   7.249   2.706   1.322
 3233TIP3    H1 9621   7.338   2.671   1.314
 3233TIP3    H2 9622   7.258   2.800   1.308
 3234TIP3   OH2 9623   6.996   2.395   1.484
 3234TIP3    H1 9624   6.933   2.445   1.535
 3234TIP3    H2 9625   7.023   2.453   1.413
 3235TIP3   OH2 9626   7.527   2.894   1.215
 3235TIP3    H1 9627   7.442   2.920   1.250
 3235TIP3    H2 9628   7.537   2.945   1.135
 3236TIP3   OH2 9629   7.998   2.249   2.434
 3236TIP3    H1 9630   7.992   2.322   2.495
 3236TIP3    H2 9631   8.062   2.190   2.473
 3237TIP3   OH2 9632   7.902   1.654   1.767
 3237TIP3    H1 9633   7.850   1.723   1.807
 3237TIP3    H2 9634   7.974   1.700   1.723
 3238TIP3   OH2 9635   7.276   2.977   1.281
 3238TIP3    H1 9636   7.246   3.045   1.221
 3238TIP3    H2 9637   7.263   3.015   1.368
 3239TIP3   OH2 9638   7.296   1.635   1.642
 3239TIP3    H1 9639   7.332   1.723   1.646
 3239TIP3    H2 9640   7.367   1.581   1.608
 3240TIP3   OH2 9641   6.970   2.649   1.307
 3240TIP3    H1 9642   7.046   2.701   1.334
 3240TIP3    H2 9643   7.004   2.589   1.240
 3241TIP3   OH2 9644   6.896   1.872   1.438
 3241TIP3    H1 9645   6.874   1.956   1.398
 3241TIP3    H2 9646   6.880   1.808   1.369
 3242TIP3   OH2 9647   8.250   3.339   1.696
 3242TIP3    H1 9648   8.207   3.393   1.630
 3242TIP3    H2 9649   8.326   3.302   1.652
 3243TIP3   OH2 9650   7.300   1.572   2.274
 3243TIP3    H1 9651   7.275   1.537   2.189
 3243TIP3    H2 9652   7.299   1.497   2.333
 3244TIP3   OH2 9653   6.845   2.832   1.652
 3244TIP3    H1 9654   6.797   2.870   1.726
 3244TIP3    H2 9655   6.804   2.870   1.575
 3245TIP3   OH2 9656   7.049   3.369   2.724
 3245TIP3    H1 9657   7.130   3.377   2.774
 3245TIP3    H2 9658   7.037   3.275   2.712
 3246TIP3   OH2 9659   7.508   3.273   2.759
 3246TIP3    H1 9660   7.597   3.240   2.772
 3246TIP3    H2 9661   7.474   3.220   2.687
 3247TIP3   OH2 9662   7.498   2.903   0.909
 3247TIP3    H1 9663   7.452   2.820   0.918
 3247TIP3    H2 9664   7.570   2.884   0.849
 3248TIP3   OH2 9665   8.090   3.198   2.503
 3248TIP3    H1 9666   8.085   3.122   2.562
 3248TIP3    H2 9667   8.163   3.249   2.538
 3249TIP3   OH2 9668   7.836   2.906   0.856
 3249TIP3    H1 9669   7.849   2.846   0.930
 3249TIP3    H2 9670   7.923   2.913   0.816
 3250TIP3   OH2 9671   7.146   2.765   2.904
 3250TIP3    H1 9672   7.167   2.673   2.917
 3250TIP3    H2 9673   7.058   2.765   2.865
 3251TIP3   OH2 9674   7.084   2.445   1.172
 3251TIP3    H1 9675   7.158   2.436   1.232
 3251TIP3    H2 9676   7.124   2.470   1.089
 3252TIP3   OH2 9677   7.758   2.856   2.686
 3252TIP3    H1 9678   7.723   2.880   2.600
 3252TIP3    H2 9679   7.794   2.768   2.674
 3253TIP3   OH2 9680   7.649   2.606   0.953
 3253TIP3    H1 9681   7.727   2.651   0.987
 3253TIP3    H2 9682   7.681   2.519   0.929
 3254TIP3   OH2 9683   8.176   2.852   2.308
 3254TIP3    H1 9684   8.271   2.846   2.294
 3254TIP3    H2 9685   8.152   2.939   2.276
 3255TIP3   OH2 9686   7.263   2.510   2.912
 3255TIP3    H1 9687   7.341   2.491   2.861
 3255TIP3    H2 9688   7.295   2.529   3.000
 3256TIP3   OH2 9689   7.290   2.379   1.338
 3256TIP3    H1 9690   7.252   2.312   1.394
 3256TIP3    H2 9691   7.330   2.331   1.266
 3257TIP3   OH2 9692   7.631   2.400   2.570
 3257TIP3    H1 9693   7.542   2.433   2.578
 3257TIP3    H2 9694   7.655   2.416   2.479
 3258TIP3   OH2 9695   7.397   2.225   1.139
 3258TIP3    H1 9696   7.359   2.151   1.093
 3258TIP3    H2 9697   7.477   2.190   1.180
 3259TIP3   OH2 9698   8.139   2.741   2.709
 3259TIP3    H1 9699   8.125   2.693   2.627
 3259TIP3    H2 9700   8.135   2.675   2.777
 3260TIP3   OH2 9701   7.715   2.164   2.689
 3260TIP3    H1 9702   7.719   2.091   2.628
 3260TIP3    H2 9703   7.684   2.238   2.636
 3261TIP3   OH2 9704   7.729   1.952   2.500
 3261TIP3    H1 9705   7.761   1.992   2.419
 3261TIP3    H2 9706   7.639   1.929   2.480
 3262TIP3   OH2 9707   7.718   2.448   2.314
 3262TIP3    H1 9708   7.804   2.449   2.273
 3262TIP3    H2 9709   7.673   2.523   2.277
 3263TIP3   OH2 9710   7.610   2.241   2.934
 3263TIP3    H1 9711   7.537   2.182   2.954
 3263TIP3    H2 9712   7.635   2.219   2.844
 3264TIP3   OH2 9713   7.830   1.718   2.613
 3264TIP3    H1 9714   7.795   1.799   2.578
 3264TIP3    H2 9715   7.766   1.651   2.587
 3265TIP3   OH2 9716   7.961   2.236   2.796
 3265TIP3    H1 9717   7.961   2.213   2.889
 3265TIP3    H2 9718   7.876   2.205   2.764
 3266TIP3   OH2 9719   8.188   2.184   2.650
 3266TIP3    H1 9720   8.115   2.188   2.710
 3266TIP3    H2 9721   8.260   2.149   2.702
 3267TIP3   OH2 9722   7.437   2.026   2.994
 3267TIP3    H1 9723   7.445   1.938   2.959
 3267TIP3    H2 9724   7.476   2.021   3.082
 3268TIP3   OH2 9725   7.920   1.715   2.873
 3268TIP3    H1 9726   7.932   1.623   2.900
 3268TIP3    H2 9727   7.889   1.709   2.783
 3269TIP3   OH2 9728   8.039   1.931   2.993
 3269TIP3    H1 9729   8.006   1.855   2.944
 3269TIP3    H2 9730   7.963   1.989   3.001
 3270TIP3   OH2 9731   7.253   3.196   1.114
 3270TIP3    H1 9732   7.345   3.181   1.092
 3270TIP3    H2 9733   7.218   3.244   1.039
 3271TIP3   OH2 9734   6.715   2.553   1.323
 3271TIP3    H1 9735   6.800   2.594   1.307
 3271TIP3    H2 9736   6.717   2.472   1.271
 3272TIP3   OH2 9737   6.643   3.143   1.738
 3272TIP3    H1 9738   6.580   3.088   1.691
 3272TIP3    H2 9739   6.688   3.082   1.796
 3273TIP3   OH2 9740   6.789   2.977   1.907
 3273TIP3    H1 9741   6.778   2.909   1.974
 3273TIP3    H2 9742   6.842   3.044   1.949
 3274TIP3   OH2 9743   7.178   2.081   2.911
 3274TIP3    H1 9744   7.271   2.080   2.935
 3274TIP3    H2 9745   7.142   2.002   2.952
 3275TIP3   OH2 9746   7.160   1.807   2.300
 3275TIP3    H1 9747   7.204   1.722   2.301
 3275TIP3    H2 9748   7.226   1.869   2.270
 3276TIP3   OH2 9749   6.937   2.118   2.378
 3276TIP3    H1 9750   6.986   2.107   2.297
 3276TIP3    H2 9751   6.998   2.094   2.448
 3277TIP3   OH2 9752   6.915   1.586   1.876
 3277TIP3    H1 9753   6.827   1.569   1.909
 3277TIP3    H2 9754   6.902   1.634   1.794
 3278TIP3   OH2 9755   8.129   3.273   1.370
 3278TIP3    H1 9756   8.152   3.292   1.278
 3278TIP3    H2 9757   8.133   3.358   1.413
 3279TIP3   OH2 9758   7.146   1.623   2.672
 3279TIP3    H1 9759   7.095   1.619   2.753
 3279TIP3    H2 9760   7.089   1.669   2.610
 3280TIP3   OH2 9761   7.173   3.088   2.733
 3280TIP3    H1 9762   7.080   3.064   2.727
 3280TIP3    H2 9763   7.195   3.076   2.825
 3281TIP3   OH2 9764   7.389   3.129   2.282
 3281TIP3    H1 9765   7.339   3.205   2.251
 3281TIP3    H2 9766   7.474   3.138   2.239
 3282TIP3   OH2 9767   7.781   3.360   2.422
 3282TIP3    H1 9768   7.818   3.353   2.510
 3282TIP3    H2 9769   7.847   3.407   2.371
 3283TIP3   OH2 9770   7.971   3.500   2.283
 3283TIP3    H1 9771   8.040   3.445   2.245
 3283TIP3    H2 9772   8.019   3.562   2.338
 3284TIP3   OH2 9773   7.050   3.363   2.335
 3284TIP3    H1 9774   6.959   3.382   2.311
 3284TIP3    H2 9775   7.072   3.430   2.399
 3285TIP3   OH2 9776   7.279   3.361   2.182
 3285TIP3    H1 9777   7.196   3.364   2.229
 3285TIP3    H2 9778   7.257   3.385   2.092
 3286TIP3   OH2 9779   7.688   3.388   1.970
 3286TIP3    H1 9780   7.612   3.402   1.914
 3286TIP3    H2 9781   7.699   3.472   2.015
 3287TIP3   OH2 9782   7.942   3.294   1.997
 3287TIP3    H1 9783   7.855   3.331   1.986
 3287TIP3    H2 9784   8.001   3.364   1.968
 3288TIP3   OH2 9785   8.150   3.465   1.918
 3288TIP3    H1 9786   8.149   3.556   1.888
 3288TIP3    H2 9787   8.186   3.416   1.844
 3289TIP3   OH2 9788   6.963   3.154   2.049
 3289TIP3    H1 9789   6.985   3.127   2.138
 3289TIP3    H2 9790   7.036   3.122   1.995
 3290TIP3   OH2 9791   7.166   3.045   1.905
 3290TIP3    H1 9792   7.181   2.962   1.951
 3290TIP3    H2 9793   7.252   3.087   1.904
 3291TIP3   OH2 9794   7.434   3.129   1.925
 3291TIP3    H1 9795   7.454   3.037   1.907
 3291TIP3    H2 9796   7.488   3.150   2.002
 3292TIP3   OH2 9797   7.952   1.770   2.061
 3292TIP3    H1 9798   7.892   1.703   2.093
 3292TIP3    H2 9799   8.029   1.722   2.031
 3293TIP3   OH2 9800   7.225   1.458   2.038
 3293TIP3    H1 9801   7.137   1.421   2.045
 3293TIP3    H2 9802   7.282   1.382   2.025
 3294TIP3   OH2 9803   7.041   1.382   1.735
 3294TIP3    H1 9804   7.033   1.429   1.652
 3294TIP3    H2 9805   7.005   1.441   1.800
 3295TIP3   OH2 9806   7.686   1.519   1.910
 3295TIP3    H1 9807   7.767   1.525   1.859
 3295TIP3    H2 9808   7.710   1.554   1.996
 3296TIP3   OH2 9809   6.732   2.953   1.433
 3296TIP3    H1 9810   6.650   2.922   1.394
 3296TIP3    H2 9811   6.736   3.046   1.410
 3297TIP3   OH2 9812   7.100   1.507   1.488
 3297TIP3    H1 9813   7.143   1.422   1.481
 3297TIP3    H2 9814   7.159   1.560   1.542
 3298TIP3   OH2 9815   7.647   1.703   1.627
 3298TIP3    H1 9816   7.671   1.661   1.710
 3298TIP3    H2 9817   7.588   1.774   1.653
 3299TIP3   OH2 9818   7.511   3.133   1.052
 3299TIP3    H1 9819   7.600   3.158   1.027
 3299TIP3    H2 9820   7.488   3.063   0.992
 3300TIP3   OH2 9821   7.451   1.756   2.899
 3300TIP3    H1 9822   7.417   1.689   2.958
 3300TIP3    H2 9823   7.543   1.766   2.925
 3301TIP3   OH2 9824   7.693   1.767   3.031
 3301TIP3    H1 9825   7.776   1.755   2.985
 3301TIP3    H2 9826   7.689   1.695   3.093
 3302TIP3   OH2 9827   6.850   3.006   1.126
 3302TIP3    H1 9828   6.832   2.973   1.214
 3302TIP3    H2 9829   6.921   2.952   1.094
 3303TIP3   OH2 9830   8.368   3.356   2.379
 3303TIP3    H1 9831   8.308   3.345   2.306
 3303TIP3    H2 9832   8.389   3.449   2.379
 3304TIP3   OH2 9833   0.391   3.304   3.248
 3304TIP3    H1 9834   0.358   3.392   3.231
 3304TIP3    H2 9835   0.316   3.247   3.235
 3305TIP3   OH2 9836   0.402   3.282   3.678
 3305TIP3    H1 9837   0.450   3.271   3.760
 3305TIP3    H2 9838   0.363   3.197   3.662
 3306TIP3   OH2 9839   8.578   3.063   4.004
 3306TIP3    H1 9840   8.629   3.018   4.071
 3306TIP3    H2 9841   8.612   3.153   4.005
 3307TIP3   OH2 9842   0.650   3.603   3.357
 3307TIP3    H1 9843   0.637   3.536   3.424
 3307TIP3    H2 9844   0.673   3.682   3.405
 3308TIP3   OH2 9845   8.611   3.595   3.718
 3308TIP3    H1 9846   8.572   3.534   3.780
 3308TIP3    H2 9847   8.705   3.580   3.726
 3309TIP3   OH2 9848   7.908   1.139   1.851
 3309TIP3    H1 9849   7.867   1.216   1.810
 3309TIP3    H2 9850   7.838   1.099   1.902
 3310TIP3   OH2 9851   8.381   3.116   3.565
 3310TIP3    H1 9852   8.340   3.052   3.624
 3310TIP3    H2 9853   8.314   3.134   3.499
 3311TIP3   OH2 9854   0.277   4.014   3.369
 3311TIP3    H1 9855   0.310   3.953   3.304
 3311TIP3    H2 9856   0.314   3.984   3.452
 3312TIP3   OH2 9857   0.248   3.513   3.665
 3312TIP3    H1 9858   0.290   3.430   3.645
 3312TIP3    H2 9859   0.318   3.568   3.701
 3313TIP3   OH2 9860   1.216   2.835   3.704
 3313TIP3    H1 9861   1.238   2.917   3.750
 3313TIP3    H2 9862   1.230   2.856   3.611
 3314TIP3   OH2 9863   0.623   2.999   3.728
 3314TIP3    H1 9864   0.654   2.912   3.756
 3314TIP3    H2 9865   0.578   2.983   3.645
 3315TIP3   OH2 9866   8.886   2.666   3.674
 3315TIP3    H1 9867   8.854   2.717   3.599
 3315TIP3    H2 9868   8.894   2.577   3.642
 3316TIP3   OH2 9869   0.657   2.776   3.308
 3316TIP3    H1 9870   0.710   2.766   3.387
 3316TIP3    H2 9871   0.720   2.764   3.236
 3317TIP3   OH2 9872   8.490   2.817   3.802
 3317TIP3    H1 9873   8.546   2.894   3.812
 3317TIP3    H2 9874   8.502   2.789   3.712
 3318TIP3   OH2 9875   0.048   3.064   3.611
 3318TIP3    H1 9876   0.141   3.048   3.630
 3318TIP3    H2 9877   0.015   2.981   3.579
 3319TIP3   OH2 9878   1.280   3.054   3.864
 3319TIP3    H1 9879   1.191   3.087   3.865
 3319TIP3    H2 9880   1.319   3.088   3.944
 3320TIP3   OH2 9881   8.875   2.633   4.120
 3320TIP3    H1 9882   8.825   2.674   4.049
 3320TIP3    H2 9883   8.835   2.667   4.200
 3321TIP3   OH2 9884   0.284   3.531   3.129
 3321TIP3    H1 9885   0.247   3.492   3.049
 3321TIP3    H2 9886   0.219   3.596   3.156
 3322TIP3   OH2 9887   0.124   3.423   3.891
 3322TIP3    H1 9888   0.048   3.479   3.910
 3322TIP3    H2 9889   0.168   3.466   3.817
 3323TIP3   OH2 9890   0.812   2.794   3.528
 3323TIP3    H1 9891   0.791   2.747   3.609
 3323TIP3    H2 9892   0.864   2.869   3.558
 3324TIP3   OH2 9893   8.761   2.754   3.905
 3324TIP3    H1 9894   8.805   2.837   3.916
 3324TIP3    H2 9895   8.797   2.717   3.825
 3325TIP3   OH2 9896   8.793   3.555   3.940
 3325TIP3    H1 9897   8.789   3.643   3.902
 3325TIP3    H2 9898   8.752   3.565   4.026
 3326TIP3   OH2 9899   0.681   3.848   3.496
 3326TIP3    H1 9900   0.592   3.839   3.529
 3326TIP3    H2 9901   0.682   3.933   3.452
 3327TIP3   OH2 9902   1.017   2.729   3.877
 3327TIP3    H1 9903   0.930   2.740   3.839
 3327TIP3    H2 9904   1.078   2.753   3.808
 3328TIP3   OH2 9905   0.300   2.362   3.858
 3328TIP3    H1 9906   0.290   2.267   3.860
 3328TIP3    H2 9907   0.218   2.397   3.892
 3329TIP3   OH2 9908   0.393   3.878   3.156
 3329TIP3    H1 9909   0.443   3.798   3.145
 3329TIP3    H2 9910   0.452   3.948   3.129
 3330TIP3   OH2 9911   0.533   3.649   3.112
 3330TIP3    H1 9912   0.457   3.592   3.116
 3330TIP3    H2 9913   0.585   3.627   3.189
 3331TIP3   OH2 9914   0.925   3.740   3.832
 3331TIP3    H1 9915   0.908   3.665   3.776
 3331TIP3    H2 9916   0.910   3.816   3.776
 3332TIP3   OH2 9917   0.211   3.133   3.116
 3332TIP3    H1 9918   0.125   3.171   3.095
 3332TIP3    H2 9919   0.259   3.136   3.033
 3333TIP3   OH2 9920   0.190   2.939   2.814
 3333TIP3    H1 9921   0.250   2.999   2.858
 3333TIP3    H2 9922   0.247   2.879   2.766
 3334TIP3   OH2 9923   1.099   3.395   3.710
 3334TIP3    H1 9924   1.015   3.442   3.706
 3334TIP3    H2 9925   1.139   3.411   3.625
 3335TIP3   OH2 9926   0.585   3.220   3.075
 3335TIP3    H1 9927   0.526   3.252   3.143
 3335TIP3    H2 9928   0.665   3.198   3.122
 3336TIP3   OH2 9929   0.803   3.257   4.020
 3336TIP3    H1 9930   0.800   3.341   4.066
 3336TIP3    H2 9931   0.721   3.254   3.971
 3337TIP3   OH2 9932   8.764   3.213   3.475
 3337TIP3    H1 9933   8.728   3.147   3.416
 3337TIP3    H2 9934   8.836   3.168   3.520
 3338TIP3   OH2 9935  -0.013   3.583   3.627
 3338TIP3    H1 9936  -0.045   3.520   3.562
 3338TIP3    H2 9937   0.080   3.561   3.638
 3339TIP3   OH2 9938   8.864   3.209   3.832
 3339TIP3    H1 9939   8.894   3.163   3.754
 3339TIP3    H2 9940   8.931   3.275   3.848
 3340TIP3   OH2 9941   0.436   3.831   3.619
 3340TIP3    H1 9942   0.449   3.912   3.668
 3340TIP3    H2 9943   0.438   3.762   3.686
 3341TIP3   OH2 9944   0.199   3.732   4.190
 3341TIP3    H1 9945   0.196   3.793   4.264
 3341TIP3    H2 9946   0.115   3.744   4.145
 3342TIP3   OH2 9947   0.390   3.117   2.906
 3342TIP3    H1 9948   0.453   3.170   2.955
 3342TIP3    H2 9949   0.418   3.124   2.815
 3343TIP3   OH2 9950   8.755   3.262   4.285
 3343TIP3    H1 9951   8.775   3.347   4.324
 3343TIP3    H2 9952   8.726   3.282   4.196
 3344TIP3   OH2 9953   0.137   3.766   3.175
 3344TIP3    H1 9954   0.225   3.805   3.176
 3344TIP3    H2 9955   0.088   3.821   3.114
 3345TIP3   OH2 9956   8.808   3.971   4.247
 3345TIP3    H1 9957   8.843   3.927   4.170
 3345TIP3    H2 9958   8.781   3.899   4.305
 3346TIP3   OH2 9959   0.883   2.401   2.931
 3346TIP3    H1 9960   0.822   2.403   3.005
 3346TIP3    H2 9961   0.898   2.308   2.914
 3347TIP3   OH2 9962   8.588   3.054   3.310
 3347TIP3    H1 9963   8.542   3.135   3.332
 3347TIP3    H2 9964   8.523   2.985   3.325
 3348TIP3   OH2 9965   0.726   3.694   2.523
 3348TIP3    H1 9966   0.722   3.787   2.503
 3348TIP3    H2 9967   0.818   3.670   2.508
 3349TIP3   OH2 9968   1.152   4.087   3.908
 3349TIP3    H1 9969   1.157   3.993   3.925
 3349TIP3    H2 9970   1.077   4.117   3.959
 3350TIP3   OH2 9971   0.292   3.897   3.985
 3350TIP3    H1 9972   0.289   3.979   4.034
 3350TIP3    H2 9973   0.270   3.830   4.050
 3351TIP3   OH2 9974   0.045   3.961   2.993
 3351TIP3    H1 9975  -0.013   3.943   2.920
 3351TIP3    H2 9976   0.032   4.054   3.013
 3352TIP3   OH2 9977   0.267   3.917   2.616
 3352TIP3    H1 9978   0.315   3.840   2.586
 3352TIP3    H2 9979   0.297   3.931   2.706
 3353TIP3   OH2 9980   0.299   3.962   2.886
 3353TIP3    H1 9981   0.212   3.954   2.925
 3353TIP3    H2 9982   0.359   3.926   2.951
 3354TIP3   OH2 9983   1.042   3.207   4.179
 3354TIP3    H1 9984   0.959   3.216   4.132
 3354TIP3    H2 9985   1.061   3.113   4.176
 3355TIP3   OH2 9986   8.673   3.634   4.183
 3355TIP3    H1 9987   8.726   3.589   4.248
 3355TIP3    H2 9988   8.606   3.680   4.234
 3356TIP3   OH2 9989   0.053   2.421   3.965
 3356TIP3    H1 9990  -0.031   2.388   3.934
 3356TIP3    H2 9991   0.030   2.497   4.018
 3357TIP3   OH2 9992   0.579   2.566   4.192
 3357TIP3    H1 9993   0.649   2.542   4.252
 3357TIP3    H2 9994   0.498   2.545   4.240
 3358TIP3   OH2 9995   0.799   2.990   4.103
 3358TIP3    H1 9996   0.762   2.983   4.190
 3358TIP3    H2 9997   0.783   3.081   4.077
 3359TIP3   OH2 9998   0.493   3.110   2.657
 3359TIP3    H1 9999   0.466   3.067   2.576
 3359TIP3    H210000   0.568   3.164   2.631
 3360TIP3   OH210001   8.904   2.979   3.973
 3360TIP3    H110002   8.861   2.990   4.059
 3360TIP3    H210003   8.880   3.059   3.925
 3361TIP3   OH210004   8.788   2.864   3.489
 3361TIP3    H110005   8.699   2.831   3.501
 3361TIP3    H210006   8.807   2.847   3.397
 3362TIP3   OH210007   0.356   2.946   3.252
 3362TIP3    H110008   0.299   3.013   3.214
 3362TIP3    H210009   0.417   2.924   3.181
 3363TIP3   OH210010   0.551   3.189   4.314
 3363TIP3    H110011   0.524   3.123   4.378
 3363TIP3    H210012   0.642   3.208   4.337
 3364TIP3   OH210013   0.514   2.954   3.479
 3364TIP3    H110014   0.446   2.975   3.415
 3364TIP3    H210015   0.563   2.882   3.439
 3365TIP3   OH210016   8.764   3.005   4.201
 3365TIP3    H110017   8.762   3.080   4.261
 3365TIP3    H210018   8.768   2.929   4.259
 3366TIP3   OH210019   8.342   2.417   3.811
 3366TIP3    H110020   8.389   2.449   3.889
 3366TIP3    H210021   8.400   2.440   3.738
 3367TIP3   OH210022   0.554   3.198   3.899
 3367TIP3    H110023   0.585   3.134   3.834
 3367TIP3    H210024   0.516   3.144   3.968
 3368TIP3   OH210025   0.262   2.698   3.600
 3368TIP3    H110026   0.182   2.688   3.650
 3368TIP3    H210027   0.330   2.660   3.655
 3369TIP3   OH210028   8.533   2.777   3.525
 3369TIP3    H110029   8.467   2.818   3.469
 3369TIP3    H210030   8.505   2.686   3.533
 3370TIP3   OH210031   8.842   2.765   3.232
 3370TIP3    H110032   8.934   2.776   3.256
 3370TIP3    H210033   8.830   2.670   3.225
 3371TIP3   OH210034   0.678   2.733   3.787
 3371TIP3    H110035   0.651   2.751   3.877
 3371TIP3    H210036   0.615   2.668   3.756
 3372TIP3   OH210037   0.877   4.445   4.003
 3372TIP3    H110038   0.873   4.459   3.909
 3372TIP3    H210039   0.956   4.491   4.032
 3373TIP3   OH210040   8.792   3.505   4.396
 3373TIP3    H110041   8.866   3.539   4.445
 3373TIP3    H210042   8.737   3.463   4.462
 3374TIP3   OH210043   0.307   3.013   3.681
 3374TIP3    H110044   0.363   2.957   3.628
 3374TIP3    H210045   0.301   2.969   3.766
 3375TIP3   OH210046   8.699   2.460   3.493
 3375TIP3    H110047   8.760   2.420   3.555
 3375TIP3    H210048   8.752   2.476   3.415
 3376TIP3   OH210049   0.267   2.913   3.937
 3376TIP3    H110050   0.177   2.942   3.953
 3376TIP3    H210051   0.320   2.969   3.994
 3377TIP3   OH210052   8.882   3.267   3.032
 3377TIP3    H110053   8.805   3.210   3.027
 3377TIP3    H210054   8.878   3.305   3.119
 3378TIP3   OH210055   0.865   3.536   3.659
 3378TIP3    H110056   0.902   3.583   3.584
 3378TIP3    H210057   0.785   3.496   3.625
 3379TIP3   OH210058   0.410   2.652   2.963
 3379TIP3    H110059   0.316   2.663   2.977
 3379TIP3    H210060   0.446   2.740   2.977
 3380TIP3   OH210061   0.411   3.588   4.078
 3380TIP3    H110062   0.470   3.572   4.151
 3380TIP3    H210063   0.334   3.629   4.118
 3381TIP3   OH210064   0.511   2.900   3.020
 3381TIP3    H110065   0.599   2.936   3.033
 3381TIP3    H210066   0.465   2.968   2.971
 3382TIP3   OH210067   8.631   3.304   3.714
 3382TIP3    H110068   8.663   3.285   3.625
 3382TIP3    H210069   8.690   3.255   3.771
 3383TIP3   OH210070   0.166   3.422   2.893
 3383TIP3    H110071   0.124   3.508   2.889
 3383TIP3    H210072   0.103   3.366   2.939
 3384TIP3   OH210073   0.318   3.322   4.378
 3384TIP3    H110074   0.248   3.266   4.344
 3384TIP3    H210075   0.398   3.287   4.339
 3385TIP3   OH210076   0.561   3.902   3.927
 3385TIP3    H110077   0.466   3.888   3.930
 3385TIP3    H210078   0.583   3.935   4.015
 3386TIP3   OH210079   1.167   3.807   3.935
 3386TIP3    H110080   1.073   3.795   3.923
 3386TIP3    H210081   1.205   3.783   3.850
 3387TIP3   OH210082   0.639   3.765   2.787
 3387TIP3    H110083   0.624   3.695   2.851
 3387TIP3    H210084   0.666   3.719   2.707
 3388TIP3   OH210085   0.635   3.407   3.560
 3388TIP3    H110086   0.548   3.383   3.593
 3388TIP3    H210087   0.672   3.324   3.528
 3389TIP3   OH210088   8.738   3.578   3.193
 3389TIP3    H110089   8.755   3.663   3.235
 3389TIP3    H210090   8.668   3.540   3.246
 3390TIP3   OH210091   8.895   3.369   3.283
 3390TIP3    H110092   8.850   3.451   3.263
 3390TIP3    H210093   8.847   3.333   3.358
 3391TIP3   OH210094   0.132   3.970   3.777
 3391TIP3    H110095   0.189   4.038   3.738
 3391TIP3    H210096   0.184   3.935   3.849
 3392TIP3   OH210097   8.578   3.869   3.125
 3392TIP3    H110098   8.495   3.887   3.170
 3392TIP3    H210099   8.636   3.939   3.154
 3393TIP3   OH210100   0.459   3.620   3.807
 3393TIP3    H110101   0.434   3.611   3.899
 3393TIP3    H210102   0.549   3.588   3.803
 3394TIP3   OH210103   0.419   3.490   2.697
 3394TIP3    H110104   0.489   3.460   2.755
 3394TIP3    H210105   0.338   3.470   2.746
 3395TIP3   OH210106   0.695   4.137   3.854
 3395TIP3    H110107   0.630   4.067   3.854
 3395TIP3    H210108   0.677   4.186   3.774
 3396TIP3   OH210109   0.735   3.967   2.481
 3396TIP3    H110110   0.775   4.034   2.425
 3396TIP3    H210111   0.660   4.012   2.521
 3397TIP3   OH210112   8.736   2.765   4.318
 3397TIP3    H110113   8.665   2.758   4.254
 3397TIP3    H210114   8.707   2.711   4.391
 3398TIP3   OH210115   0.617   3.399   2.859
 3398TIP3    H110116   0.600   3.349   2.939
 3398TIP3    H210117   0.712   3.403   2.854
 3399TIP3   OH210118   8.724   3.453   2.659
 3399TIP3    H110119   8.806   3.404   2.651
 3399TIP3    H210120   8.703   3.448   2.752
 3400TIP3   OH210121   8.651   3.471   2.922
 3400TIP3    H110122   8.664   3.418   3.001
 3400TIP3    H210123   8.691   3.556   2.943
 3401TIP3   OH210124   8.311   3.276   3.104
 3401TIP3    H110125   8.229   3.311   3.138
 3401TIP3    H210126   8.325   3.322   3.022
 3402TIP3   OH210127   0.606   2.797   4.046
 3402TIP3    H110128   0.686   2.838   4.077
 3402TIP3    H210129   0.597   2.718   4.100
 3403TIP3   OH210130   0.494   2.570   3.220
 3403TIP3    H110131   0.467   2.591   3.130
 3403TIP3    H210132   0.539   2.649   3.250
 3404TIP3   OH210133   0.053   3.663   2.871
 3404TIP3    H110134  -0.035   3.680   2.907
 3404TIP3    H210135   0.072   3.740   2.818
 3405TIP3   OH210136   0.193   2.743   3.337
 3405TIP3    H110137   0.255   2.810   3.308
 3405TIP3    H210138   0.216   2.728   3.429
 3406TIP3   OH210139   0.462   3.033   4.095
 3406TIP3    H110140   0.493   3.072   4.177
 3406TIP3    H210141   0.507   2.948   4.090
 3407TIP3   OH210142   0.349   2.475   3.434
 3407TIP3    H110143   0.341   2.557   3.483
 3407TIP3    H210144   0.406   2.498   3.360
 3408TIP3   OH210145   8.698   3.744   2.915
 3408TIP3    H110146   8.649   3.771   2.837
 3408TIP3    H210147   8.660   3.796   2.986
 3409TIP3   OH210148   1.061   2.931   4.080
 3409TIP3    H110149   0.967   2.945   4.091
 3409TIP3    H210150   1.068   2.867   4.010
 3410TIP3   OH210151   0.723   3.153   3.485
 3410TIP3    H110152   0.647   3.095   3.494
 3410TIP3    H210153   0.791   3.112   3.539
 3411TIP3   OH210154   8.383   3.417   2.883
 3411TIP3    H110155   8.477   3.431   2.873
 3411TIP3    H210156   8.354   3.385   2.798
 3412TIP3   OH210157   0.712   4.112   3.409
 3412TIP3    H110158   0.674   4.168   3.341
 3412TIP3    H210159   0.806   4.122   3.398
 3413TIP3   OH210160   8.689   2.329   3.948
 3413TIP3    H110161   8.618   2.272   3.920
 3413TIP3    H210162   8.724   2.288   4.027
 3414TIP3   OH210163  -0.006   4.038   4.505
 3414TIP3    H110164   0.059   4.109   4.505
 3414TIP3    H210165  -0.039   4.037   4.415
 3415TIP3   OH210166   8.842   3.673   2.546
 3415TIP3    H110167   8.795   3.606   2.594
 3415TIP3    H210168   8.920   3.629   2.512
 3416TIP3   OH210169   0.610   3.990   4.178
 3416TIP3    H110170   0.605   3.917   4.239
 3416TIP3    H210171   0.681   4.045   4.211
 3417TIP3   OH210172   0.378   3.691   2.510
 3417TIP3    H110173   0.411   3.631   2.577
 3417TIP3    H210174   0.441   3.686   2.439
 3418TIP3   OH210175   0.279   3.589   4.412
 3418TIP3    H110176   0.258   3.618   4.323
 3418TIP3    H210177   0.306   3.498   4.402
 3419TIP3   OH210178   0.092   3.372   2.633
 3419TIP3    H110179   0.122   3.384   2.723
 3419TIP3    H210180   0.100   3.278   2.618
 3420TIP3   OH210181   0.707   3.669   3.981
 3420TIP3    H110182   0.787   3.698   3.937
 3420TIP3    H210183   0.644   3.739   3.966
 3421TIP3   OH210184   8.685   3.339   4.586
 3421TIP3    H110185   8.651   3.252   4.566
 3421TIP3    H210186   8.758   3.323   4.646
 3422TIP3   OH210187   8.702   3.034   3.054
 3422TIP3    H110188   8.663   3.045   3.140
 3422TIP3    H210189   8.763   2.962   3.064
 3423TIP3   OH210190   0.120   3.161   4.272
 3423TIP3    H110191   0.031   3.196   4.271
 3423TIP3    H210192   0.156   3.186   4.188
 3424TIP3   OH210193   0.587   3.539   4.319
 3424TIP3    H110194   0.667   3.513   4.273
 3424TIP3    H210195   0.591   3.492   4.402
 3425TIP3   OH210196   0.703   3.226   2.520
 3425TIP3    H110197   0.694   3.179   2.437
 3425TIP3    H210198   0.670   3.313   2.503
 3426TIP3   OH210199   0.209   2.924   4.373
 3426TIP3    H110200   0.214   2.855   4.307
 3426TIP3    H210201   0.180   3.001   4.325
 3427TIP3   OH210202   0.222   2.742   4.160
 3427TIP3    H110203   0.252   2.780   4.078
 3427TIP3    H210204   0.137   2.704   4.139
 3428TIP3   OH210205   0.248   3.251   4.056
 3428TIP3    H110206   0.342   3.256   4.038
 3428TIP3    H210207   0.209   3.317   3.999
 3429TIP3   OH210208   0.812   3.227   4.418
 3429TIP3    H110209   0.855   3.143   4.432
 3429TIP3    H210210   0.884   3.289   4.407
 3430TIP3   OH210211   0.827   3.503   4.158
 3430TIP3    H110212   0.775   3.561   4.102
 3430TIP3    H210213   0.917   3.515   4.128
 3431TIP3   OH210214   0.053   3.018   4.583
 3431TIP3    H110215   0.010   2.938   4.611
 3431TIP3    H210216   0.105   2.992   4.507
 3432TIP3   OH210217   0.317   2.509   4.276
 3432TIP3    H110218   0.284   2.590   4.236
 3432TIP3    H210219   0.247   2.445   4.260
 3433TIP3   OH210220   0.458   2.988   4.476
 3433TIP3    H110221   0.453   2.977   4.571
 3433TIP3    H210222   0.373   2.959   4.444
 3434TIP3   OH210223   0.696   2.931   4.343
 3434TIP3    H110224   0.619   2.934   4.400
 3434TIP3    H210225   0.769   2.914   4.403
 3435TIP3   OH210226   0.927   2.910   4.496
 3435TIP3    H110227   0.941   2.815   4.502
 3435TIP3    H210228   0.922   2.939   4.587
 3436TIP3   OH210229   8.825   2.803   4.671
 3436TIP3    H110230   8.772   2.733   4.633
 3436TIP3    H210231   8.857   2.766   4.754
 3437TIP3   OH210232   0.392   2.489   4.536
 3437TIP3    H110233   0.459   2.421   4.526
 3437TIP3    H210234   0.356   2.499   4.448
 3438TIP3   OH210235   0.485   2.706   4.676
 3438TIP3    H110236   0.460   2.631   4.622
 3438TIP3    H210237   0.411   2.765   4.671
 3439TIP3   OH210238   8.702   4.034   2.785
 3439TIP3    H110239   8.775   3.977   2.759
 3439TIP3    H210240   8.666   4.066   2.703
 3440TIP3   OH210241   0.980   4.169   3.403
 3440TIP3    H110242   1.006   4.193   3.492
 3440TIP3    H210243   1.041   4.217   3.347
 3441TIP3   OH210244   1.005   4.192   3.686
 3441TIP3    H110245   0.955   4.111   3.678
 3441TIP3    H210246   1.073   4.172   3.751
 3442TIP3   OH210247   1.035   3.898   4.269
 3442TIP3    H110248   0.972   3.904   4.340
 3442TIP3    H210249   1.085   3.979   4.274
 3443TIP3   OH210250   0.894   3.389   2.860
 3443TIP3    H110251   0.946   3.465   2.835
 3443TIP3    H210252   0.939   3.353   2.937
 3444TIP3   OH210253   1.015   3.258   3.075
 3444TIP3    H110254   0.944   3.238   3.136
 3444TIP3    H210255   1.080   3.304   3.127
 3445TIP3   OH210256   1.044   3.671   3.496
 3445TIP3    H110257   1.100   3.600   3.462
 3445TIP3    H210258   1.053   3.741   3.432
 3446TIP3   OH210259   0.853   3.961   3.685
 3446TIP3    H110260   0.787   3.997   3.744
 3446TIP3    H210261   0.802   3.918   3.616
 3447TIP3   OH210262   0.902   3.166   2.696
 3447TIP3    H110263   0.832   3.186   2.634
 3447TIP3    H210264   0.896   3.235   2.762
 3448TIP3   OH210265   0.829   2.827   2.673
 3448TIP3    H110266   0.798   2.918   2.678
 3448TIP3    H210267   0.759   2.781   2.627
 3449TIP3   OH210268   0.810   3.137   3.228
 3449TIP3    H110269   0.855   3.054   3.244
 3449TIP3    H210270   0.775   3.163   3.313
 3450TIP3   OH210271   8.313   3.027   3.991
 3450TIP3    H110272   8.285   3.118   4.001
 3450TIP3    H210273   8.409   3.031   3.991
 3451TIP3   OH210274   1.085   3.548   4.065
 3451TIP3    H110275   1.146   3.476   4.048
 3451TIP3    H210276   1.110   3.615   4.002
 3452TIP3   OH210277   1.249   3.329   4.050
 3452TIP3    H110278   1.178   3.285   4.096
 3452TIP3    H210279   1.326   3.275   4.069
 3453TIP3   OH210280   0.739   2.526   2.622
 3453TIP3    H110281   0.788   2.483   2.693
 3453TIP3    H210282   0.650   2.534   2.656
 3454TIP3   OH210283   0.945   3.027   3.607
 3454TIP3    H110284   1.027   3.046   3.561
 3454TIP3    H210285   0.958   3.060   3.695
 3455TIP3   OH210286   1.019   3.166   3.839
 3455TIP3    H110287   0.948   3.193   3.897
 3455TIP3    H210288   1.050   3.247   3.800
 3456TIP3   OH210289   8.533   2.862   4.715
 3456TIP3    H110290   8.599   2.810   4.761
 3456TIP3    H210291   8.473   2.797   4.678
 3457TIP3   OH210292   1.478   2.765   4.376
 3457TIP3    H110293   1.542   2.707   4.335
 3457TIP3    H210294   1.441   2.815   4.303
 3458TIP3   OH210295   8.536   2.553   3.954
 3458TIP3    H110296   8.597   2.479   3.959
 3458TIP3    H210297   8.588   2.624   3.917
 3459TIP3   OH210298   8.311   2.756   3.999
 3459TIP3    H110299   8.369   2.748   3.924
 3459TIP3    H210300   8.288   2.849   4.003
 3460TIP3   OH210301   1.328   2.884   4.182
 3460TIP3    H110302   1.251   2.924   4.222
 3460TIP3    H210303   1.293   2.814   4.127
 3461TIP3   OH210304   1.012   2.569   2.765
 3461TIP3    H110305   0.970   2.517   2.833
 3461TIP3    H210306   1.046   2.505   2.703
 3462TIP3   OH210307   0.533   4.085   3.049
 3462TIP3    H110308   0.584   4.070   2.970
 3462TIP3    H210309   0.586   4.146   3.101
 3463TIP3   OH210310   8.522   2.370   4.408
 3463TIP3    H110311   8.489   2.381   4.497
 3463TIP3    H210312   8.486   2.444   4.359
 3464TIP3   OH210313   8.773   4.024   3.934
 3464TIP3    H110314   8.700   4.080   3.962
 3464TIP3    H210315   8.742   3.982   3.854
 3465TIP3   OH210316   0.304   4.140   4.110
 3465TIP3    H110317   0.338   4.123   4.199
 3465TIP3    H210318   0.376   4.184   4.065
 3466TIP3   OH210319   0.487   4.292   3.975
 3466TIP3    H110320   0.560   4.240   3.940
 3466TIP3    H210321   0.529   4.353   4.036
 3467TIP3   OH210322   1.237   2.635   4.073
 3467TIP3    H110323   1.151   2.628   4.032
 3467TIP3    H210324   1.273   2.546   4.067
 3468TIP3   OH210325   8.546   4.170   3.950
 3468TIP3    H110326   8.452   4.158   3.963
 3468TIP3    H210327   8.553   4.249   3.895
 3469TIP3   OH210328   0.223   4.188   3.629
 3469TIP3    H110329   0.152   4.220   3.574
 3469TIP3    H210330   0.233   4.254   3.697
 3470TIP3   OH210331   0.466   4.093   3.689
 3470TIP3    H110332   0.378   4.121   3.666
 3470TIP3    H210333   0.522   4.164   3.659
 3471TIP3   OH210334   0.651   4.284   3.615
 3471TIP3    H110335   0.640   4.369   3.574
 3471TIP3    H210336   0.677   4.226   3.544
 3472TIP3   OH210337   8.448   3.765   3.576
 3472TIP3    H110338   8.501   3.693   3.613
 3472TIP3    H210339   8.508   3.810   3.516
 3473TIP3   OH210340  -0.014   3.852   3.586
 3473TIP3    H110341  -0.004   3.758   3.600
 3473TIP3    H210342   0.047   3.892   3.648
 3474TIP3   OH210343   0.468   2.551   3.715
 3474TIP3    H110344   0.417   2.482   3.758
 3474TIP3    H210345   0.523   2.504   3.652
 3475TIP3   OH210346   0.936   2.496   3.621
 3475TIP3    H110347   0.977   2.528   3.541
 3475TIP3    H210348   0.845   2.480   3.596
 3476TIP3   OH210349   1.064   2.548   3.381
 3476TIP3    H110350   1.133   2.497   3.338
 3476TIP3    H210351   1.077   2.637   3.348
 3477TIP3   OH210352   0.045   2.392   3.606
 3477TIP3    H110353   0.084   2.355   3.527
 3477TIP3    H210354   0.085   2.344   3.678
 3478TIP3   OH210355   0.667   2.429   3.551
 3478TIP3    H110356   0.644   2.385   3.469
 3478TIP3    H210357   0.670   2.359   3.617
 3479TIP3   OH210358   0.704   2.404   3.140
 3479TIP3    H110359   0.629   2.455   3.169
 3479TIP3    H210360   0.696   2.321   3.187
 3480TIP3   OH210361   0.030   2.502   3.293
 3480TIP3    H110362   0.069   2.415   3.305
 3480TIP3    H210363   0.104   2.563   3.305
 3481TIP3   OH210364   0.011   3.886   2.704
 3481TIP3    H110365   0.095   3.912   2.666
 3481TIP3    H210366  -0.022   3.818   2.645
 3482TIP3   OH210367   0.678   4.033   2.819
 3482TIP3    H110368   0.669   3.938   2.811
 3482TIP3    H210369   0.639   4.067   2.738
 3483TIP3   OH210370   8.844   2.475   4.624
 3483TIP3    H110371   8.816   2.420   4.697
 3483TIP3    H210372   8.931   2.506   4.649
 3484TIP3   OH210373   0.196   2.540   4.727
 3484TIP3    H110374   0.266   2.517   4.665
 3484TIP3    H210375   0.199   2.470   4.792
 3485TIP3   OH210376   0.986   2.638   4.500
 3485TIP3    H110377   1.003   2.609   4.589
 3485TIP3    H210378   1.071   2.632   4.456
 3486TIP3   OH210379   0.915   4.171   4.020
 3486TIP3    H110380   0.839   4.145   3.968
 3486TIP3    H210381   0.907   4.266   4.028
 3487TIP3   OH210382   2.179   3.552   2.741
 3487TIP3    H110383   2.150   3.640   2.714
 3487TIP3    H210384   2.103   3.496   2.727
 3488TIP3   OH210385   2.174   3.549   3.169
 3488TIP3    H110386   2.227   3.534   3.247
 3488TIP3    H210387   2.130   3.465   3.154
 3489TIP3   OH210388   1.473   3.405   3.522
 3489TIP3    H110389   1.512   3.355   3.594
 3489TIP3    H210390   1.548   3.438   3.472
 3490TIP3   OH210391   2.438   3.860   2.840
 3490TIP3    H110392   2.432   3.793   2.908
 3490TIP3    H210393   2.463   3.940   2.887
 3491TIP3   OH210394   1.463   3.830   3.195
 3491TIP3    H110395   1.446   3.736   3.202
 3491TIP3    H210396   1.558   3.837   3.191
 3492TIP3   OH210397   1.154   3.016   3.034
 3492TIP3    H110398   1.106   3.099   3.044
 3492TIP3    H210399   1.141   2.971   3.117
 3493TIP3   OH210400   1.237   3.360   3.207
 3493TIP3    H110401   1.288   3.283   3.233
 3493TIP3    H210402   1.303   3.427   3.188
 3494TIP3   OH210403   2.105   4.286   2.842
 3494TIP3    H110404   2.132   4.223   2.776
 3494TIP3    H210405   2.117   4.240   2.925
 3495TIP3   OH210406   1.987   3.771   3.176
 3495TIP3    H110407   2.033   3.691   3.151
 3495TIP3    H210408   2.056   3.830   3.208
 3496TIP3   OH210409   3.028   3.092   3.185
 3496TIP3    H110410   3.039   3.174   3.232
 3496TIP3    H210411   3.060   3.110   3.096
 3497TIP3   OH210412   2.393   3.257   3.207
 3497TIP3    H110413   2.426   3.173   3.239
 3497TIP3    H210414   2.352   3.237   3.123
 3498TIP3   OH210415   1.748   2.920   3.172
 3498TIP3    H110416   1.727   2.992   3.113
 3498TIP3    H210417   1.693   2.848   3.142
 3499TIP3   OH210418   2.448   3.022   2.810
 3499TIP3    H110419   2.510   3.017   2.882
 3499TIP3    H210420   2.499   3.056   2.736
 3500TIP3   OH210421   1.373   3.135   3.292
 3500TIP3    H110422   1.453   3.120   3.342
 3500TIP3    H210423   1.384   3.082   3.213
 3501TIP3   OH210424   1.792   3.337   3.111
 3501TIP3    H110425   1.886   3.322   3.121
 3501TIP3    H210426   1.758   3.254   3.079
 3502TIP3   OH210427   3.072   3.312   3.346
 3502TIP3    H110428   2.984   3.351   3.346
 3502TIP3    H210429   3.115   3.351   3.422
 3503TIP3   OH210430   1.727   2.919   3.618
 3503TIP3    H110431   1.672   2.954   3.548
 3503TIP3    H210432   1.676   2.933   3.698
 3504TIP3   OH210433   2.077   3.768   2.601
 3504TIP3    H110434   2.038   3.750   2.515
 3504TIP3    H210435   2.026   3.841   2.635
 3505TIP3   OH210436   1.822   3.696   3.387
 3505TIP3    H110437   1.770   3.768   3.421
 3505TIP3    H210438   1.873   3.735   3.316
 3506TIP3   OH210439   2.610   3.043   3.026
 3506TIP3    H110440   2.565   3.022   3.108
 3506TIP3    H210441   2.663   3.119   3.047
 3507TIP3   OH210442   1.611   3.027   3.390
 3507TIP3    H110443   1.665   3.101   3.416
 3507TIP3    H210444   1.661   2.983   3.322
 3508TIP3   OH210445   1.665   3.900   3.489
 3508TIP3    H110446   1.652   3.990   3.460
 3508TIP3    H210447   1.588   3.881   3.543
 3509TIP3   OH210448   1.046   3.601   2.756
 3509TIP3    H110449   1.012   3.621   2.669
 3509TIP3    H210450   1.069   3.686   2.793
 3510TIP3   OH210451   2.479   4.106   2.980
 3510TIP3    H110452   2.392   4.098   3.019
 3510TIP3    H210453   2.477   4.191   2.935
 3511TIP3   OH210454   2.818   2.977   3.343
 3511TIP3    H110455   2.733   3.005   3.309
 3511TIP3    H210456   2.881   3.007   3.277
 3512TIP3   OH210457   2.065   2.608   3.352
 3512TIP3    H110458   2.061   2.517   3.381
 3512TIP3    H210459   1.989   2.649   3.392
 3513TIP3   OH210460   2.181   4.130   2.621
 3513TIP3    H110461   2.237   4.053   2.613
 3513TIP3    H210462   2.237   4.203   2.593
 3514TIP3   OH210463   2.326   3.898   2.590
 3514TIP3    H110464   2.251   3.839   2.595
 3514TIP3    H210465   2.375   3.881   2.671
 3515TIP3   OH210466   2.720   3.994   3.326
 3515TIP3    H110467   2.702   3.919   3.269
 3515TIP3    H210468   2.704   4.070   3.270
 3516TIP3   OH210469   1.996   3.394   2.595
 3516TIP3    H110470   1.918   3.446   2.575
 3516TIP3    H210471   2.050   3.400   2.516
 3517TIP3   OH210472   1.975   3.186   2.312
 3517TIP3    H110473   2.038   3.234   2.365
 3517TIP3    H210474   2.028   3.127   2.259
 3518TIP3   OH210475   2.892   3.646   3.192
 3518TIP3    H110476   2.810   3.694   3.189
 3518TIP3    H210477   2.933   3.664   3.107
 3519TIP3   OH210478   2.369   3.475   2.562
 3519TIP3    H110479   2.314   3.507   2.633
 3519TIP3    H210480   2.453   3.456   2.604
 3520TIP3   OH210481   2.592   3.510   3.500
 3520TIP3    H110482   2.593   3.595   3.544
 3520TIP3    H210483   2.508   3.509   3.453
 3521TIP3   OH210484   1.597   3.469   2.959
 3521TIP3    H110485   1.563   3.406   2.895
 3521TIP3    H210486   1.670   3.424   3.001
 3522TIP3   OH210487   1.730   3.883   3.104
 3522TIP3    H110488   1.712   3.871   3.011
 3522TIP3    H210489   1.817   3.848   3.117
 3523TIP3   OH210490   1.686   3.464   3.336
 3523TIP3    H110491   1.728   3.428   3.257
 3523TIP3    H210492   1.735   3.543   3.355
 3524TIP3   OH210493   2.240   4.096   3.111
 3524TIP3    H110494   2.227   4.178   3.159
 3524TIP3    H210495   2.226   4.028   3.176
 3525TIP3   OH210496   1.866   3.999   3.656
 3525TIP3    H110497   1.805   4.054   3.705
 3525TIP3    H210498   1.810   3.946   3.599
 3526TIP3   OH210499   2.198   3.336   2.400
 3526TIP3    H110500   2.258   3.393   2.448
 3526TIP3    H210501   2.219   3.352   2.308
 3527TIP3   OH210502   1.624   3.568   3.780
 3527TIP3    H110503   1.623   3.659   3.810
 3527TIP3    H210504   1.532   3.542   3.780
 3528TIP3   OH210505   1.939   4.000   2.654
 3528TIP3    H110506   2.018   4.054   2.651
 3528TIP3    H210507   1.868   4.060   2.632
 3529TIP3   OH210508   1.652   4.154   3.743
 3529TIP3    H110509   1.628   4.164   3.651
 3529TIP3    H210510   1.569   4.142   3.788
 3530TIP3   OH210511   2.701   2.574   2.442
 3530TIP3    H110512   2.626   2.593   2.499
 3530TIP3    H210513   2.710   2.652   2.387
 3531TIP3   OH210514   1.471   3.310   2.758
 3531TIP3    H110515   1.391   3.356   2.732
 3531TIP3    H210516   1.442   3.221   2.780
 3532TIP3   OH210517   2.520   3.935   1.986
 3532TIP3    H110518   2.512   4.030   1.976
 3532TIP3    H210519   2.613   3.917   1.972
 3533TIP3   OH210520   1.249   3.713   3.692
 3533TIP3    H110521   1.179   3.690   3.631
 3533TIP3    H210522   1.283   3.629   3.722
 3534TIP3   OH210523   1.114   3.893   3.334
 3534TIP3    H110524   1.210   3.896   3.331
 3534TIP3    H210525   1.089   3.971   3.384
 3535TIP3   OH210526   2.946   4.366   3.394
 3535TIP3    H110527   2.952   4.271   3.404
 3535TIP3    H210528   2.867   4.391   3.441
 3536TIP3   OH210529   2.052   4.146   3.517
 3536TIP3    H110530   2.044   4.236   3.550
 3536TIP3    H210531   1.987   4.097   3.567
 3537TIP3   OH210532   1.271   4.095   2.849
 3537TIP3    H110533   1.317   4.089   2.933
 3537TIP3    H210534   1.225   4.012   2.841
 3538TIP3   OH210535   2.065   4.184   2.082
 3538TIP3    H110536   2.102   4.099   2.055
 3538TIP3    H210537   2.069   4.183   2.177
 3539TIP3   OH210538   2.084   4.194   2.359
 3539TIP3    H110539   1.992   4.219   2.370
 3539TIP3    H210540   2.111   4.163   2.445
 3540TIP3   OH210541   2.851   3.457   3.666
 3540TIP3    H110542   2.761   3.478   3.644
 3540TIP3    H210543   2.859   3.363   3.647
 3541TIP3   OH210544   1.447   3.903   3.660
 3541TIP3    H110545   1.498   3.892   3.740
 3541TIP3    H210546   1.377   3.839   3.668
 3542TIP3   OH210547   1.826   2.702   3.473
 3542TIP3    H110548   1.740   2.670   3.443
 3542TIP3    H210549   1.806   2.782   3.521
 3543TIP3   OH210550   2.368   2.823   3.675
 3543TIP3    H110551   2.438   2.799   3.735
 3543TIP3    H210552   2.288   2.808   3.724
 3544TIP3   OH210553   2.611   3.248   3.592
 3544TIP3    H110554   2.563   3.240   3.674
 3544TIP3    H210555   2.589   3.336   3.560
 3545TIP3   OH210556   2.247   3.353   2.127
 3545TIP3    H110557   2.233   3.325   2.036
 3545TIP3    H210558   2.328   3.403   2.124
 3546TIP3   OH210559   1.990   2.746   2.451
 3546TIP3    H110560   1.957   2.753   2.541
 3546TIP3    H210561   1.951   2.665   2.417
 3547TIP3   OH210562   1.765   3.238   3.477
 3547TIP3    H110563   1.726   3.245   3.564
 3547TIP3    H210564   1.743   3.320   3.434
 3548TIP3   OH210565   1.658   3.119   3.004
 3548TIP3    H110566   1.570   3.092   3.031
 3548TIP3    H210567   1.667   3.085   2.915
 3549TIP3   OH210568   2.126   3.193   2.734
 3549TIP3    H110569   2.078   3.264   2.692
 3549TIP3    H210570   2.185   3.161   2.666
 3550TIP3   OH210571   2.319   3.461   3.804
 3550TIP3    H110572   2.288   3.395   3.865
 3550TIP3    H210573   2.410   3.475   3.828
 3551TIP3   OH210574   2.292   3.201   2.960
 3551TIP3    H110575   2.225   3.223   2.896
 3551TIP3    H210576   2.343   3.131   2.919
 3552TIP3   OH210577   1.611   3.243   3.708
 3552TIP3    H110578   1.671   3.291   3.765
 3552TIP3    H210579   1.593   3.162   3.755
 3553TIP3   OH210580   1.651   2.737   2.421
 3553TIP3    H110581   1.646   2.733   2.517
 3553TIP3    H210582   1.577   2.791   2.396
 3554TIP3   OH210583   1.175   2.823   3.234
 3554TIP3    H110584   1.245   2.827   3.299
 3554TIP3    H210585   1.199   2.750   3.177
 3555TIP3   OH210586   1.123   2.834   2.838
 3555TIP3    H110587   1.174   2.873   2.767
 3555TIP3    H210588   1.130   2.897   2.909
 3556TIP3   OH210589   2.337   3.459   3.381
 3556TIP3    H110590   2.364   3.391   3.318
 3556TIP3    H210591   2.297   3.410   3.453
 3557TIP3   OH210592   2.012   2.906   3.058
 3557TIP3    H110593   1.935   2.907   3.115
 3557TIP3    H210594   2.086   2.893   3.117
 3558TIP3   OH210595   1.428   2.986   3.066
 3558TIP3    H110596   1.336   2.981   3.038
 3558TIP3    H210597   1.459   2.896   3.061
 3559TIP3   OH210598   1.663   2.992   2.759
 3559TIP3    H110599   1.757   3.004   2.749
 3559TIP3    H210600   1.626   3.009   2.673
 3560TIP3   OH210601   2.466   2.992   3.259
 3560TIP3    H110602   2.453   3.007   3.352
 3560TIP3    H210603   2.397   2.929   3.235
 3561TIP3   OH210604   1.541   3.014   2.513
 3561TIP3    H110605   1.474   2.974   2.458
 3561TIP3    H210606   1.596   3.063   2.453
 3562TIP3   OH210607   2.661   4.701   3.484
 3562TIP3    H110608   2.657   4.719   3.390
 3562TIP3    H210609   2.738   4.749   3.515
 3563TIP3   OH210610   1.601   3.823   3.894
 3563TIP3    H110611   1.683   3.839   3.941
 3563TIP3    H210612   1.533   3.826   3.962
 3564TIP3   OH210613   2.062   3.280   3.164
 3564TIP3    H110614   2.130   3.230   3.119
 3564TIP3    H210615   2.060   3.243   3.252
 3565TIP3   OH210616   1.562   2.739   3.059
 3565TIP3    H110617   1.529   2.666   3.111
 3565TIP3    H210618   1.604   2.697   2.983
 3566TIP3   OH210619   2.037   3.190   3.428
 3566TIP3    H110620   1.950   3.220   3.454
 3566TIP3    H210621   2.097   3.239   3.485
 3567TIP3   OH210622   1.771   3.548   2.530
 3567TIP3    H110623   1.697   3.491   2.507
 3567TIP3    H210624   1.745   3.586   2.614
 3568TIP3   OH210625   2.661   3.791   3.147
 3568TIP3    H110626   2.698   3.841   3.074
 3568TIP3    H210627   2.581   3.752   3.111
 3569TIP3   OH210628   2.209   2.885   2.370
 3569TIP3    H110629   2.131   2.843   2.407
 3569TIP3    H210630   2.231   2.954   2.432
 3570TIP3   OH210631   2.181   3.870   3.567
 3570TIP3    H110632   2.235   3.852   3.644
 3570TIP3    H210633   2.146   3.958   3.583
 3571TIP3   OH210634   2.295   3.102   2.523
 3571TIP3    H110635   2.389   3.107   2.540
 3571TIP3    H210636   2.275   3.182   2.476
 3572TIP3   OH210637   1.456   3.540   3.188
 3572TIP3    H110638   1.497   3.526   3.103
 3572TIP3    H210639   1.523   3.514   3.251
 3573TIP3   OH210640   1.916   3.727   2.373
 3573TIP3    H110641   1.872   3.811   2.366
 3573TIP3    H210642   1.857   3.673   2.426
 3574TIP3   OH210643   1.355   3.502   3.840
 3574TIP3    H110644   1.389   3.499   3.929
 3574TIP3    H210645   1.291   3.431   3.835
 3575TIP3   OH210646   2.090   3.621   3.838
 3575TIP3    H110647   2.026   3.561   3.799
 3575TIP3    H210648   2.175   3.582   3.817
 3576TIP3   OH210649   2.322   4.160   3.439
 3576TIP3    H110650   2.227   4.147   3.444
 3576TIP3    H210651   2.345   4.200   3.523
 3577TIP3   OH210652   2.711   3.210   2.342
 3577TIP3    H110653   2.654   3.163   2.281
 3577TIP3    H210654   2.715   3.300   2.308
 3578TIP3   OH210655   2.962   4.090   3.414
 3578TIP3    H110656   2.869   4.066   3.414
 3578TIP3    H210657   2.995   4.059   3.330
 3579TIP3   OH210658   2.463   4.021   2.268
 3579TIP3    H110659   2.426   3.966   2.336
 3579TIP3    H210660   2.465   3.965   2.190
 3580TIP3   OH210661   2.431   3.658   3.042
 3580TIP3    H110662   2.343   3.637   3.070
 3580TIP3    H210663   2.466   3.575   3.008
 3581TIP3   OH210664   1.588   3.895   2.856
 3581TIP3    H110665   1.584   3.970   2.797
 3581TIP3    H210666   1.503   3.892   2.898
 3582TIP3   OH210667   1.148   3.176   2.577
 3582TIP3    H110668   1.188   3.259   2.602
 3582TIP3    H210669   1.067   3.172   2.627
 3583TIP3   OH210670   1.666   3.650   2.757
 3583TIP3    H110671   1.651   3.739   2.789
 3583TIP3    H210672   1.645   3.594   2.832
 3584TIP3   OH210673   1.869   4.216   3.311
 3584TIP3    H110674   1.904   4.290   3.262
 3584TIP3    H210675   1.943   4.185   3.364
 3585TIP3   OH210676   1.508   4.117   2.702
 3585TIP3    H110677   1.420   4.123   2.740
 3585TIP3    H210678   1.543   4.206   2.706
 3586TIP3   OH210679   2.218   3.879   3.293
 3586TIP3    H110680   2.202   3.875   3.387
 3586TIP3    H210681   2.304   3.838   3.281
 3587TIP3   OH210682   2.222   3.739   2.152
 3587TIP3    H110683   2.274   3.705   2.225
 3587TIP3    H210684   2.131   3.722   2.177
 3588TIP3   OH210685   2.475   4.372   3.326
 3588TIP3    H110686   2.405   4.309   3.343
 3588TIP3    H210687   2.441   4.426   3.255
 3589TIP3   OH210688   2.517   4.212   1.960
 3589TIP3    H110689   2.535   4.276   1.891
 3589TIP3    H210690   2.449   4.253   2.013
 3590TIP3   OH210691   1.562   2.990   3.830
 3590TIP3    H110692   1.467   2.997   3.839
 3590TIP3    H210693   1.590   2.940   3.907
 3591TIP3   OH210694   2.399   3.627   2.331
 3591TIP3    H110695   2.383   3.588   2.417
 3591TIP3    H210696   2.491   3.653   2.333
 3592TIP3   OH210697   1.293   4.112   3.478
 3592TIP3    H110698   1.344   4.052   3.532
 3592TIP3    H210699   1.309   4.198   3.516
 3593TIP3   OH210700   1.552   3.715   2.179
 3593TIP3    H110701   1.572   3.624   2.157
 3593TIP3    H210702   1.535   3.714   2.273
 3594TIP3   OH210703   1.507   3.733   2.454
 3594TIP3    H110704   1.565   3.708   2.525
 3594TIP3    H210705   1.510   3.829   2.453
 3595TIP3   OH210706   1.240   3.427   2.655
 3595TIP3    H110707   1.178   3.476   2.710
 3595TIP3    H210708   1.259   3.486   2.582
 3596TIP3   OH210709   2.420   3.046   3.521
 3596TIP3    H110710   2.489   3.094   3.566
 3596TIP3    H210711   2.400   2.973   3.579
 3597TIP3   OH210712   2.298   2.812   2.717
 3597TIP3    H110713   2.262   2.853   2.638
 3597TIP3    H210714   2.347   2.881   2.760
 3598TIP3   OH210715   1.783   3.969   2.334
 3598TIP3    H110716   1.696   3.971   2.374
 3598TIP3    H210717   1.811   4.061   2.333
 3599TIP3   OH210718   1.941   3.003   2.808
 3599TIP3    H110719   2.002   3.072   2.784
 3599TIP3    H210720   1.963   2.981   2.898
 3600TIP3   OH210721   2.245   3.297   3.585
 3600TIP3    H110722   2.266   3.347   3.664
 3600TIP3    H210723   2.293   3.215   3.596
 3601TIP3   OH210724   2.113   2.697   2.895
 3601TIP3    H110725   2.091   2.772   2.949
 3601TIP3    H210726   2.184   2.728   2.839
 3602TIP3   OH210727   1.530   4.003   2.449
 3602TIP3    H110728   1.514   4.071   2.384
 3602TIP3    H210729   1.525   4.048   2.533
 3603TIP3   OH210730   1.631   2.720   2.699
 3603TIP3    H110731   1.619   2.808   2.733
 3603TIP3    H210732   1.725   2.704   2.707
 3604TIP3   OH210733   2.872   3.187   3.563
 3604TIP3    H110734   2.778   3.196   3.577
 3604TIP3    H210735   2.880   3.138   3.481
 3605TIP3   OH210736   2.525   3.398   2.960
 3605TIP3    H110737   2.449   3.345   2.982
 3605TIP3    H210738   2.595   3.362   3.015
 3606TIP3   OH210739   1.260   3.607   2.439
 3606TIP3    H110740   1.332   3.670   2.452
 3606TIP3    H210741   1.293   3.545   2.374
 3607TIP3   OH210742   1.141   2.897   2.578
 3607TIP3    H110743   1.160   2.990   2.569
 3607TIP3    H210744   1.118   2.869   2.489
 3608TIP3   OH210745   2.500   4.371   2.894
 3608TIP3    H110746   2.458   4.423   2.824
 3608TIP3    H210747   2.594   4.384   2.880
 3609TIP3   OH210748   1.562   2.617   3.433
 3609TIP3    H110749   1.537   2.578   3.349
 3609TIP3    H210750   1.557   2.544   3.495
 3610TIP3   OH210751   1.095   3.870   2.836
 3610TIP3    H110752   1.057   3.910   2.915
 3610TIP3    H210753   1.051   3.915   2.764
 3611TIP3   OH210754   1.307   4.414   3.899
 3611TIP3    H110755   1.387   4.425   3.950
 3611TIP3    H210756   1.302   4.320   3.881
 3612TIP3   OH210757   1.761   4.318   3.936
 3612TIP3    H110758   1.850   4.287   3.951
 3612TIP3    H210759   1.728   4.264   3.864
 3613TIP3   OH210760   1.711   3.904   2.061
 3613TIP3    H110761   1.659   3.834   2.100
 3613TIP3    H210762   1.760   3.941   2.135
 3614TIP3   OH210763   2.377   4.270   3.683
 3614TIP3    H110764   2.383   4.195   3.742
 3614TIP3    H210765   2.452   4.324   3.704
 3615TIP3   OH210766   2.171   3.951   1.981
 3615TIP3    H110767   2.203   3.886   2.043
 3615TIP3    H210768   2.236   3.951   1.911
 3616TIP3   OH210769   1.399   3.808   4.086
 3616TIP3    H110770   1.422   3.716   4.096
 3616TIP3    H210771   1.312   3.808   4.047
 3617TIP3   OH210772   1.388   3.419   2.288
 3617TIP3    H110773   1.438   3.395   2.366
 3617TIP3    H210774   1.454   3.432   2.220
 3618TIP3   OH210775   2.019   3.896   3.863
 3618TIP3    H110776   1.976   3.916   3.780
 3618TIP3    H210777   2.057   3.809   3.849
 3619TIP3   OH210778   1.935   3.649   2.110
 3619TIP3    H110779   1.915   3.677   2.200
 3619TIP3    H210780   1.930   3.554   2.112
 3620TIP3   OH210781   2.491   3.934   3.471
 3620TIP3    H110782   2.570   3.964   3.426
 3620TIP3    H210783   2.428   4.005   3.459
 3621TIP3   OH210784   1.515   3.548   4.080
 3621TIP3    H110785   1.597   3.527   4.036
 3621TIP3    H210786   1.540   3.567   4.170
 3622TIP3   OH210787   1.564   3.363   2.497
 3622TIP3    H110788   1.544   3.338   2.587
 3622TIP3    H210789   1.612   3.288   2.461
 3623TIP3   OH210790   1.848   3.417   3.732
 3623TIP3    H110791   1.777   3.478   3.747
 3623TIP3    H210792   1.896   3.454   3.658
 3624TIP3   OH210793   1.701   3.167   2.353
 3624TIP3    H110794   1.679   3.178   2.260
 3624TIP3    H210795   1.796   3.169   2.355
 3625TIP3   OH210796   2.367   3.803   3.822
 3625TIP3    H110797   2.443   3.765   3.777
 3625TIP3    H210798   2.362   3.755   3.905
 3626TIP3   OH210799   2.482   3.445   1.977
 3626TIP3    H110800   2.562   3.436   1.926
 3626TIP3    H210801   2.458   3.537   1.968
 3627TIP3   OH210802   1.946   3.199   3.868
 3627TIP3    H110803   1.974   3.131   3.807
 3627TIP3    H210804   1.924   3.274   3.812
 3628TIP3   OH210805   1.985   3.010   3.654
 3628TIP3    H110806   2.013   3.048   3.570
 3628TIP3    H210807   1.895   2.983   3.639
 3629TIP3   OH210808   1.993   3.539   3.537
 3629TIP3    H110809   2.082   3.573   3.525
 3629TIP3    H210810   1.938   3.597   3.486
 3630TIP3   OH210811   2.578   3.487   3.921
 3630TIP3    H110812   2.614   3.409   3.964
 3630TIP3    H210813   2.649   3.551   3.923
 3631TIP3   OH210814   2.623   3.756   3.632
 3631TIP3    H110815   2.567   3.818   3.585
 3631TIP3    H210816   2.711   3.774   3.600
 3632TIP3   OH210817   1.841   3.299   4.102
 3632TIP3    H110818   1.778   3.232   4.128
 3632TIP3    H210819   1.875   3.269   4.017
 3633TIP3   OH210820   2.103   2.777   3.752
 3633TIP3    H110821   2.061   2.856   3.719
 3633TIP3    H210822   2.037   2.709   3.740
 3634TIP3   OH210823   2.245   3.256   3.965
 3634TIP3    H110824   2.300   3.245   4.043
 3634TIP3    H210825   2.160   3.222   3.991
 3635TIP3   OH210826   2.472   3.188   3.814
 3635TIP3    H110827   2.393   3.197   3.868
 3635TIP3    H210828   2.542   3.170   3.877
 3636TIP3   OH210829   2.698   3.147   3.974
 3636TIP3    H110830   2.708   3.052   3.975
 3636TIP3    H210831   2.693   3.172   4.066
 3637TIP3   OH210832   1.690   3.072   4.171
 3637TIP3    H110833   1.700   2.985   4.130
 3637TIP3    H210834   1.731   3.063   4.257
 3638TIP3   OH210835   2.154   2.774   4.022
 3638TIP3    H110836   2.233   2.720   4.021
 3638TIP3    H210837   2.128   2.780   3.930
 3639TIP3   OH210838   2.256   2.969   4.191
 3639TIP3    H110839   2.228   2.904   4.127
 3639TIP3    H210840   2.189   3.037   4.186
 3640TIP3   OH210841   1.521   4.194   2.253
 3640TIP3    H110842   1.605   4.226   2.286
 3640TIP3    H210843   1.507   4.243   2.172
 3641TIP3   OH210844   0.988   3.616   2.475
 3641TIP3    H110845   1.083   3.628   2.465
 3641TIP3    H210846   0.969   3.537   2.424
 3642TIP3   OH210847   0.893   4.179   2.913
 3642TIP3    H110848   0.827   4.126   2.869
 3642TIP3    H210849   0.937   4.118   2.972
 3643TIP3   OH210850   1.038   4.013   3.082
 3643TIP3    H110851   1.032   3.945   3.149
 3643TIP3    H210852   1.090   4.083   3.122
 3644TIP3   OH210853   2.773   4.421   2.891
 3644TIP3    H110854   2.788   4.446   2.982
 3644TIP3    H210855   2.823   4.483   2.839
 3645TIP3   OH210856   2.787   4.454   3.170
 3645TIP3    H110857   2.741   4.370   3.167
 3645TIP3    H210858   2.856   4.441   3.234
 3646TIP3   OH210859   2.838   4.153   3.753
 3646TIP3    H110860   2.769   4.162   3.818
 3646TIP3    H210861   2.883   4.237   3.752
 3647TIP3   OH210862   2.676   3.662   2.344
 3647TIP3    H110863   2.729   3.738   2.318
 3647TIP3    H210864   2.721   3.627   2.422
 3648TIP3   OH210865   2.804   3.526   2.552
 3648TIP3    H110866   2.739   3.493   2.613
 3648TIP3    H210867   2.872   3.565   2.608
 3649TIP3   OH210868   2.836   3.932   2.985
 3649TIP3    H110869   2.891   3.864   2.947
 3649TIP3    H210870   2.842   4.005   2.922
 3650TIP3   OH210871   2.648   4.213   3.175
 3650TIP3    H110872   2.581   4.258   3.227
 3650TIP3    H210873   2.600   4.172   3.103
 3651TIP3   OH210874   2.684   3.440   2.187
 3651TIP3    H110875   2.602   3.439   2.138
 3651TIP3    H210876   2.679   3.519   2.241
 3652TIP3   OH210877   2.557   3.102   2.150
 3652TIP3    H110878   2.502   3.132   2.077
 3652TIP3    H210879   2.555   3.007   2.144
 3653TIP3   OH210880   2.599   3.391   2.694
 3653TIP3    H110881   2.608   3.296   2.685
 3653TIP3    H210882   2.579   3.404   2.787
 3654TIP3   OH210883   1.212   3.454   3.465
 3654TIP3    H110884   1.205   3.421   3.375
 3654TIP3    H210885   1.305   3.446   3.487
 3655TIP3   OH210886   2.883   3.799   3.539
 3655TIP3    H110887   2.946   3.729   3.527
 3655TIP3    H210888   2.895   3.856   3.463
 3656TIP3   OH210889   3.053   3.582   3.531
 3656TIP3    H110890   2.984   3.538   3.581
 3656TIP3    H210891   3.132   3.530   3.549
 3657TIP3   OH210892   2.514   2.835   2.096
 3657TIP3    H110893   2.582   2.804   2.156
 3657TIP3    H210894   2.437   2.783   2.119
 3658TIP3   OH210895   2.581   3.105   2.574
 3658TIP3    H110896   2.628   3.023   2.586
 3658TIP3    H210897   2.626   3.149   2.501
 3659TIP3   OH210898   2.744   3.277   3.096
 3659TIP3    H110899   2.825   3.295   3.049
 3659TIP3    H210900   2.756   3.317   3.182
 3660TIP3   OH210901   2.810   3.421   3.327
 3660TIP3    H110902   2.740   3.449   3.385
 3660TIP3    H210903   2.840   3.502   3.285
 3661TIP3   OH210904   1.430   3.125   4.097
 3661TIP3    H110905   1.523   3.124   4.118
 3661TIP3    H210906   1.396   3.045   4.136
 3662TIP3   OH210907   3.303   3.034   3.830
 3662TIP3    H110908   3.253   2.963   3.871
 3662TIP3    H210909   3.238   3.082   3.778
 3663TIP3   OH210910   2.701   2.860   2.624
 3663TIP3    H110911   2.750   2.848   2.706
 3663TIP3    H210912   2.639   2.787   2.623
 3664TIP3   OH210913   1.388   2.835   3.416
 3664TIP3    H110914   1.441   2.756   3.434
 3664TIP3    H210915   1.452   2.906   3.415
 3665TIP3   OH210916   1.190   3.106   3.507
 3665TIP3    H110917   1.243   3.105   3.428
 3665TIP3    H210918   1.226   3.177   3.560
 3666TIP3   OH210919   3.104   3.182   3.710
 3666TIP3    H110920   3.060   3.217   3.788
 3666TIP3    H210921   3.034   3.168   3.647
 3667TIP3   OH210922   2.735   2.779   2.255
 3667TIP3    H110923   2.786   2.715   2.204
 3667TIP3    H210924   2.794   2.853   2.267
 3668TIP3   OH210925   1.185   2.620   3.034
 3668TIP3    H110926   1.128   2.545   3.050
 3668TIP3    H210927   1.147   2.664   2.959
 3669TIP3   OH210928   2.333   4.331   2.528
 3669TIP3    H110929   2.394   4.325   2.454
 3669TIP3    H210930   2.367   4.403   2.581
 3670TIP3   OH210931   1.397   2.673   3.840
 3670TIP3    H110932   1.349   2.667   3.922
 3670TIP3    H210933   1.339   2.720   3.781
 3671TIP3   OH210934   1.423   4.139   3.906
 3671TIP3    H110935   1.331   4.110   3.902
 3671TIP3    H210936   1.448   4.125   3.998
 3672TIP3   OH210937   1.641   4.176   3.460
 3672TIP3    H110938   1.591   4.252   3.429
 3672TIP3    H210939   1.726   4.184   3.418
 3673TIP3   OH210940   2.038   4.411   3.602
 3673TIP3    H110941   2.076   4.401   3.690
 3673TIP3    H210942   2.102   4.464   3.555
 3674TIP3   OH210943   2.232   4.564   3.475
 3674TIP3    H110944   2.296   4.508   3.431
 3674TIP3    H210945   2.284   4.624   3.528
 3675TIP3   OH210946   3.018   2.895   3.566
 3675TIP3    H110947   2.932   2.886   3.526
 3675TIP3    H210948   3.055   2.806   3.564
 3676TIP3   OH210949   1.302   4.412   3.511
 3676TIP3    H110950   1.212   4.432   3.489
 3676TIP3    H210951   1.326   4.479   3.576
 3677TIP3   OH210952   1.533   4.408   3.360
 3677TIP3    H110953   1.450   4.412   3.407
 3677TIP3    H210954   1.510   4.432   3.270
 3678TIP3   OH210955   1.945   4.428   3.150
 3678TIP3    H110956   1.876   4.440   3.085
 3678TIP3    H210957   1.957   4.514   3.188
 3679TIP3   OH210958   2.207   4.357   3.196
 3679TIP3    H110959   2.116   4.380   3.177
 3679TIP3    H210960   2.258   4.425   3.153
 3680TIP3   OH210961   2.407   4.528   3.100
 3680TIP3    H110962   2.408   4.616   3.063
 3680TIP3    H210963   2.437   4.472   3.029
 3681TIP3   OH210964   1.212   4.193   3.224
 3681TIP3    H110965   1.238   4.171   3.314
 3681TIP3    H210966   1.284   4.160   3.170
 3682TIP3   OH210967   1.415   4.075   3.084
 3682TIP3    H110968   1.425   3.991   3.127
 3682TIP3    H210969   1.501   4.117   3.091
 3683TIP3   OH210970   1.680   4.160   3.114
 3683TIP3    H110971   1.702   4.068   3.101
 3683TIP3    H210972   1.737   4.188   3.186
 3684TIP3   OH210973   2.237   2.806   3.190
 3684TIP3    H110974   2.202   2.737   3.247
 3684TIP3    H210975   2.308   2.763   3.142
 3685TIP3   OH210976   2.752   2.728   3.073
 3685TIP3    H110977   2.788   2.782   3.002
 3685TIP3    H210978   2.662   2.758   3.082
 3686TIP3   OH210979   2.868   2.816   2.838
 3686TIP3    H110980   2.935   2.751   2.815
 3686TIP3    H210981   2.913   2.900   2.830
 3687TIP3   OH210982   1.481   2.509   3.191
 3687TIP3    H110983   1.392   2.474   3.201
 3687TIP3    H210984   1.537   2.431   3.188
 3688TIP3   OH210985   1.316   2.426   2.862
 3688TIP3    H110986   1.350   2.467   2.782
 3688TIP3    H210987   1.302   2.499   2.922
 3689TIP3   OH210988   1.956   2.559   3.091
 3689TIP3    H110989   2.012   2.605   3.028
 3689TIP3    H210990   1.995   2.581   3.176
 3690TIP3   OH210991   2.459   2.695   3.063
 3690TIP3    H110992   2.483   2.655   2.979
 3690TIP3    H210993   2.464   2.624   3.127
 3691TIP3   OH210994   2.513   2.651   2.631
 3691TIP3    H110995   2.434   2.699   2.658
 3691TIP3    H210996   2.503   2.565   2.672
 3692TIP3   OH210997   0.974   3.995   2.624
 3692TIP3    H110998   0.892   3.959   2.590
 3692TIP3    H210999   0.979   4.083   2.587
 3693TIP3   OH211000   1.427   2.547   2.632
 3693TIP3    H111001   1.468   2.486   2.570
 3693TIP3    H211002   1.499   2.603   2.661
 3694TIP3   OH211003   1.904   2.750   2.712
 3694TIP3    H111004   1.961   2.698   2.769
 3694TIP3    H211005   1.915   2.840   2.743
 3695TIP3   OH211006   2.490   4.291   2.301
 3695TIP3    H111007   2.485   4.196   2.293
 3695TIP3    H211008   2.441   4.324   2.225
 3696TIP3   OH211009   1.701   2.805   4.068
 3696TIP3    H111010   1.666   2.739   4.128
 3696TIP3    H211011   1.794   2.812   4.093
 3697TIP3   OH211012   1.944   2.806   4.197
 3697TIP3    H111013   2.021   2.796   4.141
 3697TIP3    H211014   1.949   2.733   4.258
 3698TIP3   OH211015   1.069   3.988   2.276
 3698TIP3    H111016   1.078   4.014   2.367
 3698TIP3    H211017   1.154   3.951   2.252
 3699TIP3   OH211018   2.779   2.877   3.982
 3699TIP3    H111019   2.794   2.855   4.074
 3699TIP3    H211020   2.867   2.883   3.944
 3700TIP3   OH211021   2.695   4.427   3.493
 3700TIP3    H111022   2.621   4.397   3.441
 3700TIP3    H211023   2.683   4.522   3.500
 3701TIP3   OH211024   3.980   3.818   2.224
 3701TIP3    H111025   3.946   3.904   2.198
 3701TIP3    H211026   3.908   3.758   2.206
 3702TIP3   OH211027   3.971   3.804   2.661
 3702TIP3    H111028   4.033   3.787   2.732
 3702TIP3    H211029   3.917   3.725   2.657
 3703TIP3   OH211030   3.260   3.670   2.997
 3703TIP3    H111031   3.298   3.616   3.067
 3703TIP3    H211032   3.334   3.689   2.939
 3704TIP3   OH211033   4.244   4.115   2.328
 3704TIP3    H111034   4.231   4.048   2.395
 3704TIP3    H211035   4.264   4.195   2.378
 3705TIP3   OH211036   3.261   4.090   2.676
 3705TIP3    H111037   3.238   3.997   2.684
 3705TIP3    H211038   3.356   4.092   2.678
 3706TIP3   OH211039   2.947   3.296   2.471
 3706TIP3    H111040   2.915   3.381   2.500
 3706TIP3    H211041   2.870   3.252   2.435
 3707TIP3   OH211042   3.031   3.613   2.690
 3707TIP3    H111043   3.084   3.540   2.722
 3707TIP3    H211044   3.094   3.682   2.671
 3708TIP3   OH211045   3.902   4.544   2.342
 3708TIP3    H111046   3.929   4.478   2.277
 3708TIP3    H211047   3.904   4.497   2.426
 3709TIP3   OH211048   3.775   4.022   2.666
 3709TIP3    H111049   3.821   3.941   2.641
 3709TIP3    H211050   3.846   4.082   2.692
 3710TIP3   OH211051   4.817   3.346   2.680
 3710TIP3    H111052   4.832   3.430   2.722
 3710TIP3    H211053   4.831   3.363   2.587
 3711TIP3   OH211054   4.180   3.505   2.691
 3711TIP3    H111055   4.214   3.419   2.717
 3711TIP3    H211056   4.149   3.492   2.601
 3712TIP3   OH211057   3.544   3.167   2.648
 3712TIP3    H111058   3.519   3.245   2.600
 3712TIP3    H211059   3.479   3.101   2.623
 3713TIP3   OH211060   4.245   3.268   2.286
 3713TIP3    H111061   4.307   3.263   2.359
 3713TIP3    H211062   4.297   3.305   2.214
 3714TIP3   OH211063   3.175   3.396   2.786
 3714TIP3    H111064   3.260   3.387   2.828
 3714TIP3    H211065   3.181   3.341   2.707
 3715TIP3   OH211066   3.576   3.593   2.601
 3715TIP3    H111067   3.664   3.574   2.631
 3715TIP3    H211068   3.542   3.508   2.572
 3716TIP3   OH211069   4.870   3.569   2.842
 3716TIP3    H111070   4.781   3.603   2.834
 3716TIP3    H211071   4.902   3.602   2.925
 3717TIP3   OH211072   3.568   3.167   3.121
 3717TIP3    H111073   3.611   3.245   3.087
 3717TIP3    H211074   3.496   3.201   3.174
 3718TIP3   OH211075   3.874   4.035   2.088
 3718TIP3    H111076   3.834   4.004   2.007
 3718TIP3    H211077   3.821   4.110   2.114
 3719TIP3   OH211078   3.631   3.941   2.893
 3719TIP3    H111079   3.572   4.011   2.920
 3719TIP3    H211080   3.676   3.977   2.816
 3720TIP3   OH211081   4.403   3.293   2.508
 3720TIP3    H111082   4.358   3.271   2.590
 3720TIP3    H211083   4.455   3.370   2.531
 3721TIP3   OH211084   3.428   3.308   2.872
 3721TIP3    H111085   3.493   3.360   2.919
 3721TIP3    H211086   3.479   3.255   2.811
 3722TIP3   OH211087   3.463   4.151   2.974
 3722TIP3    H111088   3.449   4.240   2.942
 3722TIP3    H211089   3.384   4.131   3.025
 3723TIP3   OH211090   2.838   3.862   2.232
 3723TIP3    H111091   2.802   3.886   2.146
 3723TIP3    H211092   2.862   3.946   2.272
 3724TIP3   OH211093   4.281   4.363   2.469
 3724TIP3    H111094   4.194   4.355   2.508
 3724TIP3    H211095   4.279   4.447   2.423
 3725TIP3   OH211096   4.623   3.235   2.856
 3725TIP3    H111097   4.535   3.256   2.825
 3725TIP3    H211098   4.680   3.263   2.785
 3726TIP3   OH211099   3.873   2.874   2.838
 3726TIP3    H111100   3.865   2.782   2.862
 3726TIP3    H211101   3.796   2.915   2.877
 3727TIP3   OH211102   3.987   4.394   2.123
 3727TIP3    H111103   4.040   4.314   2.113
 3727TIP3    H211104   4.046   4.464   2.094
 3728TIP3   OH211105   4.125   4.162   2.083
 3728TIP3    H111106   4.050   4.102   2.082
 3728TIP3    H211107   4.174   4.138   2.161
 3729TIP3   OH211108   4.523   4.242   2.818
 3729TIP3    H111109   4.496   4.170   2.761
 3729TIP3    H211110   4.507   4.321   2.766
 3730TIP3   OH211111   3.804   3.650   2.084
 3730TIP3    H111112   3.721   3.694   2.066
 3730TIP3    H211113   3.851   3.651   2.001
 3731TIP3   OH211114   3.767   3.465   1.767
 3731TIP3    H111115   3.830   3.512   1.821
 3731TIP3    H211116   3.818   3.396   1.726
 3732TIP3   OH211117   4.692   3.913   2.676
 3732TIP3    H111118   4.606   3.956   2.675
 3732TIP3    H211119   4.726   3.927   2.588
 3733TIP3   OH211120   4.164   3.740   2.039
 3733TIP3    H111121   4.109   3.772   2.111
 3733TIP3    H211122   4.246   3.715   2.080
 3734TIP3   OH211123   4.404   3.780   2.977
 3734TIP3    H111124   4.392   3.859   3.030
 3734TIP3    H211125   4.324   3.774   2.924
 3735TIP3   OH211126   3.392   3.729   2.439
 3735TIP3    H111127   3.359   3.662   2.379
 3735TIP3    H211128   3.460   3.684   2.489
 3736TIP3   OH211129   3.529   4.145   2.591
 3736TIP3    H111130   3.509   4.126   2.499
 3736TIP3    H211131   3.612   4.102   2.607
 3737TIP3   OH211132   3.459   3.736   2.814
 3737TIP3    H111133   3.508   3.681   2.753
 3737TIP3    H211134   3.524   3.797   2.848
 3738TIP3   OH211135   4.041   4.360   2.596
 3738TIP3    H111136   4.028   4.437   2.651
 3738TIP3    H211137   4.027   4.286   2.655
 3739TIP3   OH211138   3.657   4.252   3.143
 3739TIP3    H111139   3.595   4.309   3.190
 3739TIP3    H211140   3.603   4.200   3.085
 3740TIP3   OH211141   3.991   3.603   1.874
 3740TIP3    H111142   4.051   3.660   1.921
 3740TIP3    H211143   4.021   3.606   1.783
 3741TIP3   OH211144   3.413   3.836   3.295
 3741TIP3    H111145   3.406   3.930   3.308
 3741TIP3    H211146   3.325   3.808   3.271
 3742TIP3   OH211147   3.739   4.274   2.127
 3742TIP3    H111148   3.820   4.324   2.135
 3742TIP3    H211149   3.678   4.334   2.084
 3743TIP3   OH211150   3.448   4.411   3.231
 3743TIP3    H111151   3.422   4.419   3.140
 3743TIP3    H211152   3.366   4.395   3.278
 3744TIP3   OH211153   4.502   2.829   1.935
 3744TIP3    H111154   4.426   2.850   1.989
 3744TIP3    H211155   4.513   2.905   1.877
 3745TIP3   OH211156   3.262   3.563   2.243
 3745TIP3    H111157   3.182   3.609   2.217
 3745TIP3    H211158   3.232   3.479   2.277
 3746TIP3   OH211159   4.326   4.203   1.491
 3746TIP3    H111160   4.319   4.297   1.471
 3746TIP3    H211161   4.416   4.180   1.465
 3747TIP3   OH211162   3.040   3.982   3.176
 3747TIP3    H111163   2.970   3.958   3.115
 3747TIP3    H211164   3.073   3.898   3.208
 3748TIP3   OH211165   2.886   4.168   2.834
 3748TIP3    H111166   2.976   4.191   2.857
 3748TIP3    H211167   2.834   4.243   2.861
 3749TIP3   OH211168   4.750   4.635   2.880
 3749TIP3    H111169   4.757   4.540   2.886
 3749TIP3    H211170   4.670   4.656   2.927
 3750TIP3   OH211171   3.845   4.401   3.008
 3750TIP3    H111172   3.836   4.492   3.038
 3750TIP3    H211173   3.777   4.354   3.056
 3751TIP3   OH211174   3.630   4.498   1.960
 3751TIP3    H111175   3.580   4.478   1.880
 3751TIP3    H211176   3.592   4.580   1.992
 3752TIP3   OH211177   3.063   4.351   2.338
 3752TIP3    H111178   3.108   4.344   2.422
 3752TIP3    H211179   3.013   4.270   2.330
 3753TIP3   OH211180   3.831   4.431   1.586
 3753TIP3    H111181   3.881   4.357   1.552
 3753TIP3    H211182   3.865   4.443   1.675
 3754TIP3   OH211183   3.883   4.472   1.857
 3754TIP3    H111184   3.796   4.476   1.897
 3754TIP3    H211185   3.939   4.435   1.925
 3755TIP3   OH211186   4.636   3.721   3.142
 3755TIP3    H111187   4.554   3.735   3.094
 3755TIP3    H211188   4.651   3.627   3.137
 3756TIP3   OH211189   3.241   4.166   3.141
 3756TIP3    H111190   3.288   4.159   3.224
 3756TIP3    H211191   3.169   4.103   3.149
 3757TIP3   OH211192   3.633   2.953   2.961
 3757TIP3    H111193   3.546   2.933   2.928
 3757TIP3    H211194   3.623   3.037   3.007
 3758TIP3   OH211195   4.142   3.079   3.207
 3758TIP3    H111196   4.223   3.065   3.256
 3758TIP3    H211197   4.073   3.066   3.272
 3759TIP3   OH211198   4.387   3.511   3.084
 3759TIP3    H111199   4.344   3.503   3.169
 3759TIP3    H211200   4.356   3.594   3.048
 3760TIP3   OH211201   4.072   3.575   1.611
 3760TIP3    H111202   4.026   3.581   1.527
 3760TIP3    H211203   4.153   3.624   1.598
 3761TIP3   OH211204   3.775   3.009   1.930
 3761TIP3    H111205   3.742   3.015   2.020
 3761TIP3    H211206   3.741   2.926   1.898
 3762TIP3   OH211207   3.444   3.372   2.494
 3762TIP3    H111208   3.356   3.348   2.522
 3762TIP3    H211209   3.451   3.337   2.405
 3763TIP3   OH211210   3.924   3.443   2.220
 3763TIP3    H111211   3.877   3.518   2.181
 3763TIP3    H211212   3.982   3.413   2.150
 3764TIP3   OH211213   4.110   3.721   3.313
 3764TIP3    H111214   4.081   3.646   3.366
 3764TIP3    H211215   4.203   3.728   3.332
 3765TIP3   OH211216   4.112   3.468   2.428
 3765TIP3    H111217   4.033   3.483   2.377
 3765TIP3    H211218   4.152   3.391   2.387
 3766TIP3   OH211219   3.379   3.517   3.188
 3766TIP3    H111220   3.469   3.546   3.202
 3766TIP3    H211221   3.379   3.426   3.220
 3767TIP3   OH211222   3.440   2.983   1.907
 3767TIP3    H111223   3.434   2.987   2.003
 3767TIP3    H211224   3.364   3.033   1.876
 3768TIP3   OH211225   3.021   3.031   2.783
 3768TIP3    H111226   3.083   3.072   2.843
 3768TIP3    H211227   3.062   3.039   2.697
 3769TIP3   OH211228   2.894   3.007   2.278
 3769TIP3    H111229   2.940   3.044   2.203
 3769TIP3    H211230   2.837   3.078   2.308
 3770TIP3   OH211231   4.162   3.723   2.851
 3770TIP3    H111232   4.175   3.648   2.793
 3770TIP3    H211233   4.116   3.686   2.927
 3771TIP3   OH211234   3.808   3.156   2.543
 3771TIP3    H111235   3.728   3.159   2.596
 3771TIP3    H211236   3.879   3.154   2.606
 3772TIP3   OH211237   3.206   3.249   2.554
 3772TIP3    H111238   3.117   3.253   2.517
 3772TIP3    H211239   3.235   3.160   2.537
 3773TIP3   OH211240   3.456   3.248   2.247
 3773TIP3    H111241   3.551   3.261   2.241
 3773TIP3    H211242   3.423   3.268   2.160
 3774TIP3   OH211243   4.262   3.244   2.743
 3774TIP3    H111244   4.262   3.246   2.839
 3774TIP3    H211245   4.187   3.189   2.720
 3775TIP3   OH211246   3.350   3.275   1.994
 3775TIP3    H111247   3.285   3.228   1.943
 3775TIP3    H211248   3.404   3.321   1.929
 3776TIP3   OH211249   4.457   4.960   2.972
 3776TIP3    H111250   4.454   4.974   2.877
 3776TIP3    H211251   4.535   5.006   3.001
 3777TIP3   OH211252   3.387   4.097   3.382
 3777TIP3    H111253   3.469   4.109   3.430
 3777TIP3    H211254   3.319   4.100   3.449
 3778TIP3   OH211255   3.826   3.539   2.718
 3778TIP3    H111256   3.900   3.480   2.705
 3778TIP3    H211257   3.787   3.511   2.801
 3779TIP3   OH211258   3.338   3.000   2.536
 3779TIP3    H111259   3.313   2.924   2.589
 3779TIP3    H211260   3.367   2.964   2.453
 3780TIP3   OH211261   3.567   3.783   2.024
 3780TIP3    H111262   3.491   3.730   2.000
 3780TIP3    H211263   3.540   3.830   2.103
 3781TIP3   OH211264   4.454   4.047   2.635
 3781TIP3    H111265   4.488   4.098   2.561
 3781TIP3    H211266   4.374   4.006   2.602
 3782TIP3   OH211267   4.030   3.109   1.933
 3782TIP3    H111268   3.936   3.089   1.930
 3782TIP3    H211269   4.034   3.203   1.948
 3783TIP3   OH211270   3.989   4.154   3.030
 3783TIP3    H111271   4.005   4.123   3.119
 3783TIP3    H211272   3.936   4.233   3.042
 3784TIP3   OH211273   4.090   3.372   2.003
 3784TIP3    H111274   4.184   3.377   2.015
 3784TIP3    H211275   4.068   3.451   1.953
 3785TIP3   OH211276   3.240   3.803   2.661
 3785TIP3    H111277   3.284   3.788   2.578
 3785TIP3    H211278   3.306   3.780   2.727
 3786TIP3   OH211279   3.717   3.950   1.869
 3786TIP3    H111280   3.669   4.032   1.867
 3786TIP3    H211281   3.663   3.891   1.922
 3787TIP3   OH211282   3.137   3.769   3.322
 3787TIP3    H111283   3.169   3.758   3.412
 3787TIP3    H211284   3.085   3.691   3.305
 3788TIP3   OH211285   3.893   3.890   3.308
 3788TIP3    H111286   3.842   3.858   3.234
 3788TIP3    H211287   3.974   3.840   3.304
 3789TIP3   OH211288   4.120   4.427   2.930
 3789TIP3    H111289   4.026   4.410   2.934
 3789TIP3    H211290   4.143   4.454   3.019
 3790TIP3   OH211291   4.505   3.458   1.818
 3790TIP3    H111292   4.449   3.412   1.755
 3790TIP3    H211293   4.511   3.548   1.785
 3791TIP3   OH211294   4.766   4.360   2.895
 3791TIP3    H111295   4.676   4.330   2.908
 3791TIP3    H211296   4.794   4.318   2.814
 3792TIP3   OH211297   4.250   4.277   1.759
 3792TIP3    H111298   4.219   4.211   1.822
 3792TIP3    H211299   4.265   4.228   1.678
 3793TIP3   OH211300   4.227   3.911   2.528
 3793TIP3    H111301   4.137   3.888   2.552
 3793TIP3    H211302   4.264   3.830   2.493
 3794TIP3   OH211303   3.381   4.149   2.346
 3794TIP3    H111304   3.372   4.225   2.287
 3794TIP3    H211305   3.299   4.147   2.394
 3795TIP3   OH211306   2.928   3.434   2.057
 3795TIP3    H111307   2.973   3.514   2.082
 3795TIP3    H211308   2.847   3.435   2.108
 3796TIP3   OH211309   3.460   3.909   2.238
 3796TIP3    H111310   3.444   3.997   2.271
 3796TIP3    H211311   3.439   3.851   2.311
 3797TIP3   OH211312   3.665   4.472   2.799
 3797TIP3    H111313   3.701   4.545   2.749
 3797TIP3    H211314   3.738   4.440   2.851
 3798TIP3   OH211315   3.297   4.370   2.192
 3798TIP3    H111316   3.210   4.376   2.233
 3798TIP3    H211317   3.333   4.458   2.200
 3799TIP3   OH211318   4.017   4.133   2.759
 3799TIP3    H111319   4.008   4.136   2.854
 3799TIP3    H211320   4.076   4.059   2.743
 3800TIP3   OH211321   4.008   4.011   1.640
 3800TIP3    H111322   4.061   3.982   1.715
 3800TIP3    H211323   3.924   3.968   1.652
 3801TIP3   OH211324   4.278   4.625   2.813
 3801TIP3    H111325   4.210   4.562   2.839
 3801TIP3    H211326   4.237   4.677   2.744
 3802TIP3   OH211327   4.319   4.476   1.446
 3802TIP3    H111328   4.331   4.535   1.372
 3802TIP3    H211329   4.250   4.518   1.498
 3803TIP3   OH211330   3.352   3.261   3.298
 3803TIP3    H111331   3.257   3.267   3.288
 3803TIP3    H211332   3.366   3.263   3.392
 3804TIP3   OH211333   4.188   3.919   1.826
 3804TIP3    H111334   4.172   3.868   1.905
 3804TIP3    H211335   4.283   3.929   1.822
 3805TIP3   OH211336   3.095   4.357   2.960
 3805TIP3    H111337   3.147   4.297   3.013
 3805TIP3    H211338   3.107   4.442   3.002
 3806TIP3   OH211339   3.362   3.979   1.661
 3806TIP3    H111340   3.374   3.887   1.635
 3806TIP3    H211341   3.349   3.975   1.756
 3807TIP3   OH211342   3.301   3.992   1.934
 3807TIP3    H111343   3.357   3.967   2.008
 3807TIP3    H211344   3.300   4.088   1.937
 3808TIP3   OH211345   3.029   3.680   2.139
 3808TIP3    H111346   2.968   3.731   2.192
 3808TIP3    H211347   3.052   3.738   2.066
 3809TIP3   OH211348   4.253   3.251   3.014
 3809TIP3    H111349   4.271   3.336   3.055
 3809TIP3    H211350   4.202   3.203   3.080
 3810TIP3   OH211351   4.091   3.055   2.201
 3810TIP3    H111352   4.069   3.075   2.110
 3810TIP3    H211353   4.136   3.133   2.233
 3811TIP3   OH211354   3.572   4.178   1.862
 3811TIP3    H111355   3.487   4.200   1.901
 3811TIP3    H211356   3.595   4.255   1.810
 3812TIP3   OH211357   3.735   3.256   2.293
 3812TIP3    H111358   3.797   3.324   2.269
 3812TIP3    H211359   3.757   3.235   2.384
 3813TIP3   OH211360   4.047   3.600   3.065
 3813TIP3    H111361   4.059   3.638   3.152
 3813TIP3    H211362   3.978   3.535   3.076
 3814TIP3   OH211363   3.904   2.952   2.378
 3814TIP3    H111364   3.881   3.028   2.431
 3814TIP3    H211365   3.974   2.984   2.320
 3815TIP3   OH211366   3.322   4.265   1.941
 3815TIP3    H111367   3.302   4.337   1.881
 3815TIP3    H211368   3.311   4.303   2.028
 3816TIP3   OH211369   3.417   2.976   2.187
 3816TIP3    H111370   3.406   3.067   2.216
 3816TIP3    H211371   3.512   2.961   2.193
 3817TIP3   OH211372   4.649   3.444   3.057
 3817TIP3    H111373   4.556   3.460   3.070
 3817TIP3    H211374   4.653   3.379   2.986
 3818TIP3   OH211375   4.323   3.655   2.443
 3818TIP3    H111376   4.246   3.599   2.448
 3818TIP3    H211377   4.388   3.613   2.499
 3819TIP3   OH211378   3.058   3.857   1.922
 3819TIP3    H111379   3.127   3.922   1.933
 3819TIP3    H211380   3.092   3.795   1.857
 3820TIP3   OH211381   2.962   3.156   2.058
 3820TIP3    H111382   2.973   3.251   2.066
 3820TIP3    H211383   2.898   3.145   1.987
 3821TIP3   OH211384   4.297   4.630   2.384
 3821TIP3    H111385   4.255   4.681   2.316
 3821TIP3    H211386   4.391   4.643   2.369
 3822TIP3   OH211387   3.367   2.875   2.920
 3822TIP3    H111388   3.335   2.847   2.834
 3822TIP3    H211389   3.353   2.800   2.977
 3823TIP3   OH211390   2.885   4.130   2.315
 3823TIP3    H111391   2.845   4.168   2.393
 3823TIP3    H211392   2.839   4.172   2.242
 3824TIP3   OH211393   3.092   4.666   3.382
 3824TIP3    H111394   3.175   4.669   3.430
 3824TIP3    H211395   3.073   4.573   3.371
 3825TIP3   OH211396   3.557   4.573   3.425
 3825TIP3    H111397   3.649   4.546   3.430
 3825TIP3    H211398   3.520   4.521   3.354
 3826TIP3   OH211399   3.515   4.177   1.544
 3826TIP3    H111400   3.469   4.109   1.592
 3826TIP3    H211401   3.590   4.133   1.505
 3827TIP3   OH211402   4.179   4.511   3.185
 3827TIP3    H111403   4.193   4.442   3.250
 3827TIP3    H211404   4.251   4.571   3.198
 3828TIP3   OH211405   3.959   4.219   1.469
 3828TIP3    H111406   3.991   4.154   1.532
 3828TIP3    H211407   4.019   4.211   1.395
 3829TIP3   OH211408   3.188   4.073   3.574
 3829TIP3    H111409   3.206   3.979   3.582
 3829TIP3    H211410   3.101   4.077   3.533
 3830TIP3   OH211411   3.185   3.670   1.767
 3830TIP3    H111412   3.235   3.646   1.845
 3830TIP3    H211413   3.251   3.686   1.700
 3831TIP3   OH211414   3.812   4.154   3.347
 3831TIP3    H111415   3.764   4.172   3.267
 3831TIP3    H211416   3.847   4.066   3.334
 3832TIP3   OH211417   3.751   3.893   1.603
 3832TIP3    H111418   3.729   3.904   1.696
 3832TIP3    H211419   3.733   3.801   1.585
 3833TIP3   OH211420   4.296   4.184   2.980
 3833TIP3    H111421   4.364   4.223   2.925
 3833TIP3    H211422   4.217   4.236   2.962
 3834TIP3   OH211423   3.298   3.814   3.565
 3834TIP3    H111424   3.372   3.806   3.505
 3834TIP3    H211425   3.337   3.827   3.651
 3835TIP3   OH211426   3.354   3.610   1.979
 3835TIP3    H111427   3.334   3.583   2.068
 3835TIP3    H211428   3.402   3.536   1.941
 3836TIP3   OH211429   3.615   3.657   3.262
 3836TIP3    H111430   3.547   3.723   3.276
 3836TIP3    H211431   3.665   3.691   3.187
 3837TIP3   OH211432   3.493   3.426   1.816
 3837TIP3    H111433   3.465   3.433   1.725
 3837TIP3    H211434   3.588   3.437   1.813
 3838TIP3   OH211435   4.182   4.070   3.337
 3838TIP3    H111436   4.235   4.024   3.273
 3838TIP3    H211437   4.176   4.010   3.411
 3839TIP3   OH211438   4.288   3.715   1.506
 3839TIP3    H111439   4.276   3.676   1.420
 3839TIP3    H211440   4.264   3.807   1.494
 3840TIP3   OH211441   3.790   3.451   3.298
 3840TIP3    H111442   3.783   3.401   3.216
 3840TIP3    H211443   3.729   3.524   3.287
 3841TIP3   OH211444   3.778   3.789   3.075
 3841TIP3    H111445   3.811   3.718   3.020
 3841TIP3    H211446   3.730   3.845   3.014
 3842TIP3   OH211447   4.380   3.747   3.394
 3842TIP3    H111448   4.410   3.657   3.383
 3842TIP3    H211449   4.456   3.801   3.371
 3843TIP3   OH211450   4.415   4.008   3.145
 3843TIP3    H111451   4.361   4.071   3.096
 3843TIP3    H211452   4.504   4.022   3.113
 3844TIP3   OH211453   3.666   3.559   3.581
 3844TIP3    H111454   3.585   3.514   3.603
 3844TIP3    H211455   3.663   3.569   3.486
 3845TIP3   OH211456   4.024   3.491   3.438
 3845TIP3    H111457   3.997   3.476   3.529
 3845TIP3    H211458   3.946   3.469   3.386
 3846TIP3   OH211459   4.282   3.466   3.329
 3846TIP3    H111460   4.197   3.457   3.372
 3846TIP3    H211461   4.344   3.427   3.391
 3847TIP3   OH211462   4.525   3.411   3.475
 3847TIP3    H111463   4.537   3.317   3.490
 3847TIP3    H211464   4.517   3.448   3.563
 3848TIP3   OH211465   3.506   3.325   3.639
 3848TIP3    H111466   3.576   3.279   3.592
 3848TIP3    H211467   3.530   3.318   3.731
 3849TIP3   OH211468   4.067   3.216   3.641
 3849TIP3    H111469   4.043   3.150   3.575
 3849TIP3    H211470   3.994   3.278   3.641
 3850TIP3   OH211471   3.320   4.473   1.758
 3850TIP3    H111472   3.410   4.453   1.730
 3850TIP3    H211473   3.282   4.520   1.683
 3851TIP3   OH211474   2.783   3.860   1.937
 3851TIP3    H111475   2.879   3.870   1.938
 3851TIP3    H211476   2.768   3.774   1.899
 3852TIP3   OH211477   2.693   4.443   2.402
 3852TIP3    H111478   2.628   4.390   2.355
 3852TIP3    H211479   2.736   4.381   2.461
 3853TIP3   OH211480   2.837   4.271   2.566
 3853TIP3    H111481   2.828   4.204   2.633
 3853TIP3    H211482   2.889   4.340   2.608
 3854TIP3   OH211483   4.568   4.680   2.377
 3854TIP3    H111484   4.585   4.704   2.468
 3854TIP3    H211485   4.621   4.742   2.326
 3855TIP3   OH211486   4.589   4.705   2.655
 3855TIP3    H111487   4.541   4.622   2.654
 3855TIP3    H211488   4.657   4.693   2.721
 3856TIP3   OH211489   4.649   4.410   3.220
 3856TIP3    H111490   4.575   4.416   3.280
 3856TIP3    H211491   4.693   4.494   3.228
 3857TIP3   OH211492   4.468   3.925   1.833
 3857TIP3    H111493   4.525   3.997   1.806
 3857TIP3    H211494   4.511   3.887   1.910
 3858TIP3   OH211495   4.592   3.781   2.037
 3858TIP3    H111496   4.524   3.743   2.093
 3858TIP3    H211497   4.656   3.817   2.099
 3859TIP3   OH211498   4.639   4.188   2.475
 3859TIP3    H111499   4.690   4.120   2.431
 3859TIP3    H211500   4.639   4.261   2.414
 3860TIP3   OH211501   4.450   4.464   2.667
 3860TIP3    H111502   4.383   4.510   2.718
 3860TIP3    H211503   4.402   4.424   2.595
 3861TIP3   OH211504   4.499   3.698   1.682
 3861TIP3    H111505   4.427   3.697   1.620
 3861TIP3    H211506   4.485   3.776   1.735
 3862TIP3   OH211507   4.355   3.345   1.619
 3862TIP3    H111508   4.308   3.382   1.544
 3862TIP3    H211509   4.347   3.250   1.608
 3863TIP3   OH211510   4.390   3.643   2.173
 3863TIP3    H111511   4.392   3.548   2.161
 3863TIP3    H211512   4.371   3.654   2.266
 3864TIP3   OH211513   3.000   3.714   2.946
 3864TIP3    H111514   2.992   3.679   2.857
 3864TIP3    H211515   3.093   3.708   2.967
 3865TIP3   OH211516   4.663   4.058   3.030
 3865TIP3    H111517   4.731   3.995   3.008
 3865TIP3    H211518   4.644   4.103   2.948
 3866TIP3   OH211519   4.848   3.848   3.023
 3866TIP3    H111520   4.773   3.807   3.066
 3866TIP3    H211521   4.922   3.793   3.047
 3867TIP3   OH211522   4.316   3.073   1.590
 3867TIP3    H111523   4.380   3.048   1.656
 3867TIP3    H211524   4.233   3.038   1.622
 3868TIP3   OH211525   4.383   3.366   2.058
 3868TIP3    H111526   4.429   3.283   2.070
 3868TIP3    H211527   4.424   3.405   1.981
 3869TIP3   OH211528   4.536   3.528   2.583
 3869TIP3    H111529   4.617   3.545   2.536
 3869TIP3    H211530   4.548   3.569   2.669
 3870TIP3   OH211531   4.613   3.682   2.807
 3870TIP3    H111532   4.541   3.708   2.865
 3870TIP3    H211533   4.641   3.762   2.765
 3871TIP3   OH211534   3.241   3.377   3.574
 3871TIP3    H111535   3.333   3.374   3.599
 3871TIP3    H211536   3.199   3.310   3.628
 3872TIP3   OH211537   5.067   3.260   3.355
 3872TIP3    H111538   5.138   3.212   3.312
 3872TIP3    H211539   5.031   3.317   3.287
 3873TIP3   OH211540   4.500   3.116   2.111
 3873TIP3    H111541   4.543   3.102   2.195
 3873TIP3    H211542   4.436   3.045   2.105
 3874TIP3   OH211543   3.225   3.116   2.951
 3874TIP3    H111544   3.280   3.037   2.952
 3874TIP3    H211545   3.286   3.188   2.939
 3875TIP3   OH211546   2.990   3.362   3.000
 3875TIP3    H111547   3.046   3.360   2.921
 3875TIP3    H211548   3.024   3.435   3.051
 3876TIP3   OH211549   4.922   3.402   3.171
 3876TIP3    H111550   4.851   3.444   3.221
 3876TIP3    H211551   4.877   3.341   3.112
 3877TIP3   OH211552   4.542   3.028   1.748
 3877TIP3    H111553   4.591   2.968   1.693
 3877TIP3    H211554   4.597   3.106   1.753
 3878TIP3   OH211555   2.962   2.846   2.488
 3878TIP3    H111556   2.882   2.847   2.541
 3878TIP3    H211557   2.948   2.913   2.422
 3879TIP3   OH211558   4.133   4.593   2.018
 3879TIP3    H111559   4.190   4.584   1.942
 3879TIP3    H211560   4.172   4.664   2.069
 3880TIP3   OH211561   3.167   2.903   3.328
 3880TIP3    H111562   3.124   2.920   3.412
 3880TIP3    H211563   3.128   2.966   3.268
 3881TIP3   OH211564   3.223   4.386   3.398
 3881TIP3    H111565   3.129   4.369   3.389
 3881TIP3    H211566   3.241   4.376   3.491
 3882TIP3   OH211567   3.437   4.430   2.947
 3882TIP3    H111568   3.385   4.504   2.917
 3882TIP3    H211569   3.521   4.440   2.903
 3883TIP3   OH211570   3.830   4.667   3.087
 3883TIP3    H111571   3.869   4.658   3.175
 3883TIP3    H211572   3.892   4.721   3.039
 3884TIP3   OH211573   4.021   4.821   2.961
 3884TIP3    H111574   4.081   4.766   2.911
 3884TIP3    H211575   4.078   4.877   3.013
 3885TIP3   OH211576   4.826   3.154   3.048
 3885TIP3    H111577   4.747   3.161   2.996
 3885TIP3    H211578   4.855   3.063   3.036
 3886TIP3   OH211579   3.097   4.675   2.995
 3886TIP3    H111580   3.005   4.689   2.973
 3886TIP3    H211581   3.116   4.742   3.061
 3887TIP3   OH211582   3.328   4.664   2.847
 3887TIP3    H111583   3.245   4.669   2.895
 3887TIP3    H211584   3.305   4.688   2.757
 3888TIP3   OH211585   3.742   4.683   2.636
 3888TIP3    H111586   3.668   4.692   2.577
 3888TIP3    H211587   3.750   4.769   2.678
 3889TIP3   OH211588   4.007   4.623   2.687
 3889TIP3    H111589   3.915   4.641   2.666
 3889TIP3    H211590   4.055   4.690   2.639
 3890TIP3   OH211591   4.210   4.793   2.589
 3890TIP3    H111592   4.205   4.879   2.547
 3890TIP3    H211593   4.238   4.734   2.519
 3891TIP3   OH211594   3.010   4.449   2.709
 3891TIP3    H111595   3.032   4.424   2.798
 3891TIP3    H211596   3.083   4.416   2.656
 3892TIP3   OH211597   3.214   4.334   2.568
 3892TIP3    H111598   3.223   4.250   2.612
 3892TIP3    H211599   3.300   4.375   2.576
 3893TIP3   OH211600   3.480   4.421   2.596
 3893TIP3    H111601   3.499   4.328   2.582
 3893TIP3    H211602   3.534   4.445   2.672
 3894TIP3   OH211603   4.039   3.072   2.683
 3894TIP3    H111604   3.999   3.003   2.736
 3894TIP3    H211605   4.107   3.028   2.632
 3895TIP3   OH211606   4.541   2.986   2.572
 3895TIP3    H111607   4.576   3.037   2.499
 3895TIP3    H211608   4.448   3.009   2.574
 3896TIP3   OH211609   4.655   3.064   2.335
 3896TIP3    H111610   4.725   3.004   2.308
 3896TIP3    H211611   4.693   3.151   2.322
 3897TIP3   OH211612   3.276   2.771   2.679
 3897TIP3    H111613   3.187   2.736   2.691
 3897TIP3    H211614   3.331   2.692   2.673
 3898TIP3   OH211615   3.077   2.659   2.318
 3898TIP3    H111616   3.114   2.713   2.248
 3898TIP3    H211617   3.044   2.722   2.381
 3899TIP3   OH211618   3.760   2.812   2.579
 3899TIP3    H111619   3.805   2.861   2.509
 3899TIP3    H211620   3.796   2.847   2.660
 3900TIP3   OH211621   4.253   2.953   2.550
 3900TIP3    H111622   4.266   2.917   2.462
 3900TIP3    H211623   4.258   2.877   2.608
 3901TIP3   OH211624   4.312   2.907   2.119
 3901TIP3    H111625   4.233   2.954   2.143
 3901TIP3    H211626   4.302   2.820   2.157
 3902TIP3   OH211627   2.765   4.244   2.094
 3902TIP3    H111628   2.679   4.213   2.064
 3902TIP3    H211629   2.770   4.335   2.062
 3903TIP3   OH211630   3.207   2.809   2.102
 3903TIP3    H111631   3.254   2.749   2.044
 3903TIP3    H211632   3.275   2.866   2.139
 3904TIP3   OH211633   3.693   3.005   2.194
 3904TIP3    H111634   3.753   2.954   2.249
 3904TIP3    H211635   3.705   3.095   2.224
 3905TIP3   OH211636   3.576   4.401   1.689
 3905TIP3    H111637   3.659   4.429   1.651
 3905TIP3    H211638   3.547   4.329   1.632
 3906TIP3   OH211639   4.285   4.546   1.789
 3906TIP3    H111640   4.277   4.451   1.783
 3906TIP3    H211641   4.238   4.579   1.712
 3907TIP3   OH211642   3.512   2.970   3.666
 3907TIP3    H111643   3.458   3.012   3.732
 3907TIP3    H211644   3.599   3.008   3.679
 3908TIP3   OH211645   3.776   3.053   3.693
 3908TIP3    H111646   3.819   3.056   3.607
 3908TIP3    H211647   3.818   2.980   3.738
 3909TIP3   OH211648   2.873   4.233   1.745
 3909TIP3    H111649   2.874   4.254   1.838
 3909TIP3    H211650   2.958   4.193   1.729
 3910TIP3   OH211651   4.592   3.135   3.490
 3910TIP3    H111652   4.621   3.089   3.570
 3910TIP3    H211653   4.670   3.139   3.435
 3911TIP3   OH211654   4.497   4.687   2.976
 3911TIP3    H111655   4.423   4.654   2.925
 3911TIP3    H211656   4.479   4.781   2.985
 3912TIP3   OH211657   5.774   4.075   1.719
 3912TIP3    H111658   5.743   4.160   1.689
 3912TIP3    H211659   5.704   4.014   1.693
 3913TIP3   OH211660   5.773   4.065   2.144
 3913TIP3    H111661   5.827   4.044   2.220
 3913TIP3    H211662   5.728   3.984   2.123
 3914TIP3   OH211663   5.067   3.925   2.483
 3914TIP3    H111664   5.104   3.873   2.554
 3914TIP3    H211665   5.143   3.949   2.429
 3915TIP3   OH211666   6.036   4.375   1.816
 3915TIP3    H111667   6.027   4.306   1.882
 3915TIP3    H211668   6.059   4.453   1.867
 3916TIP3   OH211669   5.068   4.354   2.171
 3916TIP3    H111670   5.048   4.261   2.180
 3916TIP3    H211671   5.163   4.358   2.163
 3917TIP3   OH211672   4.744   3.557   1.955
 3917TIP3    H111673   4.704   3.640   1.980
 3917TIP3    H211674   4.672   3.507   1.916
 3918TIP3   OH211675   4.821   3.863   2.179
 3918TIP3    H111676   4.871   3.786   2.207
 3918TIP3    H211677   4.887   3.925   2.149
 3919TIP3   OH211678   5.698   4.811   1.841
 3919TIP3    H111679   5.722   4.746   1.774
 3919TIP3    H211680   5.683   4.759   1.920
 3920TIP3   OH211681   5.580   4.286   2.142
 3920TIP3    H111682   5.624   4.205   2.117
 3920TIP3    H211683   5.650   4.343   2.174
 3921TIP3   OH211684   6.613   3.603   2.163
 3921TIP3    H111685   6.629   3.687   2.205
 3921TIP3    H211686   6.633   3.617   2.071
 3922TIP3   OH211687   5.985   3.772   2.181
 3922TIP3    H111688   6.017   3.687   2.209
 3922TIP3    H211689   5.948   3.757   2.093
 3923TIP3   OH211690   5.341   3.430   2.137
 3923TIP3    H111691   5.319   3.503   2.080
 3923TIP3    H211692   5.286   3.358   2.108
 3924TIP3   OH211693   6.037   3.531   1.777
 3924TIP3    H111694   6.100   3.525   1.848
 3924TIP3    H211695   6.088   3.565   1.703
 3925TIP3   OH211696   4.964   3.645   2.272
 3925TIP3    H111697   5.048   3.626   2.315
 3925TIP3    H211698   4.967   3.593   2.191
 3926TIP3   OH211699   5.383   3.845   2.086
 3926TIP3    H111700   5.477   3.830   2.092
 3926TIP3    H211701   5.347   3.763   2.052
 3927TIP3   OH211702   6.667   3.826   2.326
 3927TIP3    H111703   6.577   3.858   2.322
 3927TIP3    H211704   6.701   3.858   2.410
 3928TIP3   OH211705   5.318   3.435   2.593
 3928TIP3    H111706   5.268   3.470   2.519
 3928TIP3    H211707   5.262   3.452   2.669
 3929TIP3   OH211708   5.674   4.290   1.575
 3929TIP3    H111709   5.633   4.258   1.495
 3929TIP3    H211710   5.618   4.363   1.603
 3930TIP3   OH211711   5.415   4.211   2.354
 3930TIP3    H111712   5.361   4.282   2.389
 3930TIP3    H211713   5.462   4.251   2.281
 3931TIP3   OH211714   6.192   3.557   2.000
 3931TIP3    H111715   6.151   3.533   2.083
 3931TIP3    H211716   6.249   3.631   2.021
 3932TIP3   OH211717   5.214   3.541   2.359
 3932TIP3    H111718   5.269   3.616   2.383
 3932TIP3    H211719   5.261   3.499   2.287
 3933TIP3   OH211720   5.258   4.413   2.463
 3933TIP3    H111721   5.241   4.502   2.433
 3933TIP3    H211722   5.182   4.389   2.515
 3934TIP3   OH211723   4.637   4.118   1.717
 3934TIP3    H111724   4.598   4.138   1.631
 3934TIP3    H211725   4.659   4.204   1.753
 3935TIP3   OH211726   6.072   4.627   1.951
 3935TIP3    H111727   5.986   4.620   1.993
 3935TIP3    H211728   6.069   4.710   1.904
 3936TIP3   OH211729   6.411   3.497   2.333
 3936TIP3    H111730   6.326   3.515   2.293
 3936TIP3    H211731   6.475   3.522   2.266
 3937TIP3   OH211732   5.663   3.127   2.326
 3937TIP3    H111733   5.655   3.034   2.351
 3937TIP3    H211734   5.586   3.169   2.364
 3938TIP3   OH211735   5.785   4.660   1.622
 3938TIP3    H111736   5.834   4.579   1.610
 3938TIP3    H211737   5.848   4.729   1.606
 3939TIP3   OH211738   5.918   4.427   1.572
 3939TIP3    H111739   5.846   4.364   1.567
 3939TIP3    H211740   5.969   4.400   1.648
 3940TIP3   OH211741   6.305   4.512   2.294
 3940TIP3    H111742   6.288   4.436   2.240
 3940TIP3    H211743   6.292   4.587   2.236
 3941TIP3   OH211744   5.600   3.912   1.573
 3941TIP3    H111745   5.516   3.954   1.553
 3941TIP3    H211746   5.645   3.907   1.489
 3942TIP3   OH211747   5.568   3.719   1.256
 3942TIP3    H111748   5.634   3.767   1.307
 3942TIP3    H211749   5.617   3.650   1.211
 3943TIP3   OH211750   6.489   4.169   2.169
 3943TIP3    H111751   6.404   4.213   2.167
 3943TIP3    H211752   6.524   4.179   2.080
 3944TIP3   OH211753   5.958   4.001   1.531
 3944TIP3    H111754   5.905   4.030   1.605
 3944TIP3    H211755   6.041   3.973   1.570
 3945TIP3   OH211756   6.188   4.027   2.478
 3945TIP3    H111757   6.184   4.110   2.525
 3945TIP3    H211758   6.107   4.024   2.428
 3946TIP3   OH211759   5.185   3.978   1.934
 3946TIP3    H111760   5.147   3.917   1.871
 3946TIP3    H211761   5.257   3.929   1.975
 3947TIP3   OH211762   5.330   4.404   2.072
 3947TIP3    H111763   5.302   4.387   1.982
 3947TIP3    H211764   5.415   4.362   2.080
 3948TIP3   OH211765   5.284   3.973   2.311
 3948TIP3    H111766   5.322   3.936   2.232
 3948TIP3    H211767   5.333   4.054   2.326
 3949TIP3   OH211768   5.840   4.621   2.096
 3949TIP3    H111769   5.832   4.694   2.157
 3949TIP3    H211770   5.827   4.543   2.149
 3950TIP3   OH211771   5.454   4.512   2.633
 3950TIP3    H111772   5.393   4.569   2.681
 3950TIP3    H211773   5.398   4.460   2.575
 3951TIP3   OH211774   5.787   3.861   1.367
 3951TIP3    H111775   5.847   3.918   1.415
 3951TIP3    H211776   5.815   3.868   1.276
 3952TIP3   OH211777   5.208   4.053   2.777
 3952TIP3    H111778   5.213   4.147   2.797
 3952TIP3    H211779   5.114   4.035   2.771
 3953TIP3   OH211780   5.537   4.526   1.624
 3953TIP3    H111781   5.613   4.583   1.632
 3953TIP3    H211782   5.473   4.578   1.575
 3954TIP3   OH211783   5.245   4.672   2.722
 3954TIP3    H111784   5.215   4.677   2.632
 3954TIP3    H211785   5.166   4.652   2.773
 3955TIP3   OH211786   6.309   3.091   1.417
 3955TIP3    H111787   6.230   3.114   1.466
 3955TIP3    H211788   6.317   3.159   1.350
 3956TIP3   OH211789   5.058   3.820   1.735
 3956TIP3    H111790   4.980   3.867   1.706
 3956TIP3    H211791   5.027   3.730   1.752
 3957TIP3   OH211792   6.112   4.435   1.016
 3957TIP3    H111793   6.117   4.529   1.033
 3957TIP3    H211794   6.201   4.411   0.991
 3958TIP3   OH211795   4.841   4.226   2.669
 3958TIP3    H111796   4.770   4.208   2.608
 3958TIP3    H211797   4.873   4.139   2.694
 3959TIP3   OH211798   4.678   4.426   2.324
 3959TIP3    H111799   4.766   4.454   2.351
 3959TIP3    H211800   4.622   4.500   2.348
 3960TIP3   OH211801   6.539   4.861   2.370
 3960TIP3    H111802   6.543   4.767   2.387
 3960TIP3    H211803   6.459   4.889   2.415
 3961TIP3   OH211804   5.642   4.654   2.492
 3961TIP3    H111805   5.635   4.744   2.524
 3961TIP3    H211806   5.575   4.606   2.542
 3962TIP3   OH211807   5.414   4.745   1.452
 3962TIP3    H111808   5.366   4.723   1.372
 3962TIP3    H211809   5.375   4.827   1.482
 3963TIP3   OH211810   4.858   4.606   1.825
 3963TIP3    H111811   4.901   4.599   1.910
 3963TIP3    H211812   4.806   4.526   1.817
 3964TIP3   OH211813   5.629   4.670   1.103
 3964TIP3    H111814   5.685   4.602   1.066
 3964TIP3    H211815   5.663   4.683   1.191
 3965TIP3   OH211816   5.673   4.722   1.371
 3965TIP3    H111817   5.582   4.725   1.402
 3965TIP3    H211818   5.721   4.680   1.443
 3966TIP3   OH211819   6.432   3.980   2.634
 3966TIP3    H111820   6.349   3.990   2.588
 3966TIP3    H211821   6.450   3.886   2.633
 3967TIP3   OH211822   5.042   4.411   2.635
 3967TIP3    H111823   5.092   4.398   2.716
 3967TIP3    H211824   4.969   4.349   2.642
 3968TIP3   OH211825   5.426   3.219   2.451
 3968TIP3    H111826   5.343   3.184   2.418
 3968TIP3    H211827   5.401   3.299   2.497
 3969TIP3   OH211828   5.965   3.341   2.650
 3969TIP3    H111829   6.034   3.316   2.711
 3969TIP3    H211830   5.884   3.325   2.697
 3970TIP3   OH211831   6.187   3.762   2.570
 3970TIP3    H111832   6.146   3.758   2.656
 3970TIP3    H211833   6.171   3.852   2.540
 3971TIP3   OH211834   5.868   3.857   1.108
 3971TIP3    H111835   5.821   3.849   1.025
 3971TIP3    H211836   5.952   3.896   1.085
 3972TIP3   OH211837   5.576   3.259   1.417
 3972TIP3    H111838   5.538   3.267   1.505
 3972TIP3    H211839   5.540   3.177   1.383
 3973TIP3   OH211840   5.364   3.752   2.460
 3973TIP3    H111841   5.316   3.758   2.543
 3973TIP3    H211842   5.343   3.833   2.415
 3974TIP3   OH211843   5.242   3.631   1.979
 3974TIP3    H111844   5.153   3.606   2.004
 3974TIP3    H211845   5.251   3.598   1.889
 3975TIP3   OH211846   5.723   3.706   1.708
 3975TIP3    H111847   5.675   3.779   1.668
 3975TIP3    H211848   5.780   3.673   1.639
 3976TIP3   OH211849   5.905   3.971   2.781
 3976TIP3    H111850   5.878   3.903   2.842
 3976TIP3    H211851   5.997   3.987   2.801
 3977TIP3   OH211852   5.894   3.720   1.928
 3977TIP3    H111853   5.824   3.739   1.865
 3977TIP3    H211854   5.941   3.646   1.890
 3978TIP3   OH211855   5.198   3.769   2.678
 3978TIP3    H111856   5.204   3.835   2.748
 3978TIP3    H211857   5.179   3.688   2.724
 3979TIP3   OH211858   5.242   3.241   1.395
 3979TIP3    H111859   5.232   3.245   1.491
 3979TIP3    H211860   5.163   3.284   1.362
 3980TIP3   OH211861   4.788   3.285   2.256
 3980TIP3    H111862   4.863   3.319   2.305
 3980TIP3    H211863   4.824   3.263   2.170
 3981TIP3   OH211864   4.694   3.261   1.762
 3981TIP3    H111865   4.740   3.297   1.686
 3981TIP3    H211866   4.631   3.329   1.785
 3982TIP3   OH211867   5.937   3.973   2.355
 3982TIP3    H111868   5.962   3.907   2.291
 3982TIP3    H211869   5.894   3.925   2.425
 3983TIP3   OH211870   5.610   3.420   2.030
 3983TIP3    H111871   5.531   3.419   2.085
 3983TIP3    H211872   5.682   3.410   2.092
 3984TIP3   OH211873   5.003   3.506   2.038
 3984TIP3    H111874   4.915   3.511   2.001
 3984TIP3    H211875   5.030   3.416   2.023
 3985TIP3   OH211876   5.256   3.509   1.733
 3985TIP3    H111877   5.351   3.518   1.722
 3985TIP3    H211878   5.220   3.526   1.646
 3986TIP3   OH211879   6.053   3.510   2.240
 3986TIP3    H111880   6.033   3.527   2.332
 3986TIP3    H211881   5.985   3.448   2.213
 3987TIP3   OH211882   5.143   3.533   1.484
 3987TIP3    H111883   5.081   3.482   1.433
 3987TIP3    H211884   5.198   3.577   1.419
 3988TIP3   OH211885   6.252   5.213   2.460
 3988TIP3    H111886   6.250   5.228   2.366
 3988TIP3    H211887   6.331   5.257   2.490
 3989TIP3   OH211888   5.198   4.322   2.868
 3989TIP3    H111889   5.277   4.342   2.917
 3989TIP3    H211890   5.127   4.331   2.932
 3990TIP3   OH211891   5.657   3.796   2.136
 3990TIP3    H111892   5.721   3.744   2.088
 3990TIP3    H211893   5.653   3.756   2.223
 3991TIP3   OH211894   5.147   3.257   2.024
 3991TIP3    H111895   5.119   3.182   2.076
 3991TIP3    H211896   5.166   3.220   1.937
 3992TIP3   OH211897   5.629   3.698   2.399
 3992TIP3    H111898   5.542   3.728   2.425
 3992TIP3    H211899   5.689   3.749   2.454
 3993TIP3   OH211900   5.361   4.044   1.515
 3993TIP3    H111901   5.286   3.989   1.491
 3993TIP3    H211902   5.334   4.085   1.597
 3994TIP3   OH211903   6.253   4.305   2.119
 3994TIP3    H111904   6.288   4.352   2.044
 3994TIP3    H211905   6.174   4.261   2.086
 3995TIP3   OH211906   5.829   3.361   1.424
 3995TIP3    H111907   5.736   3.338   1.418
 3995TIP3    H211908   5.830   3.456   1.434
 3996TIP3   OH211909   5.781   4.391   2.528
 3996TIP3    H111910   5.826   4.373   2.611
 3996TIP3    H211911   5.731   4.471   2.545
 3997TIP3   OH211912   5.885   3.628   1.491
 3997TIP3    H111913   5.980   3.631   1.500
 3997TIP3    H211914   5.863   3.706   1.439
 3998TIP3   OH211915   5.057   4.068   2.163
 3998TIP3    H111916   5.094   4.047   2.077
 3998TIP3    H211917   5.121   4.034   2.226
 3999TIP3   OH211918   5.513   4.206   1.359
 3999TIP3    H111919   5.466   4.289   1.357
 3999TIP3    H211920   5.458   4.148   1.411
 4000TIP3   OH211921   4.934   3.987   2.794
 4000TIP3    H111922   4.932   3.959   2.886
 4000TIP3    H211923   4.859   3.943   2.754
 4001TIP3   OH211924   5.676   4.132   2.818
 4001TIP3    H111925   5.606   4.072   2.794
 4001TIP3    H211926   5.756   4.088   2.790
 4002TIP3   OH211927   5.913   4.674   2.425
 4002TIP3    H111928   5.820   4.654   2.428
 4002TIP3    H211929   5.934   4.708   2.512
 4003TIP3   OH211930   6.301   3.710   1.305
 4003TIP3    H111931   6.245   3.664   1.243
 4003TIP3    H211932   6.305   3.800   1.272
 4004TIP3   OH211933   6.551   4.581   2.391
 4004TIP3    H111934   6.457   4.569   2.382
 4004TIP3    H211935   6.587   4.554   2.307
 4005TIP3   OH211936   6.026   4.502   1.287
 4005TIP3    H111937   5.998   4.443   1.357
 4005TIP3    H211938   6.037   4.445   1.211
 4006TIP3   OH211939   6.026   4.167   2.015
 4006TIP3    H111940   5.936   4.145   2.039
 4006TIP3    H211941   6.061   4.087   1.977
 4007TIP3   OH211942   5.175   4.402   1.835
 4007TIP3    H111943   5.167   4.476   1.775
 4007TIP3    H211944   5.088   4.393   1.873
 4008TIP3   OH211945   4.740   3.688   1.547
 4008TIP3    H111946   4.781   3.771   1.569
 4008TIP3    H211947   4.658   3.688   1.596
 4009TIP3   OH211948   5.263   4.160   1.738
 4009TIP3    H111949   5.243   4.248   1.769
 4009TIP3    H211950   5.237   4.102   1.810
 4010TIP3   OH211951   5.458   4.728   2.290
 4010TIP3    H111952   5.496   4.801   2.241
 4010TIP3    H211953   5.530   4.692   2.341
 4011TIP3   OH211954   5.089   4.620   1.679
 4011TIP3    H111955   5.002   4.622   1.718
 4011TIP3    H211956   5.122   4.709   1.688
 4012TIP3   OH211957   5.815   4.391   2.254
 4012TIP3    H111958   5.804   4.389   2.349
 4012TIP3    H211959   5.879   4.323   2.236
 4013TIP3   OH211960   5.800   4.260   1.134
 4013TIP3    H111961   5.853   4.236   1.210
 4013TIP3    H211962   5.718   4.212   1.146
 4014TIP3   OH211963   6.061   4.867   2.298
 4014TIP3    H111964   6.017   4.796   2.345
 4014TIP3    H211965   5.993   4.903   2.240
 4015TIP3   OH211966   6.115   4.711   1.027
 4015TIP3    H111967   6.119   4.699   0.932
 4015TIP3    H211968   6.039   4.767   1.042
 4016TIP3   OH211969   5.144   3.517   2.797
 4016TIP3    H111970   5.049   3.527   2.801
 4016TIP3    H211971   5.167   3.469   2.876
 4017TIP3   OH211972   5.981   4.192   1.330
 4017TIP3    H111973   5.965   4.133   1.404
 4017TIP3    H211974   6.076   4.195   1.321
 4018TIP3   OH211975   4.889   4.603   2.448
 4018TIP3    H111976   4.943   4.541   2.497
 4018TIP3    H211977   4.898   4.686   2.495
 4019TIP3   OH211978   5.158   4.232   1.143
 4019TIP3    H111979   5.169   4.140   1.116
 4019TIP3    H211980   5.142   4.228   1.237
 4020TIP3   OH211981   5.098   4.252   1.413
 4020TIP3    H111982   5.158   4.227   1.483
 4020TIP3    H211983   5.096   4.348   1.417
 4021TIP3   OH211984   4.832   3.940   1.626
 4021TIP3    H111985   4.767   3.988   1.677
 4021TIP3    H211986   4.851   3.998   1.552
 4022TIP3   OH211987   5.995   3.572   2.502
 4022TIP3    H111988   6.073   3.616   2.535
 4022TIP3    H211989   5.986   3.494   2.557
 4023TIP3   OH211990   5.889   3.311   1.691
 4023TIP3    H111991   5.868   3.329   1.600
 4023TIP3    H211992   5.933   3.391   1.722
 4024TIP3   OH211993   5.370   4.436   1.356
 4024TIP3    H111994   5.284   4.459   1.391
 4024TIP3    H211995   5.390   4.507   1.294
 4025TIP3   OH211996   5.537   3.514   1.779
 4025TIP3    H111997   5.599   3.582   1.753
 4025TIP3    H211998   5.561   3.493   1.869
 4026TIP3   OH211999   5.837   3.809   2.551
 4026TIP3    H112000   5.859   3.850   2.635
 4026TIP3    H212001   5.884   3.727   2.551
 4027TIP3   OH212002   5.700   3.209   1.866
 4027TIP3    H112003   5.677   3.287   1.916
 4027TIP3    H212004   5.770   3.238   1.807
 4028TIP3   OH212005   5.119   4.526   1.423
 4028TIP3    H112006   5.094   4.597   1.364
 4028TIP3    H212007   5.105   4.562   1.510
 4029TIP3   OH212008   5.212   3.235   1.674
 4029TIP3    H112009   5.200   3.326   1.703
 4029TIP3    H212010   5.306   3.220   1.680
 4030TIP3   OH212011   6.449   3.702   2.541
 4030TIP3    H112012   6.355   3.714   2.555
 4030TIP3    H212013   6.454   3.638   2.470
 4031TIP3   OH212014   6.116   3.909   1.929
 4031TIP3    H112015   6.040   3.852   1.938
 4031TIP3    H212016   6.183   3.869   1.984
 4032TIP3   OH212017   4.855   4.115   1.408
 4032TIP3    H112018   4.926   4.179   1.416
 4032TIP3    H212019   4.887   4.052   1.344
 4033TIP3   OH212020   4.762   3.410   1.542
 4033TIP3    H112021   4.774   3.504   1.550
 4033TIP3    H212022   4.701   3.400   1.469
 4034TIP3   OH212023   6.093   4.899   1.864
 4034TIP3    H112024   6.054   4.928   1.782
 4034TIP3    H212025   6.186   4.919   1.855
 4035TIP3   OH212026   5.167   3.129   2.407
 4035TIP3    H112027   5.137   3.098   2.322
 4035TIP3    H212028   5.155   3.054   2.466
 4036TIP3   OH212029   4.681   4.388   1.798
 4036TIP3    H112030   4.634   4.423   1.874
 4036TIP3    H212031   4.638   4.429   1.722
 4037TIP3   OH212032   4.886   4.914   2.870
 4037TIP3    H112033   4.968   4.908   2.920
 4037TIP3    H212034   4.855   4.823   2.865
 4038TIP3   OH212035   5.361   4.844   2.904
 4038TIP3    H112036   5.446   4.804   2.919
 4038TIP3    H212037   5.320   4.789   2.837
 4039TIP3   OH212038   5.312   4.433   1.032
 4039TIP3    H112039   5.265   4.362   1.077
 4039TIP3    H212040   5.387   4.389   0.991
 4040TIP3   OH212041   5.971   4.777   2.671
 4040TIP3    H112042   5.985   4.705   2.732
 4040TIP3    H212043   6.046   4.834   2.684
 4041TIP3   OH212044   5.755   4.468   0.965
 4041TIP3    H112045   5.781   4.403   1.031
 4041TIP3    H212046   5.811   4.450   0.890
 4042TIP3   OH212047   4.991   4.328   3.056
 4042TIP3    H112048   5.006   4.234   3.068
 4042TIP3    H212049   4.905   4.333   3.015
 4043TIP3   OH212050   4.979   3.926   1.255
 4043TIP3    H112051   5.029   3.901   1.333
 4043TIP3    H212052   5.046   3.939   1.187
 4044TIP3   OH212053   5.611   4.409   2.836
 4044TIP3    H112054   5.563   4.428   2.756
 4044TIP3    H212055   5.644   4.320   2.823
 4045TIP3   OH212056   5.545   4.142   1.093
 4045TIP3    H112057   5.522   4.152   1.185
 4045TIP3    H212058   5.526   4.050   1.073
 4046TIP3   OH212059   6.091   4.453   2.460
 4046TIP3    H112060   6.165   4.481   2.407
 4046TIP3    H212061   6.022   4.516   2.441
 4047TIP3   OH212062   5.105   4.072   3.070
 4047TIP3    H112063   5.181   4.046   3.018
 4047TIP3    H212064   5.141   4.090   3.157
 4048TIP3   OH212065   5.152   3.868   1.468
 4048TIP3    H112066   5.130   3.837   1.556
 4048TIP3    H212067   5.200   3.795   1.428
 4049TIP3   OH212068   5.471   3.956   2.729
 4049TIP3    H112069   5.382   3.992   2.738
 4049TIP3    H212070   5.498   3.981   2.641
 4050TIP3   OH212071   5.296   3.686   1.314
 4050TIP3    H112072   5.265   3.688   1.223
 4050TIP3    H212073   5.391   3.693   1.307
 4051TIP3   OH212074   5.967   4.325   2.802
 4051TIP3    H112075   6.037   4.286   2.749
 4051TIP3    H212076   5.963   4.271   2.881
 4052TIP3   OH212077   6.094   3.965   0.988
 4052TIP3    H112078   6.077   3.922   0.904
 4052TIP3    H212079   6.065   4.056   0.975
 4053TIP3   OH212080   5.570   3.720   2.831
 4053TIP3    H112081   5.571   3.651   2.765
 4053TIP3    H212082   5.536   3.797   2.784
 4054TIP3   OH212083   5.577   3.522   2.627
 4054TIP3    H112084   5.604   3.558   2.542
 4054TIP3    H212085   5.486   3.494   2.614
 4055TIP3   OH212086   5.578   4.040   2.494
 4055TIP3    H112087   5.668   4.067   2.478
 4055TIP3    H212088   5.525   4.103   2.446
 4056TIP3   OH212089   6.174   4.002   2.878
 4056TIP3    H112090   6.206   3.912   2.889
 4056TIP3    H212091   6.252   4.054   2.863
 4057TIP3   OH212092   6.211   4.271   2.620
 4057TIP3    H112093   6.158   4.334   2.571
 4057TIP3    H212094   6.300   4.284   2.589
 4058TIP3   OH212095   5.455   3.801   3.075
 4058TIP3    H112096   5.385   3.740   3.096
 4058TIP3    H212097   5.483   3.777   2.986
 4059TIP3   OH212098   5.700   3.291   2.730
 4059TIP3    H112099   5.659   3.371   2.697
 4059TIP3    H212100   5.634   3.223   2.718
 4060TIP3   OH212101   5.825   3.759   2.935
 4060TIP3    H112102   5.814   3.746   3.029
 4060TIP3    H212103   5.739   3.738   2.898
 4061TIP3   OH212104   6.072   3.717   2.809
 4061TIP3    H112105   5.993   3.715   2.862
 4061TIP3    H212106   6.141   3.688   2.868
 4062TIP3   OH212107   6.310   3.679   2.954
 4062TIP3    H112108   6.324   3.585   2.961
 4062TIP3    H212109   6.305   3.710   3.045
 4063TIP3   OH212110   5.289   3.581   3.139
 4063TIP3    H112111   5.295   3.493   3.102
 4063TIP3    H212112   5.327   3.573   3.226
 4064TIP3   OH212113   5.767   3.266   2.995
 4064TIP3    H112114   5.836   3.200   2.988
 4064TIP3    H212115   5.737   3.278   2.905
 4065TIP3   OH212116   5.864   3.481   3.139
 4065TIP3    H112117   5.833   3.408   3.085
 4065TIP3    H212118   5.791   3.543   3.141
 4066TIP3   OH212119   5.109   4.739   1.239
 4066TIP3    H112120   5.198   4.716   1.212
 4066TIP3    H212121   5.072   4.783   1.162
 4067TIP3   OH212122   4.581   4.118   1.419
 4067TIP3    H112123   4.676   4.126   1.419
 4067TIP3    H212124   4.565   4.031   1.383
 4068TIP3   OH212125   4.487   4.701   1.888
 4068TIP3    H112126   4.423   4.648   1.842
 4068TIP3    H212127   4.531   4.640   1.947
 4069TIP3   OH212128   4.631   4.531   2.054
 4069TIP3    H112129   4.621   4.461   2.119
 4069TIP3    H212130   4.683   4.598   2.098
 4070TIP3   OH212131   6.351   4.991   1.860
 4070TIP3    H112132   6.388   4.982   1.948
 4070TIP3    H212133   6.428   4.990   1.802
 4071TIP3   OH212134   6.409   4.954   2.136
 4071TIP3    H112135   6.356   4.875   2.129
 4071TIP3    H212136   6.471   4.935   2.206
 4072TIP3   OH212137   6.438   4.671   2.714
 4072TIP3    H112138   6.367   4.679   2.777
 4072TIP3    H212139   6.485   4.754   2.719
 4073TIP3   OH212140   6.258   4.177   1.329
 4073TIP3    H112141   6.319   4.245   1.299
 4073TIP3    H212142   6.303   4.136   1.403
 4074TIP3   OH212143   6.389   4.035   1.528
 4074TIP3    H112144   6.321   3.996   1.583
 4074TIP3    H212145   6.453   4.070   1.589
 4075TIP3   OH212146   6.436   4.442   1.956
 4075TIP3    H112147   6.488   4.369   1.923
 4075TIP3    H212148   6.451   4.512   1.893
 4076TIP3   OH212149   6.245   4.733   2.140
 4076TIP3    H112150   6.178   4.777   2.192
 4076TIP3    H212151   6.197   4.690   2.069
 4077TIP3   OH212152   6.293   3.952   1.175
 4077TIP3    H112153   6.224   3.952   1.109
 4077TIP3    H212154   6.276   4.031   1.227
 4078TIP3   OH212155   6.151   3.595   1.108
 4078TIP3    H112156   6.111   3.630   1.029
 4078TIP3    H212157   6.146   3.500   1.097
 4079TIP3   OH212158   6.184   3.898   1.660
 4079TIP3    H112159   6.188   3.803   1.644
 4079TIP3    H212160   6.166   3.906   1.753
 4080TIP3   OH212161   4.803   3.966   2.433
 4080TIP3    H112162   4.793   3.932   2.344
 4080TIP3    H212163   4.897   3.961   2.449
 4081TIP3   OH212164   6.468   4.316   2.524
 4081TIP3    H112165   6.534   4.248   2.510
 4081TIP3    H212166   6.489   4.383   2.459
 4082TIP3   OH212167   6.645   4.105   2.516
 4082TIP3    H112168   6.571   4.062   2.558
 4082TIP3    H212169   6.720   4.049   2.536
 4083TIP3   OH212170   6.119   3.321   1.072
 4083TIP3    H112171   6.186   3.291   1.133
 4083TIP3    H212172   6.037   3.286   1.106
 4084TIP3   OH212173   6.178   3.623   1.547
 4084TIP3    H112174   6.223   3.540   1.561
 4084TIP3    H212175   6.219   3.660   1.469
 4085TIP3   OH212176   6.331   3.789   2.071
 4085TIP3    H112177   6.412   3.805   2.023
 4085TIP3    H212178   6.346   3.828   2.157
 4086TIP3   OH212179   6.406   3.937   2.298
 4086TIP3    H112180   6.334   3.965   2.355
 4086TIP3    H212181   6.437   4.018   2.257
 4087TIP3   OH212182   5.024   3.642   3.079
 4087TIP3    H112183   5.118   3.639   3.098
 4087TIP3    H212184   4.989   3.562   3.119
 4088TIP3   OH212185   6.865   3.540   2.836
 4088TIP3    H112186   6.931   3.481   2.799
 4088TIP3    H212187   6.830   3.587   2.760
 4089TIP3   OH212188   6.293   3.375   1.600
 4089TIP3    H112189   6.337   3.358   1.684
 4089TIP3    H212190   6.232   3.302   1.591
 4090TIP3   OH212191   5.005   3.355   2.415
 4090TIP3    H112192   5.058   3.276   2.424
 4090TIP3    H212193   5.069   3.425   2.400
 4091TIP3   OH212194   4.783   3.613   2.489
 4091TIP3    H112195   4.834   3.605   2.408
 4091TIP3    H212196   4.805   3.699   2.524
 4092TIP3   OH212197   6.717   3.654   2.637
 4092TIP3    H112198   6.637   3.692   2.673
 4092TIP3    H212199   6.687   3.581   2.584
 4093TIP3   OH212200   6.359   3.266   1.208
 4093TIP3    H112201   6.415   3.211   1.153
 4093TIP3    H212202   6.410   3.346   1.220
 4094TIP3   OH212203   4.769   3.136   1.993
 4094TIP3    H112204   4.683   3.121   2.033
 4094TIP3    H212205   4.750   3.187   1.914
 4095TIP3   OH212206   5.948   4.870   1.548
 4095TIP3    H112207   5.969   4.823   1.468
 4095TIP3    H212208   6.004   4.948   1.546
 4096TIP3   OH212209   4.993   3.178   2.815
 4096TIP3    H112210   4.946   3.182   2.898
 4096TIP3    H212211   4.939   3.229   2.754
 4097TIP3   OH212212   5.029   4.635   2.896
 4097TIP3    H112213   4.936   4.624   2.880
 4097TIP3    H212214   5.040   4.619   2.990
 4098TIP3   OH212215   5.228   4.689   2.438
 4098TIP3    H112216   5.178   4.765   2.408
 4098TIP3    H212217   5.313   4.698   2.394
 4099TIP3   OH212218   5.638   4.919   2.572
 4099TIP3    H112219   5.676   4.910   2.660
 4099TIP3    H212220   5.700   4.975   2.525
 4100TIP3   OH212221   5.817   5.085   2.442
 4100TIP3    H112222   5.874   5.033   2.385
 4100TIP3    H212223   5.878   5.135   2.497
 4101TIP3   OH212224   6.630   3.403   2.534
 4101TIP3    H112225   6.542   3.396   2.496
 4101TIP3    H212226   6.665   3.314   2.531
 4102TIP3   OH212227   4.895   4.940   2.482
 4102TIP3    H112228   4.802   4.953   2.461
 4102TIP3    H212229   4.913   5.004   2.551
 4103TIP3   OH212230   5.128   4.927   2.338
 4103TIP3    H112231   5.045   4.932   2.386
 4103TIP3    H212232   5.105   4.949   2.248
 4104TIP3   OH212233   5.542   4.938   2.127
 4104TIP3    H112234   5.467   4.942   2.068
 4104TIP3    H212235   5.547   5.026   2.164
 4105TIP3   OH212236   5.816   4.904   2.167
 4105TIP3    H112237   5.721   4.907   2.158
 4105TIP3    H212238   5.848   4.953   2.091
 4106TIP3   OH212239   6.031   5.090   2.049
 4106TIP3    H112240   5.994   5.152   1.985
 4106TIP3    H212241   6.057   5.015   1.996
 4107TIP3   OH212242   4.807   4.706   2.199
 4107TIP3    H112243   4.828   4.677   2.287
 4107TIP3    H212244   4.878   4.673   2.145
 4108TIP3   OH212245   5.009   4.593   2.057
 4108TIP3    H112246   5.020   4.509   2.102
 4108TIP3    H212247   5.095   4.634   2.061
 4109TIP3   OH212248   5.277   4.678   2.083
 4109TIP3    H112249   5.296   4.586   2.067
 4109TIP3    H212250   5.328   4.699   2.161
 4110TIP3   OH212251   5.837   3.328   2.172
 4110TIP3    H112252   5.798   3.256   2.221
 4110TIP3    H212253   5.905   3.286   2.119
 4111TIP3   OH212254   6.335   3.248   2.064
 4111TIP3    H112255   6.371   3.296   1.989
 4111TIP3    H212256   6.241   3.264   2.060
 4112TIP3   OH212257   6.449   3.321   1.824
 4112TIP3    H112258   6.518   3.261   1.796
 4112TIP3    H212259   6.486   3.408   1.812
 4113TIP3   OH212260   5.075   3.029   2.167
 4113TIP3    H112261   4.986   2.996   2.177
 4113TIP3    H212262   5.129   2.950   2.157
 4114TIP3   OH212263   4.899   2.942   1.826
 4114TIP3    H112264   4.922   2.990   1.747
 4114TIP3    H212265   4.862   3.008   1.884
 4115TIP3   OH212266   5.557   3.067   2.065
 4115TIP3    H112267   5.604   3.113   1.996
 4115TIP3    H212268   5.598   3.096   2.146
 4116TIP3   OH212269   6.051   3.214   2.037
 4116TIP3    H112270   6.059   3.179   1.948
 4116TIP3    H212271   6.056   3.137   2.093
 4117TIP3   OH212272   6.110   3.163   1.599
 4117TIP3    H112273   6.030   3.208   1.626
 4117TIP3    H212274   6.101   3.075   1.635
 4118TIP3   OH212275   4.567   4.504   1.575
 4118TIP3    H112276   4.482   4.473   1.544
 4118TIP3    H212277   4.571   4.596   1.547
 4119TIP3   OH212278   5.002   3.067   1.584
 4119TIP3    H112279   5.047   3.004   1.527
 4119TIP3    H212280   5.072   3.122   1.619
 4120TIP3   OH212281   5.487   3.263   1.680
 4120TIP3    H112282   5.545   3.208   1.733
 4120TIP3    H212283   5.504   3.352   1.710
 4121TIP3   OH212284   5.365   4.656   1.178
 4121TIP3    H112285   5.454   4.676   1.150
 4121TIP3    H212286   5.336   4.586   1.120
 4122TIP3   OH212287   6.048   4.771   1.317
 4122TIP3    H112288   6.048   4.676   1.308
 4122TIP3    H212289   6.011   4.803   1.235
 4123TIP3   OH212290   5.305   3.313   3.047
 4123TIP3    H112291   5.271   3.248   3.108
 4123TIP3    H212292   5.398   3.321   3.070
 4124TIP3   OH212293   5.553   3.318   3.169
 4124TIP3    H112294   5.630   3.297   3.116
 4124TIP3    H212295   5.549   3.248   3.235
 4125TIP3   OH212296   4.679   4.496   1.236
 4125TIP3    H112297   4.677   4.501   1.331
 4125TIP3    H212298   4.761   4.450   1.216
 4126TIP3   OH212299   6.373   3.408   2.960
 4126TIP3    H112300   6.389   3.379   3.050
 4126TIP3    H212301   6.459   3.402   2.918
 4127TIP3   OH212302   6.287   4.938   2.459
 4127TIP3    H112303   6.213   4.909   2.406
 4127TIP3    H212304   6.274   5.032   2.469
 4128TIP3   OH212305   7.562   4.336   1.215
 4128TIP3    H112306   7.532   4.420   1.182
 4128TIP3    H212307   7.494   4.274   1.187
 4129TIP3   OH212308   7.552   4.319   1.624
 4129TIP3    H112309   7.600   4.300   1.704
 4129TIP3    H212310   7.508   4.237   1.602
 4130TIP3   OH212311   6.863   4.179   1.975
 4130TIP3    H112312   6.901   4.127   2.045
 4130TIP3    H212313   6.937   4.203   1.919
 4131TIP3   OH212314   7.856   4.609   1.310
 4131TIP3    H112315   7.831   4.540   1.371
 4131TIP3    H212316   7.864   4.687   1.365
 4132TIP3   OH212317   6.842   4.605   1.672
 4132TIP3    H112318   6.830   4.510   1.668
 4132TIP3    H212319   6.936   4.618   1.665
 4133TIP3   OH212320   6.539   3.813   1.440
 4133TIP3    H112321   6.497   3.895   1.466
 4133TIP3    H212322   6.469   3.761   1.401
 4134TIP3   OH212323   6.616   4.120   1.671
 4134TIP3    H112324   6.666   4.042   1.696
 4134TIP3    H212325   6.681   4.181   1.638
 4135TIP3   OH212326   7.496   5.043   1.363
 4135TIP3    H112327   7.544   4.988   1.300
 4135TIP3    H212328   7.511   5.000   1.447
 4136TIP3   OH212329   7.369   4.543   1.632
 4136TIP3    H112330   7.413   4.463   1.605
 4136TIP3    H212331   7.440   4.598   1.667
 4137TIP3   OH212332   8.349   3.866   1.648
 4137TIP3    H112333   8.386   3.928   1.710
 4137TIP3    H212334   8.356   3.909   1.563
 4138TIP3   OH212335   7.775   4.025   1.674
 4138TIP3    H112336   7.810   3.939   1.700
 4138TIP3    H212337   7.738   4.010   1.587
 4139TIP3   OH212338   7.135   3.685   1.625
 4139TIP3    H112339   7.113   3.758   1.568
 4139TIP3    H212340   7.081   3.612   1.594
 4140TIP3   OH212341   7.832   3.786   1.286
 4140TIP3    H112342   7.903   3.763   1.346
 4140TIP3    H212343   7.877   3.822   1.210
 4141TIP3   OH212344   6.760   3.900   1.757
 4141TIP3    H112345   6.843   3.881   1.800
 4141TIP3    H212346   6.761   3.848   1.677
 4142TIP3   OH212347   7.176   4.101   1.576
 4142TIP3    H112348   7.270   4.085   1.582
 4142TIP3    H212349   7.140   4.019   1.542
 4143TIP3   OH212350   8.422   4.074   1.806
 4143TIP3    H112351   8.342   4.126   1.812
 4143TIP3    H212352   8.490   4.130   1.843
 4144TIP3   OH212353   7.115   3.692   2.079
 4144TIP3    H112354   7.064   3.726   2.006
 4144TIP3    H212355   7.059   3.708   2.156
 4145TIP3   OH212356   7.476   4.555   1.064
 4145TIP3    H112357   7.435   4.526   0.983
 4145TIP3    H212358   7.419   4.625   1.097
 4146TIP3   OH212359   7.207   4.466   1.843
 4146TIP3    H112360   7.154   4.538   1.878
 4146TIP3    H212361   7.256   4.505   1.771
 4147TIP3   OH212362   8.017   3.769   1.496
 4147TIP3    H112363   7.955   3.758   1.568
 4147TIP3    H212364   8.052   3.857   1.508
 4148TIP3   OH212365   7.008   3.797   1.846
 4148TIP3    H112366   7.064   3.872   1.869
 4148TIP3    H212367   7.054   3.754   1.774
 4149TIP3   OH212368   7.052   4.669   1.950
 4149TIP3    H112369   7.039   4.759   1.922
 4149TIP3    H212370   6.974   4.648   2.001
 4150TIP3   OH212371   6.439   4.357   1.219
 4150TIP3    H112372   6.399   4.373   1.134
 4150TIP3    H212373   6.461   4.444   1.252
 4151TIP3   OH212374   7.865   4.841   1.467
 4151TIP3    H112375   7.774   4.839   1.498
 4151TIP3    H212376   7.873   4.925   1.422
 4152TIP3   OH212377   8.183   3.733   1.822
 4152TIP3    H112378   8.096   3.749   1.785
 4152TIP3    H212379   8.244   3.767   1.755
 4153TIP3   OH212380   7.454   3.389   1.811
 4153TIP3    H112381   7.450   3.296   1.835
 4153TIP3    H212382   7.376   3.428   1.850
 4154TIP3   OH212383   7.612   4.898   1.165
 4154TIP3    H112384   7.662   4.822   1.134
 4154TIP3    H212385   7.625   4.964   1.097
 4155TIP3   OH212386   7.739   4.667   1.067
 4155TIP3    H112387   7.659   4.614   1.061
 4155TIP3    H212388   7.782   4.635   1.147
 4156TIP3   OH212389   8.097   4.734   1.775
 4156TIP3    H112390   8.083   4.660   1.716
 4156TIP3    H212391   8.072   4.811   1.723
 4157TIP3   OH212392   7.398   4.167   1.065
 4157TIP3    H112393   7.316   4.211   1.043
 4157TIP3    H212394   7.443   4.156   0.981
 4158TIP3   OH212395   7.369   3.934   0.783
 4158TIP3    H112396   7.435   3.990   0.824
 4158TIP3    H212397   7.419   3.875   0.727
 4159TIP3   OH212398   8.289   4.370   1.568
 4159TIP3    H112399   8.214   4.429   1.571
 4159TIP3    H212400   8.346   4.408   1.500
 4160TIP3   OH212401   7.739   4.254   1.024
 4160TIP3    H112402   7.686   4.284   1.098
 4160TIP3    H212403   7.819   4.222   1.064
 4161TIP3   OH212404   7.949   4.285   1.947
 4161TIP3    H112405   7.938   4.360   2.006
 4161TIP3    H212406   7.866   4.278   1.900
 4162TIP3   OH212407   6.979   4.233   1.423
 4162TIP3    H112408   6.940   4.171   1.361
 4162TIP3    H212409   7.050   4.184   1.464
 4163TIP3   OH212410   7.110   4.655   1.573
 4163TIP3    H112411   7.083   4.639   1.482
 4163TIP3    H212412   7.198   4.618   1.579
 4164TIP3   OH212413   7.075   4.230   1.799
 4164TIP3    H112414   7.114   4.193   1.720
 4164TIP3    H212415   7.124   4.311   1.814
 4165TIP3   OH212416   7.614   4.862   1.574
 4165TIP3    H112417   7.610   4.943   1.626
 4165TIP3    H212418   7.601   4.792   1.639
 4166TIP3   OH212419   7.252   4.766   2.118
 4166TIP3    H112420   7.190   4.823   2.166
 4166TIP3    H212421   7.196   4.714   2.060
 4167TIP3   OH212422   7.573   4.116   0.853
 4167TIP3    H112423   7.635   4.171   0.901
 4167TIP3    H212424   7.586   4.139   0.761
 4168TIP3   OH212425   7.006   4.315   2.262
 4168TIP3    H112426   7.009   4.409   2.281
 4168TIP3    H212427   6.913   4.295   2.256
 4169TIP3   OH212428   7.337   4.790   1.158
 4169TIP3    H112429   7.404   4.816   1.221
 4169TIP3    H212430   7.272   4.860   1.161
 4170TIP3   OH212431   7.040   4.923   2.204
 4170TIP3    H112432   7.017   4.934   2.111
 4170TIP3    H212433   6.956   4.913   2.248
 4171TIP3   OH212434   8.053   3.356   0.894
 4171TIP3    H112435   7.999   3.382   0.969
 4171TIP3    H212436   8.039   3.425   0.830
 4172TIP3   OH212437   6.850   4.069   1.231
 4172TIP3    H112438   6.774   4.115   1.195
 4172TIP3    H212439   6.819   3.980   1.245
 4173TIP3   OH212440   6.637   4.481   2.153
 4173TIP3    H112441   6.567   4.462   2.090
 4173TIP3    H212442   6.671   4.396   2.179
 4174TIP3   OH212443   6.550   4.650   1.793
 4174TIP3    H112444   6.633   4.625   1.753
 4174TIP3    H212445   6.573   4.718   1.856
 4175TIP3   OH212446   8.326   5.224   1.849
 4175TIP3    H112447   8.327   5.133   1.820
 4175TIP3    H212448   8.248   5.230   1.904
 4176TIP3   OH212449   7.440   4.912   1.982
 4176TIP3    H112450   7.433   5.003   2.013
 4176TIP3    H212451   7.374   4.865   2.032
 4177TIP3   OH212452   7.182   5.006   1.087
 4177TIP3    H112453   7.093   4.993   1.055
 4177TIP3    H212454   7.206   5.093   1.056
 4178TIP3   OH212455   6.650   4.847   1.328
 4178TIP3    H112456   6.692   4.846   1.413
 4178TIP3    H212457   6.600   4.765   1.324
 4179TIP3   OH212458   7.585   4.747   0.630
 4179TIP3    H112459   7.566   4.654   0.620
 4179TIP3    H212460   7.503   4.791   0.610
 4180TIP3   OH212461   7.432   4.954   0.942
 4180TIP3    H112462   7.379   5.033   0.956
 4180TIP3    H212463   7.425   4.907   1.025
 4181TIP3   OH212464   8.203   4.211   2.050
 4181TIP3    H112465   8.120   4.229   2.006
 4181TIP3    H212466   8.213   4.116   2.042
 4182TIP3   OH212467   6.832   4.671   2.120
 4182TIP3    H112468   6.885   4.660   2.198
 4182TIP3    H212469   6.762   4.606   2.128
 4183TIP3   OH212470   7.218   3.475   1.937
 4183TIP3    H112471   7.135   3.441   1.904
 4183TIP3    H212472   7.195   3.555   1.984
 4184TIP3   OH212473   7.754   3.595   2.139
 4184TIP3    H112474   7.826   3.564   2.194
 4184TIP3    H212475   7.675   3.578   2.191
 4185TIP3   OH212476   7.958   4.021   2.046
 4185TIP3    H112477   7.910   4.015   2.128
 4185TIP3    H212478   7.940   4.109   2.014
 4186TIP3   OH212479   7.601   4.187   0.590
 4186TIP3    H112480   7.669   4.155   0.531
 4186TIP3    H212481   7.599   4.281   0.576
 4187TIP3   OH212482   7.378   3.540   0.916
 4187TIP3    H112483   7.338   3.543   1.003
 4187TIP3    H212484   7.344   3.459   0.878
 4188TIP3   OH212485   7.159   4.008   1.945
 4188TIP3    H112486   7.114   4.014   2.029
 4188TIP3    H212487   7.137   4.089   1.900
 4189TIP3   OH212488   7.037   3.888   1.469
 4189TIP3    H112489   6.948   3.862   1.493
 4189TIP3    H212490   7.047   3.856   1.379
 4190TIP3   OH212491   7.517   3.963   1.201
 4190TIP3    H112492   7.470   4.036   1.162
 4190TIP3    H212493   7.576   3.932   1.132
 4191TIP3   OH212494   7.700   4.235   2.271
 4191TIP3    H112495   7.669   4.170   2.334
 4191TIP3    H212496   7.792   4.249   2.294
 4192TIP3   OH212497   7.680   3.972   1.423
 4192TIP3    H112498   7.612   3.989   1.357
 4192TIP3    H212499   7.730   3.898   1.387
 4193TIP3   OH212500   6.997   4.023   2.167
 4193TIP3    H112501   7.013   4.086   2.237
 4193TIP3    H212502   6.979   3.940   2.211
 4194TIP3   OH212503   7.029   3.528   0.886
 4194TIP3    H112504   7.014   3.522   0.980
 4194TIP3    H212505   6.950   3.569   0.852
 4195TIP3   OH212506   6.579   3.545   1.750
 4195TIP3    H112507   6.657   3.578   1.795
 4195TIP3    H212508   6.610   3.522   1.662
 4196TIP3   OH212509   6.490   3.511   1.249
 4196TIP3    H112510   6.537   3.545   1.173
 4196TIP3    H212511   6.425   3.578   1.270
 4197TIP3   OH212512   7.699   4.223   1.841
 4197TIP3    H112513   7.730   4.156   1.780
 4197TIP3    H212514   7.663   4.174   1.914
 4198TIP3   OH212515   7.404   3.683   1.520
 4198TIP3    H112516   7.324   3.679   1.574
 4198TIP3    H212517   7.475   3.668   1.582
 4199TIP3   OH212518   6.798   3.761   1.524
 4199TIP3    H112519   6.710   3.766   1.486
 4199TIP3    H212520   6.826   3.671   1.508
 4200TIP3   OH212521   7.050   3.769   1.223
 4200TIP3    H112522   7.144   3.777   1.208
 4200TIP3    H212523   7.011   3.787   1.137
 4201TIP3   OH212524   7.844   3.756   1.711
 4201TIP3    H112525   7.831   3.770   1.804
 4201TIP3    H212526   7.771   3.699   1.685
 4202TIP3   OH212527   6.922   3.800   0.982
 4202TIP3    H112528   6.855   3.754   0.932
 4202TIP3    H212529   6.983   3.834   0.917
 4203TIP3   OH212530   8.023   5.482   1.937
 4203TIP3    H112531   8.016   5.496   1.843
 4203TIP3    H212532   8.103   5.528   1.963
 4204TIP3   OH212533   6.988   4.584   2.352
 4204TIP3    H112534   7.069   4.602   2.400
 4204TIP3    H212535   6.920   4.591   2.418
 4205TIP3   OH212536   7.448   4.048   1.622
 4205TIP3    H112537   7.513   3.997   1.573
 4205TIP3    H212538   7.448   4.010   1.709
 4206TIP3   OH212539   6.942   3.513   1.507
 4206TIP3    H112540   6.913   3.439   1.560
 4206TIP3    H212541   6.959   3.476   1.420
 4207TIP3   OH212542   7.427   3.956   1.888
 4207TIP3    H112543   7.339   3.985   1.912
 4207TIP3    H212544   7.485   4.006   1.946
 4208TIP3   OH212545   7.170   4.306   1.003
 4208TIP3    H112546   7.104   4.238   0.987
 4208TIP3    H212547   7.144   4.346   1.085
 4209TIP3   OH212548   8.052   4.529   1.594
 4209TIP3    H112549   8.087   4.570   1.515
 4209TIP3    H212550   7.966   4.496   1.568
 4210TIP3   OH212551   7.631   3.636   0.912
 4210TIP3    H112552   7.539   3.611   0.906
 4210TIP3    H212553   7.629   3.731   0.926
 4211TIP3   OH212554   7.566   4.642   2.028
 4211TIP3    H112555   7.612   4.625   2.111
 4211TIP3    H212556   7.529   4.729   2.039
 4212TIP3   OH212557   7.683   3.897   0.990
 4212TIP3    H112558   7.778   3.898   0.999
 4212TIP3    H212559   7.663   3.967   0.928
 4213TIP3   OH212560   6.849   4.325   1.649
 4213TIP3    H112561   6.886   4.302   1.564
 4213TIP3    H212562   6.913   4.292   1.713
 4214TIP3   OH212563   7.333   4.451   0.831
 4214TIP3    H112564   7.280   4.529   0.815
 4214TIP3    H212565   7.278   4.395   0.884
 4215TIP3   OH212566   6.731   4.251   2.287
 4215TIP3    H112567   6.736   4.225   2.378
 4215TIP3    H212568   6.656   4.203   2.252
 4216TIP3   OH212569   7.465   4.387   2.308
 4216TIP3    H112570   7.398   4.325   2.279
 4216TIP3    H212571   7.548   4.348   2.279
 4217TIP3   OH212572   7.710   4.927   1.904
 4217TIP3    H112573   7.615   4.914   1.909
 4217TIP3    H212574   7.734   4.964   1.989
 4218TIP3   OH212575   8.093   3.959   0.824
 4218TIP3    H112576   8.090   3.881   0.769
 4218TIP3    H212577   8.079   4.032   0.764
 4219TIP3   OH212578   8.302   4.980   1.742
 4219TIP3    H112579   8.208   4.968   1.732
 4219TIP3    H212580   8.341   4.905   1.695
 4220TIP3   OH212581   7.863   4.686   0.795
 4220TIP3    H112582   7.845   4.701   0.888
 4220TIP3    H212583   7.834   4.597   0.779
 4221TIP3   OH212584   7.806   4.415   1.508
 4221TIP3    H112585   7.716   4.398   1.534
 4221TIP3    H212586   7.838   4.331   1.472
 4222TIP3   OH212587   6.973   4.651   1.329
 4222TIP3    H112588   6.967   4.731   1.276
 4222TIP3    H212589   6.882   4.625   1.343
 4223TIP3   OH212590   6.528   3.940   1.034
 4223TIP3    H112591   6.574   4.022   1.055
 4223TIP3    H212592   6.448   3.942   1.086
 4224TIP3   OH212593   7.072   4.411   1.231
 4224TIP3    H112594   7.049   4.500   1.259
 4224TIP3    H212595   7.041   4.355   1.301
 4225TIP3   OH212596   7.256   4.981   1.778
 4225TIP3    H112597   7.291   5.056   1.729
 4225TIP3    H212598   7.331   4.949   1.829
 4226TIP3   OH212599   6.887   4.884   1.202
 4226TIP3    H112600   6.797   4.883   1.236
 4226TIP3    H212601   6.914   4.975   1.207
 4227TIP3   OH212602   7.601   4.646   1.753
 4227TIP3    H112603   7.588   4.643   1.848
 4227TIP3    H212604   7.682   4.596   1.738
 4228TIP3   OH212605   7.560   4.466   0.651
 4228TIP3    H112606   7.636   4.456   0.708
 4228TIP3    H212607   7.485   4.458   0.710
 4229TIP3   OH212608   7.854   5.144   1.797
 4229TIP3    H112609   7.785   5.079   1.812
 4229TIP3    H212610   7.822   5.196   1.723
 4230TIP3   OH212611   6.943   3.770   2.285
 4230TIP3    H112612   6.848   3.779   2.290
 4230TIP3    H212613   6.966   3.719   2.362
 4231TIP3   OH212614   7.777   4.421   0.811
 4231TIP3    H112615   7.757   4.371   0.890
 4231TIP3    H212616   7.871   4.408   0.797
 4232TIP3   OH212617   6.676   4.858   1.952
 4232TIP3    H112618   6.732   4.798   2.001
 4232TIP3    H212619   6.684   4.942   1.996
 4233TIP3   OH212620   6.903   4.433   0.605
 4233TIP3    H112621   6.940   4.348   0.582
 4233TIP3    H212622   6.920   4.443   0.699
 4234TIP3   OH212623   6.925   4.449   0.890
 4234TIP3    H112624   6.963   4.391   0.956
 4234TIP3    H212625   6.874   4.512   0.940
 4235TIP3   OH212626   6.631   4.191   1.109
 4235TIP3    H112627   6.569   4.236   1.165
 4235TIP3    H212628   6.640   4.247   1.032
 4236TIP3   OH212629   7.798   3.805   1.970
 4236TIP3    H112630   7.859   3.866   2.012
 4236TIP3    H212631   7.783   3.737   2.036
 4237TIP3   OH212632   7.685   3.573   1.179
 4237TIP3    H112633   7.666   3.593   1.087
 4237TIP3    H212634   7.726   3.653   1.212
 4238TIP3   OH212635   7.094   4.607   0.749
 4238TIP3    H112636   7.037   4.555   0.806
 4238TIP3    H212637   7.137   4.669   0.809
 4239TIP3   OH212638   7.331   3.773   1.269
 4239TIP3    H112639   7.394   3.840   1.242
 4239TIP3    H212640   7.354   3.754   1.360
 4240TIP3   OH212641   7.624   4.068   2.055
 4240TIP3    H112642   7.644   4.125   2.130
 4240TIP3    H212643   7.670   3.986   2.075
 4241TIP3   OH212644   7.497   3.474   1.356
 4241TIP3    H112645   7.474   3.553   1.405
 4241TIP3    H212646   7.563   3.504   1.293
 4242TIP3   OH212647   6.811   4.659   1.016
 4242TIP3    H112648   6.868   4.721   0.972
 4242TIP3    H212649   6.768   4.711   1.084
 4243TIP3   OH212650   7.004   3.497   1.165
 4243TIP3    H112651   6.996   3.587   1.196
 4243TIP3    H212652   7.097   3.478   1.169
 4244TIP3   OH212653   8.215   3.938   2.020
 4244TIP3    H112654   8.121   3.950   2.036
 4244TIP3    H212655   8.219   3.877   1.946
 4245TIP3   OH212656   7.890   4.163   1.418
 4245TIP3    H112657   7.812   4.107   1.425
 4245TIP3    H212658   7.956   4.117   1.470
 4246TIP3   OH212659   6.623   4.361   0.877
 4246TIP3    H112660   6.656   4.447   0.852
 4246TIP3    H212661   6.685   4.299   0.838
 4247TIP3   OH212662   6.551   3.660   1.028
 4247TIP3    H112663   6.553   3.756   1.032
 4247TIP3    H212664   6.482   3.640   0.964
 4248TIP3   OH212665   7.891   5.101   1.393
 4248TIP3    H112666   7.838   5.135   1.320
 4248TIP3    H212667   7.980   5.132   1.375
 4249TIP3   OH212668   6.958   3.388   1.895
 4249TIP3    H112669   6.929   3.357   1.810
 4249TIP3    H212670   6.949   3.313   1.953
 4250TIP3   OH212671   6.489   4.619   1.315
 4250TIP3    H112672   6.438   4.652   1.389
 4250TIP3    H212673   6.449   4.661   1.238
 4251TIP3   OH212674   6.692   5.189   2.354
 4251TIP3    H112675   6.772   5.198   2.406
 4251TIP3    H212676   6.684   5.095   2.339
 4252TIP3   OH212677   7.149   5.087   2.397
 4252TIP3    H112678   7.240   5.059   2.408
 4252TIP3    H212679   7.115   5.033   2.326
 4253TIP3   OH212680   7.087   4.539   0.416
 4253TIP3    H112681   7.014   4.521   0.475
 4253TIP3    H212682   7.156   4.478   0.445
 4254TIP3   OH212683   7.765   5.028   2.152
 4254TIP3    H112684   7.775   4.957   2.215
 4254TIP3    H212685   7.839   5.087   2.170
 4255TIP3   OH212686   6.784   4.584   2.543
 4255TIP3    H112687   6.807   4.491   2.556
 4255TIP3    H212688   6.696   4.582   2.505
 4256TIP3   OH212689   6.795   4.175   0.775
 4256TIP3    H112690   6.850   4.156   0.851
 4256TIP3    H212691   6.857   4.178   0.702
 4257TIP3   OH212692   7.405   4.664   2.324
 4257TIP3    H112693   7.361   4.684   2.242
 4257TIP3    H212694   7.441   4.576   2.312
 4258TIP3   OH212695   7.240   4.375   0.566
 4258TIP3    H112696   7.278   4.398   0.651
 4258TIP3    H212697   7.261   4.282   0.556
 4259TIP3   OH212698   7.873   4.697   1.933
 4259TIP3    H112699   7.952   4.719   1.884
 4259TIP3    H212700   7.814   4.771   1.919
 4260TIP3   OH212701   6.901   4.331   2.552
 4260TIP3    H112702   6.977   4.307   2.499
 4260TIP3    H212703   6.936   4.346   2.639
 4261TIP3   OH212704   6.974   4.117   0.979
 4261TIP3    H112705   6.941   4.082   1.062
 4261TIP3    H212706   7.012   4.042   0.934
 4262TIP3   OH212707   7.264   4.209   2.210
 4262TIP3    H112708   7.178   4.251   2.219
 4262TIP3    H212709   7.295   4.237   2.124
 4263TIP3   OH212710   7.093   3.928   0.813
 4263TIP3    H112711   7.066   3.926   0.721
 4263TIP3    H212712   7.189   3.924   0.810
 4264TIP3   OH212713   7.731   4.576   2.282
 4264TIP3    H112714   7.800   4.539   2.227
 4264TIP3    H212715   7.735   4.526   2.363
 4265TIP3   OH212716   7.357   3.975   2.319
 4265TIP3    H112717   7.364   3.905   2.255
 4265TIP3    H212718   7.326   4.051   2.270
 4266TIP3   OH212719   7.373   3.779   2.115
 4266TIP3    H112720   7.402   3.813   2.031
 4266TIP3    H212721   7.283   3.751   2.100
 4267TIP3   OH212722   7.379   4.303   1.983
 4267TIP3    H112723   7.468   4.334   1.967
 4267TIP3    H212724   7.323   4.364   1.934
 4268TIP3   OH212725   7.962   4.247   2.386
 4268TIP3    H112726   7.984   4.167   2.434
 4268TIP3    H212727   8.047   4.283   2.359
 4269TIP3   OH212728   7.953   4.514   2.116
 4269TIP3    H112729   7.916   4.579   2.057
 4269TIP3    H212730   8.046   4.511   2.094
 4270TIP3   OH212731   7.246   4.060   2.563
 4270TIP3    H112732   7.178   3.996   2.585
 4270TIP3    H212733   7.274   4.035   2.475
 4271TIP3   OH212734   7.490   3.545   2.220
 4271TIP3    H112735   7.450   3.625   2.186
 4271TIP3    H212736   7.424   3.477   2.205
 4272TIP3   OH212737   7.606   4.029   2.427
 4272TIP3    H112738   7.599   4.010   2.521
 4272TIP3    H212739   7.521   4.005   2.391
 4273TIP3   OH212740   7.815   3.954   2.263
 4273TIP3    H112741   7.744   3.966   2.327
 4273TIP3    H212742   7.891   3.931   2.317
 4274TIP3   OH212743   8.041   3.914   2.410
 4274TIP3    H112744   8.068   3.823   2.420
 4274TIP3    H212745   8.057   3.953   2.496
 4275TIP3   OH212746   7.084   3.837   2.626
 4275TIP3    H112747   7.091   3.749   2.588
 4275TIP3    H212748   7.123   3.829   2.713
 4276TIP3   OH212749   7.558   3.518   2.483
 4276TIP3    H112750   7.627   3.452   2.478
 4276TIP3    H212751   7.529   3.530   2.393
 4277TIP3   OH212752   7.649   3.734   2.629
 4277TIP3    H112753   7.621   3.661   2.573
 4277TIP3    H212754   7.575   3.795   2.627
 4278TIP3   OH212755   6.754   4.994   0.708
 4278TIP3    H112756   6.843   5.023   0.726
 4278TIP3    H212757   6.731   5.038   0.626
 4279TIP3   OH212758   6.361   4.336   0.946
 4279TIP3    H112759   6.452   4.356   0.926
 4279TIP3    H212760   6.342   4.256   0.896
 4280TIP3   OH212761   6.262   4.927   1.393
 4280TIP3    H112762   6.199   4.870   1.351
 4280TIP3    H212763   6.315   4.869   1.447
 4281TIP3   OH212764   6.424   4.777   1.560
 4281TIP3    H112765   6.429   4.708   1.627
 4281TIP3    H212766   6.473   4.850   1.597
 4282TIP3   OH212767   8.125   5.221   1.341
 4282TIP3    H112768   8.160   5.250   1.425
 4282TIP3    H212769   8.201   5.219   1.283
 4283TIP3   OH212770   8.151   5.236   1.622
 4283TIP3    H112771   8.119   5.145   1.621
 4283TIP3    H212772   8.222   5.236   1.687
 4284TIP3   OH212773   8.198   4.882   2.219
 4284TIP3    H112774   8.129   4.902   2.282
 4284TIP3    H212775   8.243   4.965   2.206
 4285TIP3   OH212776   8.049   4.400   0.798
 4285TIP3    H112777   8.104   4.471   0.764
 4285TIP3    H212778   8.088   4.378   0.883
 4286TIP3   OH212779   8.141   4.327   1.048
 4286TIP3    H112780   8.076   4.266   1.083
 4286TIP3    H212781   8.144   4.398   1.112
 4287TIP3   OH212782   8.234   4.622   1.410
 4287TIP3    H112783   8.316   4.582   1.381
 4287TIP3    H212784   8.240   4.713   1.379
 4288TIP3   OH212785   8.031   4.976   1.659
 4288TIP3    H112786   7.966   5.026   1.708
 4288TIP3    H212787   7.982   4.941   1.584
 4289TIP3   OH212788   8.059   4.168   0.651
 4289TIP3    H112789   8.099   4.198   0.569
 4289TIP3    H212790   8.048   4.248   0.703
 4290TIP3   OH212791   7.803   3.870   0.594
 4290TIP3    H112792   7.862   3.916   0.534
 4290TIP3    H212793   7.853   3.794   0.624
 4291TIP3   OH212794   7.959   4.154   1.153
 4291TIP3    H112795   7.969   4.061   1.134
 4291TIP3    H212796   7.940   4.158   1.246
 4292TIP3   OH212797   6.600   4.223   1.924
 4292TIP3    H112798   6.589   4.187   1.836
 4292TIP3    H212799   6.694   4.217   1.942
 4293TIP3   OH212800   8.222   4.511   2.056
 4293TIP3    H112801   8.279   4.438   2.033
 4293TIP3    H212802   8.251   4.583   2.001
 4294TIP3   OH212803   8.447   4.324   2.034
 4294TIP3    H112804   8.371   4.265   2.038
 4294TIP3    H212805   8.490   4.313   2.119
 4295TIP3   OH212806   7.960   3.650   0.652
 4295TIP3    H112807   7.995   3.624   0.567
 4295TIP3    H212808   7.883   3.594   0.663
 4296TIP3   OH212809   7.961   3.890   1.054
 4296TIP3    H112810   8.003   3.806   1.072
 4296TIP3    H212811   8.006   3.922   0.976
 4297TIP3   OH212812   8.094   4.028   1.547
 4297TIP3    H112813   8.178   4.042   1.503
 4297TIP3    H212814   8.105   4.067   1.633
 4298TIP3   OH212815   8.163   4.201   1.753
 4298TIP3    H112816   8.090   4.247   1.796
 4298TIP3    H212817   8.200   4.266   1.694
 4299TIP3   OH212818   6.822   3.899   2.564
 4299TIP3    H112819   6.916   3.894   2.583
 4299TIP3    H212820   6.786   3.818   2.600
 4300TIP3   OH212821   8.065   3.647   1.119
 4300TIP3    H112822   8.156   3.617   1.121
 4300TIP3    H212823   8.012   3.567   1.122
 4301TIP3   OH212824   6.798   3.614   1.910
 4301TIP3    H112825   6.850   3.534   1.915
 4301TIP3    H212826   6.861   3.683   1.891
 4302TIP3   OH212827   6.577   3.872   1.975
 4302TIP3    H112828   6.626   3.862   1.893
 4302TIP3    H212829   6.615   3.950   2.015
 4303TIP3   OH212830   8.475   3.892   2.127
 4303TIP3    H112831   8.393   3.939   2.115
 4303TIP3    H212832   8.461   3.807   2.085
 4304TIP3   OH212833   6.563   3.408   1.490
 4304TIP3    H112834   6.476   3.386   1.525
 4304TIP3    H212835   6.545   3.450   1.406
 4305TIP3   OH212836   7.621   5.164   1.004
 4305TIP3    H112837   7.661   5.185   0.919
 4305TIP3    H212838   7.678   5.207   1.068
 4306TIP3   OH212839   6.787   3.433   2.298
 4306TIP3    H112840   6.738   3.432   2.380
 4306TIP3    H212841   6.733   3.486   2.239
 4307TIP3   OH212842   6.810   4.909   2.364
 4307TIP3    H112843   6.718   4.881   2.362
 4307TIP3    H212844   6.837   4.894   2.455
 4308TIP3   OH212845   7.026   4.944   1.923
 4308TIP3    H112846   6.975   5.018   1.891
 4308TIP3    H212847   7.112   4.954   1.881
 4309TIP3   OH212848   7.427   5.178   2.063
 4309TIP3    H112849   7.464   5.170   2.151
 4309TIP3    H212850   7.492   5.229   2.014
 4310TIP3   OH212851   7.624   5.325   1.938
 4310TIP3    H112852   7.693   5.273   1.896
 4310TIP3    H212853   7.671   5.388   1.993
 4311TIP3   OH212854   8.376   3.653   2.024
 4311TIP3    H112855   8.309   3.685   1.964
 4311TIP3    H212856   8.387   3.561   2.001
 4312TIP3   OH212857   6.681   5.194   1.971
 4312TIP3    H112858   6.592   5.222   1.952
 4312TIP3    H212859   6.711   5.256   2.038
 4313TIP3   OH212860   6.913   5.172   1.824
 4313TIP3    H112861   6.830   5.179   1.871
 4313TIP3    H212862   6.892   5.199   1.734
 4314TIP3   OH212863   7.330   5.193   1.620
 4314TIP3    H112864   7.260   5.205   1.556
 4314TIP3    H212865   7.343   5.280   1.658
 4315TIP3   OH212866   7.591   5.120   1.662
 4315TIP3    H112867   7.500   5.145   1.646
 4315TIP3    H212868   7.643   5.188   1.621
 4316TIP3   OH212869   7.788   5.291   1.570
 4316TIP3    H112870   7.794   5.379   1.533
 4316TIP3    H212871   7.828   5.234   1.504
 4317TIP3   OH212872   6.593   4.961   1.707
 4317TIP3    H112873   6.622   4.932   1.793
 4317TIP3    H212874   6.662   4.933   1.647
 4318TIP3   OH212875   6.796   4.853   1.562
 4318TIP3    H112876   6.809   4.767   1.601
 4318TIP3    H212877   6.883   4.893   1.562
 4319TIP3   OH212878   7.067   4.930   1.581
 4319TIP3    H112879   7.084   4.837   1.565
 4319TIP3    H212880   7.125   4.953   1.653
 4320TIP3   OH212881   7.625   3.579   1.658
 4320TIP3    H112882   7.584   3.512   1.712
 4320TIP3    H212883   7.694   3.533   1.610
 4321TIP3   OH212884   8.114   3.506   1.517
 4321TIP3    H112885   8.122   3.600   1.500
 4321TIP3    H212886   8.020   3.493   1.532
 4322TIP3   OH212887   6.868   3.289   1.654
 4322TIP3    H112888   6.779   3.256   1.662
 4322TIP3    H212889   6.922   3.211   1.643
 4323TIP3   OH212890   6.702   3.209   1.340
 4323TIP3    H112891   6.720   3.248   1.254
 4323TIP3    H212892   6.661   3.279   1.390
 4324TIP3   OH212893   7.349   3.336   1.552
 4324TIP3    H112894   7.398   3.384   1.485
 4324TIP3    H212895   7.390   3.362   1.635
 4325TIP3   OH212896   7.837   3.455   1.528
 4325TIP3    H112897   7.818   3.419   1.441
 4325TIP3    H212898   7.843   3.379   1.585
 4326TIP3   OH212899   7.911   3.419   1.129
 4326TIP3    H112900   7.827   3.464   1.139
 4326TIP3    H212901   7.897   3.332   1.166
 4327TIP3   OH212902   6.374   4.747   1.109
 4327TIP3    H112903   6.284   4.727   1.084
 4327TIP3    H212904   6.384   4.841   1.090
 4328TIP3   OH212905   6.784   3.338   1.092
 4328TIP3    H112906   6.821   3.265   1.042
 4328TIP3    H212907   6.859   3.388   1.122
 4329TIP3   OH212908   7.278   3.522   1.174
 4329TIP3    H112909   7.336   3.466   1.227
 4329TIP3    H212910   7.297   3.611   1.206
 4330TIP3   OH212911   7.109   4.929   0.674
 4330TIP3    H112912   7.161   5.007   0.693
 4330TIP3    H212913   7.112   4.921   0.579
 4331TIP3   OH212914   7.797   5.143   0.768
 4331TIP3    H112915   7.754   5.059   0.784
 4331TIP3    H212916   7.832   5.136   0.680
 4332TIP3   OH212917   7.100   3.567   2.535
 4332TIP3    H112918   7.065   3.502   2.597
 4332TIP3    H212919   7.192   3.575   2.559
 4333TIP3   OH212920   7.346   3.573   2.661
 4333TIP3    H112921   7.422   3.549   2.608
 4333TIP3    H212922   7.341   3.505   2.727
 4334TIP3   OH212923   6.440   4.640   0.756
 4334TIP3    H112924   6.452   4.725   0.799
 4334TIP3    H212925   6.529   4.607   0.744
 4335TIP3   OH212926   8.136   3.656   2.435
 4335TIP3    H112927   8.154   3.633   2.526
 4335TIP3    H212928   8.219   3.642   2.390
 4336TIP3   OH212929   8.072   5.211   1.955
 4336TIP3    H112930   7.998   5.176   1.907
 4336TIP3    H212931   8.052   5.304   1.965
 4337TIP3   OH212932   8.275   4.078   1.012
 4337TIP3    H112933   8.244   4.168   1.010
 4337TIP3    H212934   8.224   4.032   0.945
 4338TIP3   OH212935   8.226   4.584   0.702
 4338TIP3    H112936   8.264   4.586   0.614
 4338TIP3    H212937   8.245   4.671   0.737
 4339TIP3   OH212938   8.401   4.764   1.616
 4339TIP3    H112939   8.355   4.748   1.534
 4339TIP3    H212940   8.432   4.677   1.644
 4340TIP3   OH212941   8.280   4.881   1.357
 4340TIP3    H112942   8.325   4.963   1.378
 4340TIP3    H212943   8.214   4.905   1.292
 4341TIP3   OH212944   8.445   4.524   1.747
 4341TIP3    H112945   8.518   4.489   1.798
 4341TIP3    H212946   8.411   4.449   1.698
 4342TIP3   OH212947   8.428   5.099   1.451
 4342TIP3    H112948   8.461   5.052   1.528
 4342TIP3    H212949   8.441   5.191   1.473
 4343TIP3   OH212950   8.275   4.845   0.772
 4343TIP3    H112951   8.184   4.871   0.787
 4343TIP3    H212952   8.323   4.886   0.844
 4344TIP3   OH212953   8.486   5.454   1.841
 4344TIP3    H112954   8.551   5.428   1.908
 4344TIP3    H212955   8.428   5.378   1.834
 4345TIP3   OH212956   8.759   4.768   2.019
 4345TIP3    H112957   8.713   4.699   2.067
 4345TIP3    H212958   8.691   4.806   1.963
 4346TIP3   OH212959   8.132   5.207   0.964
 4346TIP3    H112960   8.084   5.216   0.882
 4346TIP3    H212961   8.181   5.125   0.955
 4347TIP3   OH212962   8.286   4.979   1.013
 4347TIP3    H112963   8.220   4.935   1.067
 4347TIP3    H212964   8.325   5.044   1.071
 4348TIP3   OH212965   8.468   4.472   1.373
 4348TIP3    H112966   8.477   4.451   1.280
 4348TIP3    H212967   8.558   4.474   1.406
 4349TIP3   OH212968   8.342   4.104   1.460
 4349TIP3    H112969   8.388   4.120   1.377
 4349TIP3    H212970   8.343   4.188   1.505
 4350TIP3   OH212971   8.594   5.159   1.868
 4350TIP3    H112972   8.510   5.200   1.847
 4350TIP3    H212973   8.596   5.154   1.963
 4351TIP3   OH212974   8.475   5.366   1.458
 4351TIP3    H112975   8.395   5.418   1.453
 4351TIP3    H212976   8.546   5.430   1.448
 4352TIP3   OH212977   8.360   5.184   1.197
 4352TIP3    H112978   8.400   5.151   1.278
 4352TIP3    H212979   8.430   5.182   1.133
 4353TIP3   OH212980   0.061   5.068   2.955
 4353TIP3    H112981   0.041   5.159   2.935
 4353TIP3    H212982   0.003   5.018   2.897
 4354TIP3   OH212983   0.043   5.086   3.227
 4354TIP3    H112984   0.125   5.070   3.275
 4354TIP3    H212985   0.068   5.079   3.135
 4355TIP3   OH212986   0.286   5.422   2.954
 4355TIP3    H112987   0.291   5.351   3.018
 4355TIP3    H212988   0.312   5.500   3.002
 4356TIP3   OH212989   0.019   5.932   3.028
 4356TIP3    H112990  -0.040   5.858   3.016
 4356TIP3    H212991   0.093   5.896   3.076
 4357TIP3   OH212992   8.725   5.222   3.353
 4357TIP3    H112993   8.794   5.278   3.318
 4357TIP3    H212994   8.691   5.271   3.428
 4358TIP3   OH212995   0.864   4.647   3.335
 4358TIP3    H112996   0.886   4.729   3.379
 4358TIP3    H212997   0.898   4.657   3.246
 4359TIP3   OH212998   0.250   4.799   3.347
 4359TIP3    H112999   0.290   4.719   3.381
 4359TIP3    H213000   0.205   4.772   3.267
 4360TIP3   OH213001   0.317   4.567   2.956
 4360TIP3    H113002   0.381   4.563   3.027
 4360TIP3    H213003   0.367   4.604   2.883
 4361TIP3   OH213004   0.935   4.861   3.502
 4361TIP3    H113005   0.847   4.899   3.495
 4361TIP3    H213006   0.969   4.896   3.584
 4362TIP3   OH213007   8.863   5.288   2.839
 4362TIP3    H113008   8.849   5.305   2.746
 4362TIP3    H213009   8.785   5.322   2.882
 4363TIP3   OH213010   0.473   4.598   3.173
 4363TIP3    H113011   0.433   4.574   3.256
 4363TIP3    H213012   0.524   4.676   3.191
 4364TIP3   OH213013   0.347   5.648   3.108
 4364TIP3    H113014   0.291   5.642   3.185
 4364TIP3    H213015   0.330   5.736   3.074
 4365TIP3   OH213016   0.662   4.536   3.499
 4365TIP3    H113017   0.577   4.562   3.464
 4365TIP3    H213018   0.725   4.565   3.433
 4366TIP3   OH213019   0.022   4.129   3.423
 4366TIP3    H113020   0.099   4.074   3.409
 4366TIP3    H213021  -0.004   4.112   3.513
 4367TIP3   OH213022   0.129   5.699   2.811
 4367TIP3    H113023   0.172   5.624   2.769
 4367TIP3    H213024   0.172   5.775   2.773
 4368TIP3   OH213025   0.220   5.466   2.689
 4368TIP3    H113026   0.185   5.387   2.648
 4368TIP3    H213027   0.244   5.439   2.778
 4369TIP3   OH213028   0.581   5.556   3.456
 4369TIP3    H113029   0.564   5.485   3.394
 4369TIP3    H213030   0.566   5.636   3.405
 4370TIP3   OH213031   8.790   4.959   2.771
 4370TIP3    H113032   8.702   4.954   2.806
 4370TIP3    H213033   8.779   4.990   2.681
 4371TIP3   OH213034   8.784   4.737   2.453
 4371TIP3    H113035   8.846   4.789   2.505
 4371TIP3    H213036   8.840   4.680   2.400
 4372TIP3   OH213037   0.753   5.209   3.342
 4372TIP3    H113038   0.668   5.252   3.340
 4372TIP3    H213039   0.788   5.220   3.253
 4373TIP3   OH213040   0.220   5.061   2.719
 4373TIP3    H113041   0.169   5.082   2.798
 4373TIP3    H213042   0.303   5.027   2.752
 4374TIP3   OH213043   0.484   5.104   3.603
 4374TIP3    H113044   0.472   5.199   3.604
 4374TIP3    H213045   0.414   5.071   3.547
 4375TIP3   OH213046   0.208   5.661   3.340
 4375TIP3    H113047   0.173   5.748   3.357
 4375TIP3    H213048   0.193   5.613   3.422
 4376TIP3   OH213049   0.101   4.874   2.554
 4376TIP3    H113050   0.130   4.945   2.611
 4376TIP3    H213051   0.131   4.899   2.466
 4377TIP3   OH213052   8.790   5.601   2.699
 4377TIP3    H113053   8.853   5.630   2.765
 4377TIP3    H213054   8.708   5.592   2.747
 4378TIP3   OH213055   0.545   4.133   2.594
 4378TIP3    H113056   0.467   4.152   2.647
 4378TIP3    H213057   0.554   4.209   2.538
 4379TIP3   OH213058   0.366   5.523   2.147
 4379TIP3    H113059   0.377   5.615   2.122
 4379TIP3    H213060   0.450   5.482   2.125
 4380TIP3   OH213061   0.815   5.921   3.542
 4380TIP3    H113062   0.818   5.826   3.551
 4380TIP3    H213063   0.736   5.947   3.591
 4381TIP3   OH213064   8.828   5.735   2.234
 4381TIP3    H113065   8.884   5.671   2.191
 4381TIP3    H213066   8.871   5.752   2.317
 4382TIP3   OH213067   0.040   5.726   2.491
 4382TIP3    H113068  -0.020   5.681   2.549
 4382TIP3    H213069   0.115   5.667   2.481
 4383TIP3   OH213070   0.671   5.031   3.822
 4383TIP3    H113071   0.600   5.045   3.760
 4383TIP3    H213072   0.694   4.938   3.812
 4384TIP3   OH213073   0.269   4.365   3.823
 4384TIP3    H113074   0.343   4.338   3.879
 4384TIP3    H213075   0.216   4.422   3.880
 4385TIP3   OH213076   0.469   4.808   3.725
 4385TIP3    H113077   0.439   4.792   3.814
 4385TIP3    H213078   0.398   4.859   3.685
 4386TIP3   OH213079   0.162   4.944   2.299
 4386TIP3    H113080   0.081   4.977   2.259
 4386TIP3    H213081   0.231   4.996   2.260
 4387TIP3   OH213082   8.838   4.245   2.604
 4387TIP3    H113083   8.806   4.253   2.694
 4387TIP3    H213084   8.773   4.191   2.560
 4388TIP3   OH213085  -0.003   4.738   2.883
 4388TIP3    H113086  -0.037   4.814   2.836
 4388TIP3    H213087   0.046   4.689   2.818
 4389TIP3   OH213088   0.216   5.017   3.962
 4389TIP3    H113089   0.217   4.928   3.997
 4389TIP3    H213090   0.308   5.044   3.962
 4390TIP3   OH213091   0.154   4.731   3.103
 4390TIP3    H113092   0.097   4.754   3.030
 4390TIP3    H213093   0.217   4.669   3.065
 4391TIP3   OH213094   8.368   4.192   2.565
 4391TIP3    H113095   8.316   4.133   2.619
 4391TIP3    H213096   8.313   4.270   2.557
 4392TIP3   OH213097   0.266   5.064   3.403
 4392TIP3    H113098   0.268   4.968   3.401
 4392TIP3    H213099   0.213   5.085   3.481
 4393TIP3   OH213100   8.698   4.385   3.158
 4393TIP3    H113101   8.624   4.326   3.149
 4393TIP3    H213102   8.723   4.379   3.250
 4394TIP3   OH213103   8.508   4.662   2.749
 4394TIP3    H113104   8.573   4.628   2.810
 4394TIP3    H213105   8.424   4.644   2.791
 4395TIP3   OH213106   0.339   4.540   3.403
 4395TIP3    H113107   0.328   4.549   3.498
 4395TIP3    H213108   0.267   4.484   3.375
 4396TIP3   OH213109   0.550   6.271   3.630
 4396TIP3    H113110   0.537   6.287   3.536
 4396TIP3    H213111   0.624   6.327   3.653
 4397TIP3   OH213112   8.753   4.875   3.176
 4397TIP3    H113113   8.789   4.865   3.088
 4397TIP3    H213114   8.766   4.790   3.217
 4398TIP3   OH213115   8.847   4.711   3.606
 4398TIP3    H113116   8.754   4.713   3.584
 4398TIP3    H213117   8.854   4.761   3.687
 4399TIP3   OH213118   0.526   5.355   3.280
 4399TIP3    H113119   0.568   5.404   3.208
 4399TIP3    H213120   0.451   5.313   3.239
 4400TIP3   OH213121   0.090   4.448   2.501
 4400TIP3    H113122   0.032   4.388   2.548
 4400TIP3    H213123   0.116   4.513   2.566
 4401TIP3   OH213124   8.883   5.447   3.704
 4401TIP3    H113125   8.913   5.357   3.695
 4401TIP3    H213126   8.901   5.470   3.795
 4402TIP3   OH213127   0.174   4.644   2.680
 4402TIP3    H113128   0.268   4.651   2.695
 4402TIP3    H213129   0.151   4.724   2.632
 4403TIP3   OH213130   8.556   5.276   2.529
 4403TIP3    H113131   8.544   5.368   2.551
 4403TIP3    H213132   8.470   5.237   2.544
 4404TIP3   OH213133   0.028   5.259   3.947
 4404TIP3    H113134  -0.066   5.262   3.931
 4404TIP3    H213135   0.056   5.176   3.908
 4405TIP3   OH213136   0.283   5.832   3.591
 4405TIP3    H113137   0.260   5.743   3.563
 4405TIP3    H213138   0.308   5.822   3.683
 4406TIP3   OH213139   0.559   4.765   2.493
 4406TIP3    H113140   0.501   4.718   2.432
 4406TIP3    H213141   0.565   4.853   2.457
 4407TIP3   OH213142   0.822   5.647   3.555
 4407TIP3    H113143   0.729   5.623   3.561
 4407TIP3    H213144   0.851   5.611   3.471
 4408TIP3   OH213145   0.268   5.576   2.418
 4408TIP3    H113146   0.272   5.509   2.487
 4408TIP3    H213147   0.297   5.531   2.339
 4409TIP3   OH213148   0.313   5.231   3.157
 4409TIP3    H113149   0.248   5.224   3.227
 4409TIP3    H213150   0.339   5.141   3.140
 4410TIP3   OH213151   0.128   5.354   3.387
 4410TIP3    H113152   0.101   5.294   3.456
 4410TIP3    H213153   0.222   5.367   3.401
 4411TIP3   OH213154   0.071   5.285   2.277
 4411TIP3    H113155   0.123   5.270   2.356
 4411TIP3    H213156  -0.019   5.267   2.303
 4412TIP3   OH213157   0.402   5.982   3.406
 4412TIP3    H113158   0.345   5.936   3.467
 4412TIP3    H213159   0.343   6.034   3.352
 4413TIP3   OH213160   0.388   5.795   2.104
 4413TIP3    H113161   0.442   5.870   2.076
 4413TIP3    H213162   0.308   5.835   2.138
 4414TIP3   OH213163   0.242   5.237   2.502
 4414TIP3    H113164   0.221   5.178   2.574
 4414TIP3    H213165   0.338   5.237   2.498
 4415TIP3   OH213166   0.302   4.588   3.664
 4415TIP3    H113167   0.353   4.664   3.692
 4415TIP3    H213168   0.305   4.529   3.739
 4416TIP3   OH213169   0.140   4.387   2.854
 4416TIP3    H113170   0.099   4.437   2.783
 4416TIP3    H213171   0.202   4.448   2.894
 4417TIP3   OH213172   8.666   4.606   2.972
 4417TIP3    H113173   8.753   4.640   2.950
 4417TIP3    H213174   8.683   4.540   3.039
 4418TIP3   OH213175   0.225   4.893   3.652
 4418TIP3    H113176   0.175   4.972   3.671
 4418TIP3    H213177   0.159   4.825   3.639
 4419TIP3   OH213178   0.014   4.232   3.047
 4419TIP3    H113179  -0.017   4.303   3.104
 4419TIP3    H213180   0.080   4.273   2.991
 4420TIP3   OH213181   8.286   4.191   2.839
 4420TIP3    H113182   8.346   4.265   2.841
 4420TIP3    H213183   8.342   4.115   2.856
 4421TIP3   OH213184   0.732   4.765   3.717
 4421TIP3    H113185   0.637   4.773   3.722
 4421TIP3    H213186   0.748   4.714   3.637
 4422TIP3   OH213187   0.377   4.956   3.114
 4422TIP3    H113188   0.305   4.901   3.146
 4422TIP3    H213189   0.454   4.924   3.162
 4423TIP3   OH213190   0.343   5.923   3.057
 4423TIP3    H113191   0.309   5.982   2.990
 4423TIP3    H213192   0.438   5.930   3.050
 4424TIP3   OH213193   8.466   5.473   2.307
 4424TIP3    H113194   8.388   5.428   2.273
 4424TIP3    H213195   8.467   5.557   2.260
 4425TIP3   OH213196   0.354   5.723   3.828
 4425TIP3    H113197   0.334   5.688   3.915
 4425TIP3    H213198   0.422   5.789   3.845
 4426TIP3   OH213199   0.088   5.529   2.146
 4426TIP3    H113200   0.073   5.453   2.202
 4426TIP3    H213201   0.183   5.531   2.133
 4427TIP3   OH213202   8.697   5.244   2.294
 4427TIP3    H113203   8.653   5.276   2.373
 4427TIP3    H213204   8.630   5.191   2.250
 4428TIP3   OH213205   0.414   5.371   3.577
 4428TIP3    H113206   0.485   5.429   3.549
 4428TIP3    H213207   0.342   5.430   3.598
 4429TIP3   OH213208   8.313   4.737   2.539
 4429TIP3    H113209   8.334   4.725   2.446
 4429TIP3    H213210   8.398   4.731   2.583
 4430TIP3   OH213211   0.295   5.391   4.084
 4430TIP3    H113212   0.320   5.374   3.993
 4430TIP3    H213213   0.314   5.309   4.130
 4431TIP3   OH213214   0.359   5.073   2.156
 4431TIP3    H113215   0.362   5.048   2.063
 4431TIP3    H213216   0.371   5.168   2.156
 4432TIP3   OH213217   8.760   4.766   4.071
 4432TIP3    H113218   8.751   4.673   4.094
 4432TIP3    H213219   8.676   4.790   4.033
 4433TIP3   OH213220   8.767   4.554   3.822
 4433TIP3    H113221   8.808   4.582   3.740
 4433TIP3    H213222   8.699   4.492   3.794
 4434TIP3   OH213223   8.669   5.083   3.650
 4434TIP3    H113224   8.762   5.105   3.649
 4434TIP3    H213225   8.625   5.166   3.634
 4435TIP3   OH213226   0.486   5.041   4.043
 4435TIP3    H113227   0.523   4.979   4.106
 4435TIP3    H213228   0.554   5.051   3.977
 4436TIP3   OH213229   0.529   5.322   3.855
 4436TIP3    H113230   0.444   5.327   3.812
 4436TIP3    H213231   0.593   5.334   3.785
 4437TIP3   OH213232   8.847   4.309   3.932
 4437TIP3    H113233   8.802   4.392   3.917
 4437TIP3    H213234   8.847   4.265   3.847
 4438TIP3   OH213235   0.134   4.796   4.115
 4438TIP3    H113236   0.156   4.811   4.207
 4438TIP3    H213237   0.040   4.780   4.115
 4439TIP3   OH213238   0.354   4.744   3.956
 4439TIP3    H113239   0.278   4.724   4.010
 4439TIP3    H213240   0.429   4.726   4.013
 4440TIP3   OH213241   0.582   4.702   4.099
 4440TIP3    H113242   0.593   4.612   4.127
 4440TIP3    H213243   0.572   4.752   4.180
 4441TIP3   OH213244   0.129   4.344   4.131
 4441TIP3    H113245   0.193   4.273   4.120
 4441TIP3    H213246   0.060   4.323   4.068
 4442TIP3   OH213247   0.162   4.547   4.310
 4442TIP3    H113248   0.153   4.477   4.245
 4442TIP3    H213249   0.074   4.584   4.318
 4443TIP3   OH213250   0.615   5.976   3.039
 4443TIP3    H113251   0.646   6.000   3.126
 4443TIP3    H213252   0.679   6.015   2.979
 4444TIP3   OH213253   0.689   6.004   3.305
 4444TIP3    H113254   0.631   5.928   3.302
 4444TIP3    H213255   0.744   5.988   3.382
 4445TIP3   OH213256   0.713   5.727   3.865
 4445TIP3    H113257   0.653   5.715   3.939
 4445TIP3    H213258   0.758   5.809   3.884
 4446TIP3   OH213259   0.520   5.225   2.501
 4446TIP3    H113260   0.579   5.294   2.473
 4446TIP3    H213261   0.564   5.186   2.577
 4447TIP3   OH213262   0.642   5.082   2.705
 4447TIP3    H113263   0.577   5.044   2.763
 4447TIP3    H213264   0.709   5.117   2.763
 4448TIP3   OH213265   0.698   5.488   3.116
 4448TIP3    H113266   0.749   5.412   3.088
 4448TIP3    H213267   0.698   5.546   3.041
 4449TIP3   OH213268   0.532   5.770   3.287
 4449TIP3    H113269   0.467   5.831   3.322
 4449TIP3    H213270   0.485   5.722   3.218
 4450TIP3   OH213271   0.550   4.999   2.348
 4450TIP3    H113272   0.480   5.008   2.283
 4450TIP3    H213273   0.539   5.076   2.405
 4451TIP3   OH213274   0.406   4.660   2.297
 4451TIP3    H113275   0.355   4.705   2.230
 4451TIP3    H213276   0.393   4.567   2.279
 4452TIP3   OH213277   0.440   4.943   2.843
 4452TIP3    H113278   0.449   4.849   2.828
 4452TIP3    H213279   0.421   4.951   2.937
 4453TIP3   OH213280   0.743   5.365   3.681
 4453TIP3    H113281   0.796   5.286   3.678
 4453TIP3    H213282   0.763   5.411   3.599
 4454TIP3   OH213283   0.892   5.138   3.692
 4454TIP3    H113284   0.819   5.100   3.742
 4454TIP3    H213285   0.967   5.081   3.712
 4455TIP3   OH213286   0.361   4.396   2.245
 4455TIP3    H113287   0.428   4.366   2.307
 4455TIP3    H213288   0.285   4.340   2.262
 4456TIP3   OH213289   0.450   4.667   2.732
 4456TIP3    H113290   0.496   4.584   2.740
 4456TIP3    H213291   0.489   4.708   2.654
 4457TIP3   OH213292   0.594   4.837   3.243
 4457TIP3    H113293   0.674   4.855   3.193
 4457TIP3    H213294   0.611   4.871   3.330
 4458TIP3   OH213295   0.685   4.974   3.466
 4458TIP3    H113296   0.618   5.004   3.528
 4458TIP3    H213297   0.715   5.054   3.423
 4459TIP3   OH213298   1.124   4.580   4.017
 4459TIP3    H113299   1.190   4.523   3.978
 4459TIP3    H213300   1.088   4.629   3.944
 4460TIP3   OH213301   0.550   4.413   2.775
 4460TIP3    H113302   0.595   4.397   2.858
 4460TIP3    H213303   0.484   4.344   2.769
 4461TIP3   OH213304   0.981   4.687   3.811
 4461TIP3    H113305   0.896   4.731   3.824
 4461TIP3    H213306   0.960   4.608   3.763
 4462TIP3   OH213307   0.579   4.335   2.409
 4462TIP3    H113308   0.630   4.274   2.356
 4462TIP3    H213309   0.637   4.411   2.418
 4463TIP3   OH213310   0.224   5.916   2.678
 4463TIP3    H113311   0.258   5.884   2.594
 4463TIP3    H213312   0.259   6.005   2.685
 4464TIP3   OH213313   0.176   6.096   3.597
 4464TIP3    H113314   0.173   6.001   3.611
 4464TIP3    H213315   0.240   6.127   3.661
 4465TIP3   OH213316   0.889   4.442   3.713
 4465TIP3    H113317   0.800   4.429   3.681
 4465TIP3    H213318   0.929   4.355   3.709
 4466TIP3   OH213319   0.096   5.916   3.361
 4466TIP3    H113320   0.062   5.908   3.451
 4466TIP3    H213321   0.067   6.003   3.333
 4467TIP3   OH213322   0.289   6.160   3.217
 4467TIP3    H113323   0.280   6.239   3.164
 4467TIP3    H213324   0.296   6.089   3.153
 4468TIP3   OH213325   0.131   4.386   3.291
 4468TIP3    H113326   0.092   4.318   3.346
 4468TIP3    H213327   0.195   4.340   3.237
 4469TIP3   OH213328   0.599   4.289   3.233
 4469TIP3    H113329   0.640   4.337   3.161
 4469TIP3    H213330   0.507   4.315   3.232
 4470TIP3   OH213331   0.708   4.367   2.995
 4470TIP3    H113332   0.777   4.305   2.969
 4470TIP3    H213333   0.747   4.453   2.981
 4471TIP3   OH213334   8.739   4.078   3.221
 4471TIP3    H113335   8.775   4.122   3.144
 4471TIP3    H213336   8.809   4.082   3.286
 4472TIP3   OH213337   0.319   4.221   3.182
 4472TIP3    H113338   0.374   4.179   3.116
 4472TIP3    H213339   0.305   4.153   3.248
 4473TIP3   OH213340   0.352   4.213   2.777
 4473TIP3    H113341   0.271   4.262   2.794
 4473TIP3    H213342   0.338   4.128   2.819
 4474TIP3   OH213343   8.732   4.316   2.858
 4474TIP3    H113344   8.793   4.283   2.923
 4474TIP3    H213345   8.765   4.403   2.836
 4475TIP3   OH213346   0.336   5.841   2.434
 4475TIP3    H113347   0.320   5.747   2.430
 4475TIP3    H213348   0.290   5.877   2.358
 4476TIP3   OH213349   8.770   4.401   4.385
 4476TIP3    H113350   8.766   4.325   4.327
 4476TIP3    H213351   8.773   4.364   4.473
 4477TIP3   OH213352   0.640   4.440   4.144
 4477TIP3    H113353   0.659   4.414   4.234
 4477TIP3    H213354   0.726   4.441   4.101
 4478TIP3   OH213355   0.574   5.998   3.639
 4478TIP3    H113356   0.511   5.975   3.570
 4478TIP3    H213357   0.563   6.093   3.650
 4479TIP3   OH213358   1.813   5.372   2.377
 4479TIP3    H113359   1.772   5.457   2.359
 4479TIP3    H213360   1.745   5.308   2.358
 4480TIP3   OH213361   1.800   5.359   2.814
 4480TIP3    H113362   1.862   5.344   2.885
 4480TIP3    H213363   1.767   5.272   2.792
 4481TIP3   OH213364   1.112   5.221   3.155
 4481TIP3    H113365   1.149   5.168   3.225
 4481TIP3    H213366   1.186   5.246   3.101
 4482TIP3   OH213367   2.076   5.680   2.479
 4482TIP3    H113368   2.070   5.610   2.543
 4482TIP3    H213369   2.104   5.757   2.529
 4483TIP3   OH213370   1.098   5.662   2.859
 4483TIP3    H113371   1.081   5.568   2.854
 4483TIP3    H213372   1.192   5.670   2.841
 4484TIP3   OH213373   0.793   4.856   2.623
 4484TIP3    H113374   0.756   4.940   2.649
 4484TIP3    H213375   0.720   4.808   2.584
 4485TIP3   OH213376   0.873   5.167   2.839
 4485TIP3    H113377   0.922   5.089   2.864
 4485TIP3    H213378   0.939   5.230   2.812
 4486TIP3   OH213379   1.757   6.084   2.502
 4486TIP3    H113380   1.773   6.022   2.431
 4486TIP3    H213381   1.775   6.034   2.582
 4487TIP3   OH213382   1.617   5.583   2.818
 4487TIP3    H113383   1.662   5.503   2.792
 4487TIP3    H213384   1.687   5.643   2.843
 4488TIP3   OH213385   2.654   4.907   2.831
 4488TIP3    H113386   2.671   4.989   2.876
 4488TIP3    H213387   2.671   4.926   2.738
 4489TIP3   OH213388   2.024   5.077   2.843
 4489TIP3    H113389   2.056   4.990   2.869
 4489TIP3    H213390   1.981   5.062   2.759
 4490TIP3   OH213391   1.375   4.735   2.814
 4490TIP3    H113392   1.364   4.805   2.750
 4490TIP3    H213393   1.326   4.661   2.777
 4491TIP3   OH213394   2.092   4.844   2.448
 4491TIP3    H113395   2.154   4.831   2.519
 4491TIP3    H213396   2.146   4.869   2.373
 4492TIP3   OH213397   1.011   4.946   2.928
 4492TIP3    H113398   1.092   4.926   2.974
 4492TIP3    H213399   1.016   4.894   2.847
 4493TIP3   OH213400   1.423   5.148   2.754
 4493TIP3    H113401   1.517   5.134   2.762
 4493TIP3    H213402   1.389   5.066   2.718
 4494TIP3   OH213403   2.712   5.127   2.990
 4494TIP3    H113404   2.623   5.163   2.985
 4494TIP3    H213405   2.749   5.166   3.070
 4495TIP3   OH213406   1.369   4.734   3.255
 4495TIP3    H113407   1.316   4.771   3.184
 4495TIP3    H213408   1.317   4.748   3.334
 4496TIP3   OH213409   1.661   5.577   2.272
 4496TIP3    H113410   1.650   5.564   2.178
 4496TIP3    H213411   1.626   5.665   2.289
 4497TIP3   OH213412   1.467   5.504   3.036
 4497TIP3    H113413   1.415   5.578   3.067
 4497TIP3    H213414   1.517   5.539   2.962
 4498TIP3   OH213415   2.247   4.849   2.672
 4498TIP3    H113416   2.198   4.831   2.752
 4498TIP3    H213417   2.297   4.928   2.692
 4499TIP3   OH213418   1.248   4.843   3.032
 4499TIP3    H113419   1.304   4.918   3.053
 4499TIP3    H213420   1.293   4.799   2.959
 4500TIP3   OH213421   1.312   5.716   3.129
 4500TIP3    H113422   1.290   5.800   3.087
 4500TIP3    H213423   1.237   5.698   3.187
 4501TIP3   OH213424   0.686   5.415   2.383
 4501TIP3    H113425   0.651   5.435   2.296
 4501TIP3    H213426   0.713   5.500   2.418
 4502TIP3   OH213427   2.114   5.935   2.620
 4502TIP3    H113428   2.024   5.926   2.651
 4502TIP3    H213429   2.114   6.018   2.572
 4503TIP3   OH213430   2.455   4.790   2.993
 4503TIP3    H113431   2.370   4.811   2.956
 4503TIP3    H213432   2.518   4.819   2.928
 4504TIP3   OH213433   1.703   4.425   2.994
 4504TIP3    H113434   1.697   4.333   3.020
 4504TIP3    H213435   1.625   4.466   3.032
 4505TIP3   OH213436   1.826   5.950   2.266
 4505TIP3    H113437   1.876   5.869   2.257
 4505TIP3    H213438   1.888   6.019   2.244
 4506TIP3   OH213439   1.975   5.729   2.226
 4506TIP3    H113440   1.990   5.654   2.169
 4506TIP3    H213441   2.013   5.704   2.310
 4507TIP3   OH213442   2.342   5.818   2.962
 4507TIP3    H113443   2.335   5.740   2.906
 4507TIP3    H213444   2.343   5.891   2.900
 4508TIP3   OH213445   1.639   5.203   2.233
 4508TIP3    H113446   1.562   5.254   2.212
 4508TIP3    H213447   1.692   5.204   2.153
 4509TIP3   OH213448   1.606   5.027   1.919
 4509TIP3    H113449   1.671   5.072   1.973
 4509TIP3    H213450   1.656   4.957   1.876
 4510TIP3   OH213451   2.529   5.456   2.827
 4510TIP3    H113452   2.448   5.509   2.828
 4510TIP3    H213453   2.572   5.479   2.745
 4511TIP3   OH213454   2.001   5.302   2.192
 4511TIP3    H113455   1.946   5.329   2.266
 4511TIP3    H213456   2.083   5.275   2.232
 4512TIP3   OH213457   2.235   5.326   3.147
 4512TIP3    H113458   2.236   5.411   3.191
 4512TIP3    H213459   2.154   5.327   3.095
 4513TIP3   OH213460   1.229   5.282   2.600
 4513TIP3    H113461   1.194   5.220   2.536
 4513TIP3    H213462   1.301   5.236   2.641
 4514TIP3   OH213463   1.357   5.702   2.750
 4514TIP3    H113464   1.335   5.688   2.659
 4514TIP3    H213465   1.444   5.663   2.761
 4515TIP3   OH213466   1.321   5.279   2.975
 4515TIP3    H113467   1.360   5.242   2.896
 4515TIP3    H213468   1.375   5.355   2.995
 4516TIP3   OH213469   1.864   5.922   2.737
 4516TIP3    H113470   1.864   6.000   2.794
 4516TIP3    H213471   1.856   5.849   2.798
 4517TIP3   OH213472   1.511   5.820   3.294
 4517TIP3    H113473   1.448   5.876   3.338
 4517TIP3    H213474   1.457   5.764   3.237
 4518TIP3   OH213475   1.831   5.159   2.030
 4518TIP3    H113476   1.892   5.216   2.077
 4518TIP3    H213477   1.860   5.163   1.938
 4519TIP3   OH213478   1.256   5.380   3.439
 4519TIP3    H113479   1.256   5.473   3.461
 4519TIP3    H213480   1.164   5.356   3.432
 4520TIP3   OH213481   1.571   5.842   2.283
 4520TIP3    H113482   1.659   5.880   2.286
 4520TIP3    H213483   1.520   5.905   2.231
 4521TIP3   OH213484   1.294   5.979   3.362
 4521TIP3    H113485   1.261   5.982   3.273
 4521TIP3    H213486   1.217   5.959   3.416
 4522TIP3   OH213487   2.341   4.382   2.087
 4522TIP3    H113488   2.256   4.391   2.129
 4522TIP3    H213489   2.350   4.462   2.035
 4523TIP3   OH213490   1.107   5.121   2.401
 4523TIP3    H113491   1.026   5.161   2.368
 4523TIP3    H213492   1.083   5.029   2.417
 4524TIP3   OH213493   2.150   5.763   1.639
 4524TIP3    H113494   2.154   5.856   1.617
 4524TIP3    H213495   2.238   5.730   1.621
 4525TIP3   OH213496   0.893   5.531   3.318
 4525TIP3    H113497   0.824   5.509   3.255
 4525TIP3    H213498   0.924   5.447   3.351
 4526TIP3   OH213499   0.760   5.704   2.950
 4526TIP3    H113500   0.855   5.698   2.960
 4526TIP3    H213501   0.732   5.762   3.021
 4527TIP3   OH213502   2.595   6.186   3.022
 4527TIP3    H113503   2.598   6.091   3.032
 4527TIP3    H213504   2.514   6.212   3.065
 4528TIP3   OH213505   1.690   5.971   3.153
 4528TIP3    H113506   1.680   6.059   3.188
 4528TIP3    H213507   1.631   5.917   3.205
 4529TIP3   OH213508   1.469   6.053   2.114
 4529TIP3    H113509   1.426   6.035   2.030
 4529TIP3    H213510   1.434   6.138   2.141
 4530TIP3   OH213511   0.905   5.911   2.499
 4530TIP3    H113512   0.951   5.903   2.583
 4530TIP3    H213513   0.861   5.827   2.487
 4531TIP3   OH213514   1.676   5.978   1.744
 4531TIP3    H113515   1.728   5.905   1.710
 4531TIP3    H213516   1.712   5.995   1.831
 4532TIP3   OH213517   1.724   6.033   2.012
 4532TIP3    H113518   1.637   6.037   2.052
 4532TIP3    H213519   1.779   5.989   2.077
 4533TIP3   OH213520   2.476   5.269   3.318
 4533TIP3    H113521   2.398   5.281   3.264
 4533TIP3    H213522   2.499   5.177   3.309
 4534TIP3   OH213523   1.096   5.715   3.304
 4534TIP3    H113524   1.146   5.702   3.385
 4534TIP3    H213525   1.028   5.648   3.306
 4535TIP3   OH213526   1.464   4.514   3.115
 4535TIP3    H113527   1.380   4.484   3.082
 4535TIP3    H213528   1.445   4.597   3.159
 4536TIP3   OH213529   2.013   4.643   3.314
 4536TIP3    H113530   2.084   4.618   3.373
 4536TIP3    H213531   1.933   4.624   3.362
 4537TIP3   OH213532   2.229   5.059   3.226
 4537TIP3    H113533   2.194   5.057   3.315
 4537TIP3    H213534   2.221   5.150   3.199
 4538TIP3   OH213535   1.910   5.149   1.767
 4538TIP3    H113536   1.867   5.146   1.682
 4538TIP3    H213537   1.993   5.193   1.750
 4539TIP3   OH213538   1.613   4.568   2.075
 4539TIP3    H113539   1.591   4.568   2.168
 4539TIP3    H213540   1.587   4.480   2.045
 4540TIP3   OH213541   1.405   5.054   3.115
 4540TIP3    H113542   1.365   5.063   3.201
 4540TIP3    H213543   1.382   5.134   3.069
 4541TIP3   OH213544   1.289   4.933   2.641
 4541TIP3    H113545   1.201   4.903   2.664
 4541TIP3    H213546   1.304   4.896   2.553
 4542TIP3   OH213547   1.760   4.996   2.372
 4542TIP3    H113548   1.713   5.067   2.329
 4542TIP3    H213549   1.818   4.961   2.304
 4543TIP3   OH213550   1.959   5.273   3.441
 4543TIP3    H113551   1.934   5.205   3.503
 4543TIP3    H213552   2.052   5.288   3.458
 4544TIP3   OH213553   1.940   5.028   2.586
 4544TIP3    H113554   1.864   5.038   2.529
 4544TIP3    H213555   1.990   4.956   2.548
 4545TIP3   OH213556   1.238   5.054   3.340
 4545TIP3    H113557   1.305   5.103   3.389
 4545TIP3    H213558   1.225   4.974   3.390
 4546TIP3   OH213559   1.280   4.526   2.058
 4546TIP3    H113560   1.281   4.531   2.154
 4546TIP3    H213561   1.206   4.579   2.032
 4547TIP3   OH213562   0.842   4.589   2.920
 4547TIP3    H113563   0.907   4.626   2.980
 4547TIP3    H213564   0.890   4.575   2.838
 4548TIP3   OH213565   0.739   4.562   2.430
 4548TIP3    H113566   0.786   4.598   2.354
 4548TIP3    H213567   0.680   4.632   2.456
 4549TIP3   OH213568   1.979   5.276   3.020
 4549TIP3    H113569   2.005   5.211   2.954
 4549TIP3    H213570   1.938   5.225   3.090
 4550TIP3   OH213571   1.653   4.797   2.728
 4550TIP3    H113572   1.581   4.762   2.780
 4550TIP3    H213573   1.730   4.748   2.757
 4551TIP3   OH213574   1.053   4.802   2.699
 4551TIP3    H113575   0.966   4.805   2.661
 4551TIP3    H213576   1.084   4.713   2.682
 4552TIP3   OH213577   1.307   4.798   2.400
 4552TIP3    H113578   1.402   4.800   2.397
 4552TIP3    H213579   1.279   4.818   2.311
 4553TIP3   OH213580   2.093   4.815   2.906
 4553TIP3    H113581   2.072   4.833   2.997
 4553TIP3    H213582   2.026   4.754   2.877
 4554TIP3   OH213583   1.196   4.832   2.148
 4554TIP3    H113584   1.132   4.782   2.097
 4554TIP3    H213585   1.248   4.878   2.082
 4555TIP3   OH213586   2.292   6.531   3.138
 4555TIP3    H113587   2.293   6.522   3.042
 4555TIP3    H213588   2.376   6.571   3.160
 4556TIP3   OH213589   1.239   5.641   3.536
 4556TIP3    H113590   1.322   5.653   3.582
 4556TIP3    H213591   1.173   5.642   3.605
 4557TIP3   OH213592   1.691   5.086   2.805
 4557TIP3    H113593   1.715   5.013   2.747
 4557TIP3    H213594   1.694   5.049   2.893
 4558TIP3   OH213595   1.192   4.555   2.688
 4558TIP3    H113596   1.165   4.478   2.738
 4558TIP3    H213597   1.232   4.519   2.609
 4559TIP3   OH213598   1.671   4.990   3.069
 4559TIP3    H113599   1.584   5.022   3.092
 4559TIP3    H213600   1.730   5.043   3.122
 4560TIP3   OH213601   1.409   5.351   2.170
 4560TIP3    H113602   1.336   5.292   2.150
 4560TIP3    H213603   1.384   5.392   2.253
 4561TIP3   OH213604   2.300   5.609   2.782
 4561TIP3    H113605   2.338   5.656   2.709
 4561TIP3    H213606   2.223   5.566   2.746
 4562TIP3   OH213607   1.839   4.707   2.005
 4562TIP3    H113608   1.759   4.668   2.041
 4562TIP3    H213609   1.863   4.774   2.069
 4563TIP3   OH213610   1.821   5.688   3.196
 4563TIP3    H113611   1.887   5.665   3.260
 4563TIP3    H213612   1.796   5.778   3.218
 4564TIP3   OH213613   1.932   4.924   2.157
 4564TIP3    H113614   2.026   4.928   2.173
 4564TIP3    H213615   1.912   5.005   2.109
 4565TIP3   OH213616   1.097   5.376   2.826
 4565TIP3    H113617   1.135   5.354   2.741
 4565TIP3    H213618   1.161   5.344   2.890
 4566TIP3   OH213619   1.565   5.508   2.009
 4566TIP3    H113620   1.516   5.590   2.009
 4566TIP3    H213621   1.513   5.449   2.064
 4567TIP3   OH213622   0.982   5.317   3.472
 4567TIP3    H113623   1.003   5.293   3.563
 4567TIP3    H213624   0.917   5.252   3.445
 4568TIP3   OH213625   1.740   5.443   3.465
 4568TIP3    H113626   1.690   5.419   3.387
 4568TIP3    H213627   1.823   5.395   3.455
 4569TIP3   OH213628   1.959   5.986   3.078
 4569TIP3    H113629   1.865   5.974   3.086
 4569TIP3    H213630   1.987   6.021   3.162
 4570TIP3   OH213631   2.346   5.016   1.969
 4570TIP3    H113632   2.291   4.971   1.905
 4570TIP3    H213633   2.351   5.106   1.937
 4571TIP3   OH213634   2.599   5.911   3.049
 4571TIP3    H113635   2.514   5.870   3.064
 4571TIP3    H213636   2.633   5.866   2.972
 4572TIP3   OH213637   2.068   5.835   1.898
 4572TIP3    H113638   2.060   5.760   1.956
 4572TIP3    H213639   2.095   5.797   1.814
 4573TIP3   OH213640   2.070   5.472   2.675
 4573TIP3    H113641   1.980   5.450   2.699
 4573TIP3    H213642   2.107   5.390   2.642
 4574TIP3   OH213643   1.227   5.707   2.501
 4574TIP3    H113644   1.229   5.785   2.445
 4574TIP3    H213645   1.137   5.675   2.493
 4575TIP3   OH213646   0.780   4.986   2.196
 4575TIP3    H113647   0.826   5.066   2.220
 4575TIP3    H213648   0.703   4.985   2.253
 4576TIP3   OH213649   1.300   5.459   2.394
 4576TIP3    H113650   1.302   5.548   2.431
 4576TIP3    H213651   1.280   5.403   2.468
 4577TIP3   OH213652   1.500   6.032   2.953
 4577TIP3    H113653   1.537   6.103   2.901
 4577TIP3    H213654   1.574   5.998   3.004
 4578TIP3   OH213655   1.137   5.928   2.349
 4578TIP3    H113656   1.051   5.935   2.390
 4578TIP3    H213657   1.172   6.018   2.351
 4579TIP3   OH213658   1.852   5.700   2.918
 4579TIP3    H113659   1.839   5.695   3.013
 4579TIP3    H213660   1.932   5.650   2.902
 4580TIP3   OH213661   1.853   5.571   1.815
 4580TIP3    H113662   1.906   5.559   1.894
 4580TIP3    H213663   1.767   5.537   1.838
 4581TIP3   OH213664   2.111   6.195   2.968
 4581TIP3    H113665   2.046   6.127   2.985
 4581TIP3    H213666   2.075   6.245   2.894
 4582TIP3   OH213667   2.163   6.036   1.604
 4582TIP3    H113668   2.202   6.104   1.548
 4582TIP3    H213669   2.088   6.079   1.645
 4583TIP3   OH213670   1.207   4.803   3.468
 4583TIP3    H113671   1.112   4.810   3.475
 4583TIP3    H213672   1.232   4.750   3.545
 4584TIP3   OH213673   2.027   5.526   2.030
 4584TIP3    H113674   2.007   5.449   2.084
 4584TIP3    H213675   2.120   5.518   2.011
 4585TIP3   OH213676   0.956   5.901   3.124
 4585TIP3    H113677   1.045   5.873   3.105
 4585TIP3    H213678   0.935   5.859   3.208
 4586TIP3   OH213679   1.202   5.537   1.812
 4586TIP3    H113680   1.216   5.447   1.783
 4586TIP3    H213681   1.185   5.530   1.906
 4587TIP3   OH213682   1.139   5.547   2.085
 4587TIP3    H113683   1.207   5.516   2.144
 4587TIP3    H213684   1.143   5.642   2.091
 4588TIP3   OH213685   0.876   5.233   2.286
 4588TIP3    H113686   0.814   5.282   2.339
 4588TIP3    H213687   0.898   5.292   2.213
 4589TIP3   OH213688   2.029   4.878   3.168
 4589TIP3    H113689   2.110   4.921   3.194
 4589TIP3    H213690   2.025   4.799   3.222
 4590TIP3   OH213691   1.875   4.686   2.383
 4590TIP3    H113692   1.900   4.660   2.294
 4590TIP3    H213693   1.945   4.745   2.411
 4591TIP3   OH213694   1.414   5.733   2.015
 4591TIP3    H113695   1.331   5.757   2.056
 4591TIP3    H213696   1.437   5.809   1.961
 4592TIP3   OH213697   1.581   4.798   2.457
 4592TIP3    H113698   1.646   4.857   2.420
 4592TIP3    H213699   1.604   4.791   2.550
 4593TIP3   OH213700   1.874   5.113   3.217
 4593TIP3    H113701   1.904   5.154   3.298
 4593TIP3    H213702   1.923   5.031   3.211
 4594TIP3   OH213703   1.763   4.519   2.570
 4594TIP3    H113704   1.798   4.591   2.517
 4594TIP3    H213705   1.780   4.441   2.518
 4595TIP3   OH213706   1.164   5.819   2.100
 4595TIP3    H113707   1.148   5.891   2.039
 4595TIP3    H213708   1.156   5.858   2.186
 4596TIP3   OH213709   1.274   4.526   2.337
 4596TIP3    H113710   1.266   4.616   2.368
 4596TIP3    H213711   1.368   4.506   2.343
 4597TIP3   OH213712   2.495   5.003   3.199
 4597TIP3    H113713   2.400   5.012   3.212
 4597TIP3    H213714   2.504   4.948   3.122
 4598TIP3   OH213715   2.159   5.213   2.594
 4598TIP3    H113716   2.082   5.157   2.603
 4598TIP3    H213717   2.225   5.173   2.650
 4599TIP3   OH213718   0.892   5.418   2.072
 4599TIP3    H113719   0.961   5.483   2.086
 4599TIP3    H213720   0.929   5.356   2.009
 4600TIP3   OH213721   0.811   4.708   2.211
 4600TIP3    H113722   0.822   4.803   2.213
 4600TIP3    H213723   0.766   4.691   2.128
 4601TIP3   OH213724   2.141   6.208   2.532
 4601TIP3    H113725   2.095   6.265   2.470
 4601TIP3    H213726   2.234   6.230   2.520
 4602TIP3   OH213727   1.199   4.433   3.075
 4602TIP3    H113728   1.173   4.400   2.989
 4602TIP3    H213729   1.195   4.357   3.133
 4603TIP3   OH213730   0.741   5.680   2.472
 4603TIP3    H113731   0.699   5.716   2.550
 4603TIP3    H213732   0.697   5.723   2.398
 4604TIP3   OH213733   0.934   6.215   3.533
 4604TIP3    H113734   1.017   6.219   3.580
 4604TIP3    H213735   0.909   6.123   3.537
 4605TIP3   OH213736   1.397   6.135   3.565
 4605TIP3    H113737   1.485   6.103   3.582
 4605TIP3    H213738   1.366   6.085   3.490
 4606TIP3   OH213739   1.357   5.737   1.699
 4606TIP3    H113740   1.312   5.666   1.744
 4606TIP3    H213741   1.432   5.695   1.658
 4607TIP3   OH213742   2.028   6.083   3.325
 4607TIP3    H113743   2.022   6.008   3.385
 4607TIP3    H213744   2.113   6.123   3.346
 4608TIP3   OH213745   1.804   5.769   1.623
 4608TIP3    H113746   1.840   5.707   1.687
 4608TIP3    H213747   1.864   5.763   1.549
 4609TIP3   OH213748   1.038   5.633   3.727
 4609TIP3    H113749   1.056   5.540   3.741
 4609TIP3    H213750   0.954   5.635   3.682
 4610TIP3   OH213751   1.033   5.234   1.928
 4610TIP3    H113752   1.085   5.210   2.005
 4610TIP3    H213753   1.097   5.247   1.858
 4611TIP3   OH213754   1.655   5.709   3.503
 4611TIP3    H113755   1.619   5.733   3.418
 4611TIP3    H213756   1.700   5.626   3.488
 4612TIP3   OH213757   1.570   5.451   1.741
 4612TIP3    H113758   1.560   5.460   1.836
 4612TIP3    H213759   1.563   5.356   1.725
 4613TIP3   OH213760   2.123   5.757   3.116
 4613TIP3    H113761   2.203   5.779   3.068
 4613TIP3    H213762   2.063   5.829   3.097
 4614TIP3   OH213763   1.149   5.373   3.722
 4614TIP3    H113764   1.225   5.350   3.668
 4614TIP3    H213765   1.185   5.387   3.810
 4615TIP3   OH213766   1.203   5.169   2.136
 4615TIP3    H113767   1.186   5.139   2.225
 4615TIP3    H213768   1.248   5.096   2.094
 4616TIP3   OH213769   1.465   5.215   3.372
 4616TIP3    H113770   1.401   5.281   3.399
 4616TIP3    H213771   1.527   5.263   3.316
 4617TIP3   OH213772   1.334   4.988   1.968
 4617TIP3    H113773   1.307   4.991   1.876
 4617TIP3    H213774   1.429   4.998   1.965
 4618TIP3   OH213775   2.022   5.627   3.458
 4618TIP3    H113776   2.101   5.601   3.411
 4618TIP3    H213777   2.023   5.572   3.537
 4619TIP3   OH213778   2.132   5.275   1.659
 4619TIP3    H113779   2.120   5.234   1.574
 4619TIP3    H213780   2.105   5.366   1.646
 4620TIP3   OH213781   1.614   5.019   3.497
 4620TIP3    H113782   1.623   4.945   3.436
 4620TIP3    H213783   1.569   5.086   3.445
 4621TIP3   OH213784   1.627   4.820   3.296
 4621TIP3    H113785   1.657   4.854   3.212
 4621TIP3    H213786   1.537   4.791   3.279
 4622TIP3   OH213787   1.632   5.367   3.215
 4622TIP3    H113788   1.717   5.359   3.170
 4622TIP3    H213789   1.579   5.419   3.155
 4623TIP3   OH213790   2.228   5.312   3.533
 4623TIP3    H113791   2.267   5.225   3.539
 4623TIP3    H213792   2.302   5.369   3.510
 4624TIP3   OH213793   2.253   5.579   3.278
 4624TIP3    H113794   2.201   5.640   3.227
 4624TIP3    H213795   2.343   5.593   3.248
 4625TIP3   OH213796   1.500   5.107   3.739
 4625TIP3    H113797   1.433   5.042   3.760
 4625TIP3    H213798   1.531   5.082   3.651
 4626TIP3   OH213799   1.748   4.589   3.396
 4626TIP3    H113800   1.708   4.669   3.363
 4626TIP3    H213801   1.682   4.521   3.382
 4627TIP3   OH213802   1.873   5.063   3.596
 4627TIP3    H113803   1.865   5.049   3.691
 4627TIP3    H213804   1.786   5.043   3.562
 4628TIP3   OH213805   2.124   5.023   3.472
 4628TIP3    H113806   2.045   5.019   3.526
 4628TIP3    H213807   2.195   4.998   3.531
 4629TIP3   OH213808   2.355   4.986   3.622
 4629TIP3    H113809   2.371   4.892   3.627
 4629TIP3    H213810   2.352   5.015   3.713
 4630TIP3   OH213811   1.338   4.884   3.803
 4630TIP3    H113812   1.345   4.796   3.765
 4630TIP3    H213813   1.377   4.876   3.890
 4631TIP3   OH213814   1.812   4.567   3.662
 4631TIP3    H113815   1.881   4.502   3.658
 4631TIP3    H213816   1.784   4.578   3.571
 4632TIP3   OH213817   1.908   4.784   3.802
 4632TIP3    H113818   1.878   4.711   3.749
 4632TIP3    H213819   1.835   4.845   3.803
 4633TIP3   OH213820   1.167   6.030   1.922
 4633TIP3    H113821   1.255   6.009   1.891
 4633TIP3    H213822   1.124   6.071   1.847
 4634TIP3   OH213823   0.617   5.404   2.094
 4634TIP3    H113824   0.711   5.418   2.088
 4634TIP3    H213825   0.602   5.320   2.050
 4635TIP3   OH213826   0.538   5.989   2.545
 4635TIP3    H113827   0.475   5.939   2.492
 4635TIP3    H213828   0.578   5.923   2.602
 4636TIP3   OH213829   0.677   5.820   2.712
 4636TIP3    H113830   0.679   5.752   2.779
 4636TIP3    H213831   0.722   5.895   2.752
 4637TIP3   OH213832   2.398   6.314   2.525
 4637TIP3    H113833   2.429   6.296   2.614
 4637TIP3    H213834   2.474   6.297   2.469
 4638TIP3   OH213835   2.460   6.265   2.792
 4638TIP3    H113836   2.403   6.188   2.787
 4638TIP3    H213837   2.515   6.249   2.868
 4639TIP3   OH213838   2.296   5.479   1.998
 4639TIP3    H113839   2.360   5.536   1.955
 4639TIP3    H213840   2.346   5.440   2.071
 4640TIP3   OH213841   2.436   5.335   2.191
 4640TIP3    H113842   2.369   5.300   2.250
 4640TIP3    H213843   2.501   5.376   2.249
 4641TIP3   OH213844   2.483   5.745   2.621
 4641TIP3    H113845   2.535   5.671   2.590
 4641TIP3    H213846   2.504   5.816   2.560
 4642TIP3   OH213847   2.292   6.046   2.804
 4642TIP3    H113848   2.226   6.082   2.864
 4642TIP3    H213849   2.241   6.000   2.737
 4643TIP3   OH213850   2.340   5.258   1.837
 4643TIP3    H113851   2.268   5.259   1.774
 4643TIP3    H213852   2.325   5.335   1.893
 4644TIP3   OH213853   2.200   4.901   1.767
 4644TIP3    H113854   2.147   4.935   1.695
 4644TIP3    H213855   2.194   4.806   1.758
 4645TIP3   OH213856   2.226   5.202   2.324
 4645TIP3    H113857   2.233   5.107   2.312
 4645TIP3    H213858   2.208   5.212   2.418
 4646TIP3   OH213859   0.853   5.267   3.093
 4646TIP3    H113860   0.845   5.228   3.006
 4646TIP3    H213861   0.946   5.259   3.114
 4647TIP3   OH213862   2.513   5.617   3.205
 4647TIP3    H113863   2.567   5.549   3.165
 4647TIP3    H213864   2.565   5.648   3.280
 4648TIP3   OH213865   2.667   5.389   3.156
 4648TIP3    H113866   2.603   5.354   3.218
 4648TIP3    H213867   2.750   5.350   3.184
 4649TIP3   OH213868   2.161   4.628   1.735
 4649TIP3    H113869   2.217   4.604   1.809
 4649TIP3    H213870   2.075   4.593   1.758
 4650TIP3   OH213871   2.222   4.921   2.208
 4650TIP3    H113872   2.262   4.835   2.218
 4650TIP3    H213873   2.266   4.959   2.132
 4651TIP3   OH213874   2.373   5.089   2.734
 4651TIP3    H113875   2.454   5.106   2.687
 4651TIP3    H213876   2.386   5.129   2.820
 4652TIP3   OH213877   2.447   5.233   2.962
 4652TIP3    H113878   2.379   5.264   3.023
 4652TIP3    H213879   2.481   5.312   2.921
 4653TIP3   OH213880   1.075   4.938   3.739
 4653TIP3    H113881   1.170   4.937   3.757
 4653TIP3    H213882   1.043   4.857   3.779
 4654TIP3   OH213883   2.916   4.835   3.504
 4654TIP3    H113884   2.980   4.780   3.460
 4654TIP3    H213885   2.876   4.887   3.433
 4655TIP3   OH213886   2.319   4.664   2.260
 4655TIP3    H113887   2.368   4.648   2.341
 4655TIP3    H213888   2.254   4.595   2.257
 4656TIP3   OH213889   1.041   4.659   3.102
 4656TIP3    H113890   1.094   4.580   3.104
 4656TIP3    H213891   1.103   4.729   3.083
 4657TIP3   OH213892   0.832   4.928   3.143
 4657TIP3    H113893   0.882   4.920   3.062
 4657TIP3    H213894   0.881   4.992   3.195
 4658TIP3   OH213895   2.767   4.961   3.313
 4658TIP3    H113896   2.698   4.999   3.368
 4658TIP3    H213897   2.720   4.902   3.254
 4659TIP3   OH213898   2.380   4.586   1.903
 4659TIP3    H113899   2.432   4.524   1.851
 4659TIP3    H213900   2.434   4.665   1.908
 4660TIP3   OH213901   0.812   4.413   2.647
 4660TIP3    H113902   0.728   4.408   2.693
 4660TIP3    H213903   0.796   4.474   2.575
 4661TIP3   OH213904   1.975   6.162   2.176
 4661TIP3    H113905   2.015   6.140   2.092
 4661TIP3    H213906   2.044   6.207   2.225
 4662TIP3   OH213907   1.041   4.487   3.478
 4662TIP3    H113908   0.990   4.478   3.558
 4662TIP3    H213909   0.984   4.535   3.418
 4663TIP3   OH213910   1.087   5.947   3.542
 4663TIP3    H113911   0.994   5.925   3.541
 4663TIP3    H213912   1.116   5.926   3.631
 4664TIP3   OH213913   1.255   5.996   3.076
 4664TIP3    H113914   1.217   6.072   3.032
 4664TIP3    H213915   1.347   5.996   3.050
 4665TIP3   OH213916   1.674   6.235   3.243
 4665TIP3    H113917   1.714   6.219   3.328
 4665TIP3    H213918   1.742   6.282   3.193
 4666TIP3   OH213919   1.874   6.373   3.110
 4666TIP3    H113920   1.938   6.315   3.069
 4666TIP3    H213921   1.927   6.431   3.166
 4667TIP3   OH213922   2.669   4.710   3.195
 4667TIP3    H113923   2.584   4.709   3.152
 4667TIP3    H213924   2.700   4.619   3.189
 4668TIP3   OH213925   0.935   6.205   3.118
 4668TIP3    H113926   0.892   6.157   3.047
 4668TIP3    H213927   0.979   6.137   3.169
 4669TIP3   OH213928   1.170   6.237   2.950
 4669TIP3    H113929   1.085   6.249   2.992
 4669TIP3    H213930   1.158   6.270   2.861
 4670TIP3   OH213931   1.584   6.239   2.789
 4670TIP3    H113932   1.529   6.252   2.712
 4670TIP3    H213933   1.597   6.327   2.824
 4671TIP3   OH213934   1.853   6.184   2.829
 4671TIP3    H113935   1.760   6.198   2.811
 4671TIP3    H213936   1.898   6.254   2.782
 4672TIP3   OH213937   2.063   6.365   2.745
 4672TIP3    H113938   2.045   6.449   2.703
 4672TIP3    H213939   2.092   6.308   2.674
 4673TIP3   OH213940   0.862   6.025   2.901
 4673TIP3    H113941   0.883   5.973   2.978
 4673TIP3    H213942   0.922   5.994   2.834
 4674TIP3   OH213943   1.045   5.905   2.740
 4674TIP3    H113944   1.057   5.817   2.776
 4674TIP3    H213945   1.133   5.941   2.733
 4675TIP3   OH213946   1.316   5.980   2.749
 4675TIP3    H113947   1.336   5.888   2.733
 4675TIP3    H213948   1.375   6.005   2.821
 4676TIP3   OH213949   1.872   4.644   2.839
 4676TIP3    H113950   1.824   4.571   2.878
 4676TIP3    H213951   1.933   4.603   2.778
 4677TIP3   OH213952   2.377   4.540   2.713
 4677TIP3    H113953   2.411   4.594   2.642
 4677TIP3    H213954   2.284   4.563   2.718
 4678TIP3   OH213955   2.491   4.621   2.473
 4678TIP3    H113956   2.562   4.561   2.453
 4678TIP3    H213957   2.529   4.708   2.463
 4679TIP3   OH213958   1.119   4.327   2.832
 4679TIP3    H113959   1.031   4.291   2.841
 4679TIP3    H213960   1.175   4.250   2.823
 4680TIP3   OH213961   0.929   4.225   2.474
 4680TIP3    H113962   0.963   4.277   2.401
 4680TIP3    H213963   0.896   4.289   2.536
 4681TIP3   OH213964   1.594   4.376   2.736
 4681TIP3    H113965   1.643   4.427   2.671
 4681TIP3    H213966   1.635   4.398   2.820
 4682TIP3   OH213967   2.088   4.524   2.706
 4682TIP3    H113968   2.070   4.493   2.617
 4682TIP3    H213969   2.094   4.444   2.758
 4683TIP3   OH213970   2.128   4.450   2.258
 4683TIP3    H113971   2.035   4.446   2.239
 4683TIP3    H213972   2.145   4.372   2.311
 4684TIP3   OH213973   0.621   5.797   2.258
 4684TIP3    H113974   0.538   5.763   2.225
 4684TIP3    H213975   0.626   5.887   2.224
 4685TIP3   OH213976   1.052   4.367   2.246
 4685TIP3    H113977   1.097   4.307   2.187
 4685TIP3    H213978   1.122   4.420   2.284
 4686TIP3   OH213979   1.554   4.534   2.343
 4686TIP3    H113980   1.619   4.467   2.364
 4686TIP3    H213981   1.582   4.610   2.393
 4687TIP3   OH213982   1.420   5.959   1.843
 4687TIP3    H113983   1.505   5.984   1.808
 4687TIP3    H213984   1.389   5.889   1.786
 4688TIP3   OH213985   2.104   6.103   1.940
 4688TIP3    H113986   2.100   6.007   1.931
 4688TIP3    H213987   2.067   6.136   1.858
 4689TIP3   OH213988   1.350   4.614   3.711
 4689TIP3    H113989   1.315   4.550   3.772
 4689TIP3    H213990   1.443   4.622   3.734
 4690TIP3   OH213991   1.596   4.619   3.836
 4690TIP3    H113992   1.674   4.598   3.784
 4690TIP3    H213993   1.593   4.550   3.903
 4691TIP3   OH213994   0.714   5.770   1.920
 4691TIP3    H113995   0.727   5.799   2.011
 4691TIP3    H213996   0.800   5.741   1.891
 4692TIP3   OH213997   2.418   4.714   3.624
 4692TIP3    H113998   2.436   4.683   3.713
 4692TIP3    H213999   2.503   4.708   3.580
 4693TIP3   OH214000   2.346   6.257   3.102
 4693TIP3    H114001   2.265   6.224   3.065
 4693TIP3    H214002   2.321   6.338   3.147
 4694TIP3   OH214003   3.617   5.628   1.866
 4694TIP3    H114004   3.586   5.715   1.840
 4694TIP3    H214005   3.544   5.569   1.847
 4695TIP3   OH214006   3.623   5.619   2.289
 4695TIP3    H114007   3.671   5.602   2.370
 4695TIP3    H214008   3.572   5.540   2.273
 4696TIP3   OH214009   2.907   5.481   2.637
 4696TIP3    H114010   2.942   5.430   2.709
 4696TIP3    H214011   2.985   5.509   2.588
 4697TIP3   OH214012   3.881   5.924   1.959
 4697TIP3    H114013   3.867   5.859   2.028
 4697TIP3    H214014   3.894   6.007   2.005
 4698TIP3   OH214015   2.875   5.905   2.337
 4698TIP3    H114016   2.863   5.810   2.334
 4698TIP3    H214017   2.966   5.918   2.312
 4699TIP3   OH214018   2.584   5.110   2.107
 4699TIP3    H114019   2.547   5.194   2.134
 4699TIP3    H214020   2.511   5.064   2.067
 4700TIP3   OH214021   2.664   5.429   2.331
 4700TIP3    H114022   2.715   5.353   2.358
 4700TIP3    H214023   2.729   5.495   2.310
 4701TIP3   OH214024   3.542   6.356   1.981
 4701TIP3    H114025   3.565   6.292   1.913
 4701TIP3    H214026   3.544   6.306   2.062
 4702TIP3   OH214027   3.408   5.848   2.291
 4702TIP3    H114028   3.450   5.772   2.252
 4702TIP3    H214029   3.481   5.902   2.324
 4703TIP3   OH214030   4.450   5.164   2.316
 4703TIP3    H114031   4.465   5.248   2.360
 4703TIP3    H214032   4.462   5.183   2.223
 4704TIP3   OH214033   3.831   5.329   2.333
 4704TIP3    H114034   3.860   5.242   2.361
 4704TIP3    H214035   3.792   5.313   2.246
 4705TIP3   OH214036   3.181   4.989   2.288
 4705TIP3    H114037   3.158   5.062   2.231
 4705TIP3    H214038   3.124   4.917   2.261
 4706TIP3   OH214039   3.879   5.088   1.928
 4706TIP3    H114040   3.941   5.081   2.000
 4706TIP3    H214041   3.930   5.123   1.855
 4707TIP3   OH214042   2.803   5.208   2.425
 4707TIP3    H114043   2.887   5.191   2.469
 4707TIP3    H214044   2.807   5.156   2.345
 4708TIP3   OH214045   3.227   5.398   2.240
 4708TIP3    H114046   3.322   5.383   2.246
 4708TIP3    H214047   3.192   5.317   2.203
 4709TIP3   OH214048   4.503   5.388   2.475
 4709TIP3    H114049   4.413   5.421   2.470
 4709TIP3    H214050   4.536   5.421   2.559
 4710TIP3   OH214051   3.160   4.992   2.743
 4710TIP3    H114052   3.110   5.028   2.670
 4710TIP3    H214053   3.104   5.007   2.820
 4711TIP3   OH214054   3.518   5.844   1.725
 4711TIP3    H114055   3.470   5.814   1.648
 4711TIP3    H214056   3.464   5.915   1.760
 4712TIP3   OH214057   3.254   5.768   2.505
 4712TIP3    H114058   3.200   5.838   2.542
 4712TIP3    H214059   3.299   5.808   2.431
 4713TIP3   OH214060   4.036   5.108   2.150
 4713TIP3    H114061   3.991   5.086   2.232
 4713TIP3    H214062   4.089   5.185   2.172
 4714TIP3   OH214063   3.053   5.101   2.512
 4714TIP3    H114064   3.107   5.176   2.536
 4714TIP3    H214065   3.100   5.060   2.439
 4715TIP3   OH214066   3.099   5.969   2.618
 4715TIP3    H114067   3.080   6.058   2.589
 4715TIP3    H214068   3.024   5.945   2.672
 4716TIP3   OH214069   2.482   5.612   1.851
 4716TIP3    H114070   2.448   5.638   1.765
 4716TIP3    H214071   2.569   5.652   1.855
 4717TIP3   OH214072   3.900   6.174   2.090
 4717TIP3    H114073   3.815   6.171   2.134
 4717TIP3    H214074   3.904   6.262   2.054
 4718TIP3   OH214075   4.246   5.055   2.479
 4718TIP3    H114076   4.161   5.075   2.439
 4718TIP3    H214077   4.310   5.082   2.413
 4719TIP3   OH214078   3.502   4.683   2.477
 4719TIP3    H114079   3.494   4.591   2.502
 4719TIP3    H214080   3.426   4.725   2.516
 4720TIP3   OH214081   3.624   6.209   1.756
 4720TIP3    H114082   3.675   6.129   1.748
 4720TIP3    H214083   3.684   6.280   1.733
 4721TIP3   OH214084   3.763   5.977   1.713
 4721TIP3    H114085   3.687   5.918   1.713
 4721TIP3    H214086   3.812   5.952   1.791
 4722TIP3   OH214087   4.148   6.051   2.458
 4722TIP3    H114088   4.133   5.975   2.403
 4722TIP3    H214089   4.136   6.126   2.400
 4723TIP3   OH214090   3.442   5.461   1.725
 4723TIP3    H114091   3.357   5.505   1.713
 4723TIP3    H214092   3.483   5.466   1.639
 4724TIP3   OH214093   3.402   5.280   1.408
 4724TIP3    H114094   3.467   5.326   1.461
 4724TIP3    H214095   3.451   5.210   1.365
 4725TIP3   OH214096   4.337   5.721   2.303
 4725TIP3    H114097   4.252   5.765   2.308
 4725TIP3    H214098   4.369   5.741   2.215
 4726TIP3   OH214099   3.799   5.554   1.677
 4726TIP3    H114100   3.743   5.584   1.749
 4726TIP3    H214101   3.881   5.528   1.720
 4727TIP3   OH214102   4.030   5.586   2.626
 4727TIP3    H114103   4.024   5.670   2.673
 4727TIP3    H214104   3.948   5.581   2.577
 4728TIP3   OH214105   3.035   5.550   2.106
 4728TIP3    H114106   2.998   5.502   2.031
 4728TIP3    H214107   3.104   5.492   2.138
 4729TIP3   OH214108   3.127   5.960   2.208
 4729TIP3    H114109   3.093   5.939   2.120
 4729TIP3    H214110   3.213   5.919   2.211
 4730TIP3   OH214111   3.123   5.531   2.462
 4730TIP3    H114112   3.160   5.494   2.382
 4730TIP3    H214113   3.170   5.613   2.476
 4731TIP3   OH214114   3.669   6.175   2.236
 4731TIP3    H114115   3.662   6.254   2.290
 4731TIP3    H214116   3.655   6.103   2.296
 4732TIP3   OH214117   3.299   6.069   2.782
 4732TIP3    H114118   3.237   6.126   2.829
 4732TIP3    H214119   3.244   6.016   2.725
 4733TIP3   OH214120   3.630   5.412   1.511
 4733TIP3    H114121   3.688   5.472   1.558
 4733TIP3    H214122   3.661   5.416   1.420
 4734TIP3   OH214123   3.063   5.632   2.895
 4734TIP3    H114124   3.061   5.717   2.938
 4734TIP3    H214125   2.971   5.604   2.893
 4735TIP3   OH214126   3.380   6.074   1.783
 4735TIP3    H114127   3.452   6.137   1.777
 4735TIP3    H214128   3.315   6.107   1.721
 4736TIP3   OH214129   3.088   6.226   2.867
 4736TIP3    H114130   3.059   6.233   2.776
 4736TIP3    H214131   3.008   6.209   2.917
 4737TIP3   OH214132   4.139   4.643   1.573
 4737TIP3    H114133   4.063   4.662   1.627
 4737TIP3    H214134   4.149   4.719   1.517
 4738TIP3   OH214135   2.891   5.459   1.882
 4738TIP3    H114136   2.865   5.548   1.860
 4738TIP3    H214137   2.811   5.418   1.916
 4739TIP3   OH214138   3.967   6.007   1.153
 4739TIP3    H114139   3.958   6.100   1.133
 4739TIP3    H214140   4.055   5.985   1.122
 4740TIP3   OH214141   2.684   5.774   2.827
 4740TIP3    H114142   2.614   5.752   2.764
 4740TIP3    H214143   2.715   5.689   2.858
 4741TIP3   OH214144   2.609   5.944   2.458
 4741TIP3    H114145   2.688   5.923   2.409
 4741TIP3    H214146   2.637   6.011   2.521
 4742TIP3   OH214147   3.486   6.215   2.644
 4742TIP3    H114148   3.477   6.305   2.674
 4742TIP3    H214149   3.420   6.167   2.693
 4743TIP3   OH214150   3.265   6.325   1.591
 4743TIP3    H114151   3.209   6.295   1.519
 4743TIP3    H214152   3.222   6.404   1.624
 4744TIP3   OH214153   2.703   6.203   1.997
 4744TIP3    H114154   2.749   6.184   2.079
 4744TIP3    H214155   2.657   6.121   1.977
 4745TIP3   OH214156   3.460   6.243   1.237
 4745TIP3    H114157   3.511   6.170   1.201
 4745TIP3    H214158   3.494   6.254   1.326
 4746TIP3   OH214159   3.518   6.282   1.504
 4746TIP3    H114160   3.429   6.292   1.538
 4746TIP3    H214161   3.567   6.244   1.577
 4747TIP3   OH214162   4.278   5.531   2.777
 4747TIP3    H114163   4.193   5.547   2.736
 4747TIP3    H214164   4.291   5.436   2.769
 4748TIP3   OH214165   2.884   5.958   2.794
 4748TIP3    H114166   2.931   5.949   2.876
 4748TIP3    H214167   2.813   5.894   2.799
 4749TIP3   OH214168   3.266   4.776   2.602
 4749TIP3    H114169   3.183   4.742   2.570
 4749TIP3    H214170   3.243   4.857   2.648
 4750TIP3   OH214171   3.803   4.900   2.801
 4750TIP3    H114172   3.871   4.874   2.864
 4750TIP3    H214173   3.721   4.884   2.847
 4751TIP3   OH214174   4.034   5.323   2.724
 4751TIP3    H114175   3.990   5.318   2.808
 4751TIP3    H214176   4.014   5.411   2.692
 4752TIP3   OH214177   3.714   5.381   1.248
 4752TIP3    H114178   3.664   5.389   1.167
 4752TIP3    H214179   3.791   5.436   1.234
 4753TIP3   OH214180   3.418   4.815   1.569
 4753TIP3    H114181   3.382   4.823   1.657
 4753TIP3    H214182   3.380   4.734   1.534
 4754TIP3   OH214183   3.202   5.312   2.614
 4754TIP3    H114184   3.155   5.319   2.697
 4754TIP3    H214185   3.180   5.392   2.567
 4755TIP3   OH214186   3.084   5.187   2.127
 4755TIP3    H114187   2.994   5.168   2.154
 4755TIP3    H214188   3.090   5.153   2.038
 4756TIP3   OH214189   3.566   5.260   1.861
 4756TIP3    H114190   3.518   5.332   1.822
 4756TIP3    H214191   3.622   5.227   1.791
 4757TIP3   OH214192   3.747   5.529   2.931
 4757TIP3    H114193   3.720   5.461   2.993
 4757TIP3    H214194   3.839   5.545   2.951
 4758TIP3   OH214195   3.735   5.275   2.082
 4758TIP3    H114196   3.664   5.296   2.021
 4758TIP3    H214197   3.780   5.201   2.042
 4759TIP3   OH214198   3.036   5.323   2.834
 4759TIP3    H114199   3.034   5.386   2.906
 4759TIP3    H214200   3.017   5.239   2.875
 4760TIP3   OH214201   3.081   4.796   1.544
 4760TIP3    H114202   3.074   4.802   1.639
 4760TIP3    H214203   3.004   4.841   1.511
 4761TIP3   OH214204   2.631   4.842   2.408
 4761TIP3    H114205   2.699   4.879   2.464
 4761TIP3    H214206   2.673   4.830   2.323
 4762TIP3   OH214207   2.534   4.818   1.913
 4762TIP3    H114208   2.579   4.853   1.836
 4762TIP3    H214209   2.472   4.887   1.938
 4763TIP3   OH214210   3.780   5.530   2.507
 4763TIP3    H114211   3.804   5.462   2.443
 4763TIP3    H214212   3.734   5.483   2.576
 4764TIP3   OH214213   3.448   4.975   2.181
 4764TIP3    H114214   3.368   4.977   2.234
 4764TIP3    H214215   3.519   4.968   2.245
 4765TIP3   OH214216   2.844   5.065   2.194
 4765TIP3    H114217   2.757   5.070   2.154
 4765TIP3    H214218   2.873   4.976   2.177
 4766TIP3   OH214219   3.098   5.060   1.884
 4766TIP3    H114220   3.192   5.075   1.872
 4766TIP3    H214221   3.060   5.079   1.798
 4767TIP3   OH214222   3.895   5.064   2.388
 4767TIP3    H114223   3.880   5.082   2.481
 4767TIP3    H214224   3.825   5.005   2.363
 4768TIP3   OH214225   2.986   5.080   1.635
 4768TIP3    H114226   2.921   5.035   1.580
 4768TIP3    H214227   3.037   5.133   1.574
 4769TIP3   OH214228   4.094   6.773   2.609
 4769TIP3    H114229   4.093   6.791   2.515
 4769TIP3    H214230   4.177   6.810   2.639
 4770TIP3   OH214231   3.019   5.872   3.039
 4770TIP3    H114232   3.098   5.893   3.088
 4770TIP3    H214233   2.950   5.865   3.106
 4771TIP3   OH214234   3.501   5.350   2.290
 4771TIP3    H114235   3.567   5.297   2.245
 4771TIP3    H214236   3.495   5.312   2.378
 4772TIP3   OH214237   2.985   4.816   2.177
 4772TIP3    H114238   2.959   4.740   2.229
 4772TIP3    H214239   3.004   4.780   2.090
 4773TIP3   OH214240   3.468   5.258   2.554
 4773TIP3    H114241   3.381   5.289   2.578
 4773TIP3    H214242   3.528   5.310   2.607
 4774TIP3   OH214243   3.208   5.598   1.679
 4774TIP3    H114244   3.122   5.567   1.648
 4774TIP3    H214245   3.189   5.643   1.761
 4775TIP3   OH214246   4.097   5.850   2.273
 4775TIP3    H114247   4.128   5.908   2.203
 4775TIP3    H214248   4.015   5.814   2.239
 4776TIP3   OH214249   3.669   4.922   1.568
 4776TIP3    H114250   3.576   4.898   1.567
 4776TIP3    H214251   3.670   5.016   1.585
 4777TIP3   OH214252   3.609   5.946   2.680
 4777TIP3    H114253   3.662   5.935   2.760
 4777TIP3    H214254   3.570   6.032   2.689
 4778TIP3   OH214255   3.726   5.184   1.642
 4778TIP3    H114256   3.821   5.192   1.653
 4778TIP3    H214257   3.702   5.263   1.593
 4779TIP3   OH214258   2.884   5.620   2.323
 4779TIP3    H114259   2.927   5.608   2.239
 4779TIP3    H214260   2.948   5.589   2.387
 4780TIP3   OH214261   3.346   5.766   1.514
 4780TIP3    H114262   3.302   5.851   1.516
 4780TIP3    H214263   3.292   5.709   1.568
 4781TIP3   OH214264   2.801   5.555   2.963
 4781TIP3    H114265   2.846   5.561   3.048
 4781TIP3    H214266   2.729   5.494   2.978
 4782TIP3   OH214267   3.516   5.687   2.972
 4782TIP3    H114268   3.445   5.629   2.944
 4782TIP3    H214269   3.596   5.644   2.942
 4783TIP3   OH214270   3.759   6.241   2.567
 4783TIP3    H114271   3.664   6.226   2.570
 4783TIP3    H214272   3.781   6.274   2.654
 4784TIP3   OH214273   4.146   5.269   1.455
 4784TIP3    H114274   4.093   5.222   1.391
 4784TIP3    H214275   4.146   5.360   1.424
 4785TIP3   OH214276   4.407   6.105   2.564
 4785TIP3    H114277   4.317   6.138   2.564
 4785TIP3    H214278   4.430   6.098   2.471
 4786TIP3   OH214279   3.892   6.090   1.417
 4786TIP3    H114280   3.853   6.030   1.481
 4786TIP3    H214281   3.902   6.037   1.338
 4787TIP3   OH214282   3.865   5.725   2.165
 4787TIP3    H114283   3.777   5.703   2.195
 4787TIP3    H214284   3.899   5.643   2.127
 4788TIP3   OH214285   2.986   5.933   1.958
 4788TIP3    H114286   2.974   6.016   1.911
 4788TIP3    H214287   2.915   5.877   1.927
 4789TIP3   OH214288   2.568   5.247   1.682
 4789TIP3    H114289   2.612   5.331   1.695
 4789TIP3    H214290   2.493   5.250   1.740
 4790TIP3   OH214291   3.154   5.717   1.917
 4790TIP3    H114292   3.106   5.800   1.919
 4790TIP3    H214293   3.115   5.666   1.989
 4791TIP3   OH214294   3.302   6.280   2.436
 4791TIP3    H114295   3.338   6.354   2.387
 4791TIP3    H214296   3.376   6.248   2.488
 4792TIP3   OH214297   2.922   6.183   1.829
 4792TIP3    H114298   2.840   6.191   1.877
 4792TIP3    H214299   2.962   6.269   1.834
 4793TIP3   OH214300   3.645   5.950   2.406
 4793TIP3    H114301   3.633   5.946   2.501
 4793TIP3    H214302   3.721   5.894   2.390
 4794TIP3   OH214303   3.646   5.812   1.269
 4794TIP3    H114304   3.697   5.785   1.345
 4794TIP3    H214305   3.561   5.772   1.281
 4795TIP3   OH214306   3.925   6.431   2.432
 4795TIP3    H114307   3.859   6.367   2.462
 4795TIP3    H214308   3.879   6.484   2.368
 4796TIP3   OH214309   3.950   6.279   1.117
 4796TIP3    H114310   3.966   6.343   1.047
 4796TIP3    H214311   3.875   6.315   1.165
 4797TIP3   OH214312   2.986   5.068   2.948
 4797TIP3    H114313   2.891   5.079   2.953
 4797TIP3    H214314   3.009   5.022   3.029
 4798TIP3   OH214315   3.821   5.726   1.461
 4798TIP3    H114316   3.804   5.678   1.542
 4798TIP3    H214317   3.916   5.740   1.460
 4799TIP3   OH214318   2.728   6.138   2.626
 4799TIP3    H114319   2.790   6.076   2.663
 4799TIP3    H214320   2.707   6.198   2.698
 4800TIP3   OH214321   3.005   5.788   1.300
 4800TIP3    H114322   3.013   5.696   1.275
 4800TIP3    H214323   2.992   5.786   1.395
 4801TIP3   OH214324   2.955   5.804   1.567
 4801TIP3    H114325   2.911   5.772   1.645
 4801TIP3    H214326   2.949   5.900   1.574
 4802TIP3   OH214327   3.847   5.126   2.650
 4802TIP3    H114328   3.921   5.173   2.689
 4802TIP3    H214329   3.833   5.051   2.708
 4803TIP3   OH214330   3.729   4.871   1.838
 4803TIP3    H114331   3.707   4.891   1.747
 4803TIP3    H214332   3.771   4.951   1.870
 4804TIP3   OH214333   3.223   6.010   1.521
 4804TIP3    H114334   3.133   6.016   1.552
 4804TIP3    H214335   3.230   6.078   1.454
 4805TIP3   OH214336   3.379   5.068   1.928
 4805TIP3    H114337   3.440   5.138   1.904
 4805TIP3    H214338   3.399   5.049   2.019
 4806TIP3   OH214339   3.678   5.368   2.705
 4806TIP3    H114340   3.698   5.413   2.786
 4806TIP3    H214341   3.727   5.286   2.710
 4807TIP3   OH214342   3.542   4.768   2.016
 4807TIP3    H114343   3.517   4.845   2.068
 4807TIP3    H214344   3.611   4.799   1.958
 4808TIP3   OH214345   2.961   6.082   1.576
 4808TIP3    H114346   2.937   6.155   1.519
 4808TIP3    H214347   2.943   6.113   1.664
 4809TIP3   OH214348   3.054   4.789   1.823
 4809TIP3    H114349   3.042   4.879   1.851
 4809TIP3    H214350   3.148   4.774   1.830
 4810TIP3   OH214351   4.292   5.250   2.685
 4810TIP3    H114352   4.200   5.268   2.704
 4810TIP3    H214353   4.290   5.186   2.614
 4811TIP3   OH214354   3.956   5.464   2.078
 4811TIP3    H114355   3.877   5.412   2.091
 4811TIP3    H214356   4.020   5.425   2.137
 4812TIP3   OH214357   2.647   5.714   1.520
 4812TIP3    H114358   2.688   5.737   1.603
 4812TIP3    H214359   2.712   5.659   1.475
 4813TIP3   OH214360   2.597   4.966   1.689
 4813TIP3    H114361   2.614   5.060   1.698
 4813TIP3    H214362   2.529   4.961   1.622
 4814TIP3   OH214363   3.944   6.443   2.029
 4814TIP3    H114364   3.909   6.498   1.959
 4814TIP3    H214365   4.038   6.462   2.030
 4815TIP3   OH214366   3.007   4.688   2.559
 4815TIP3    H114367   2.976   4.656   2.474
 4815TIP3    H214368   2.997   4.613   2.618
 4816TIP3   OH214369   2.584   5.971   1.925
 4816TIP3    H114370   2.529   5.987   1.849
 4816TIP3    H214371   2.637   5.895   1.900
 4817TIP3   OH214372   2.722   6.483   3.017
 4817TIP3    H114373   2.805   6.483   3.064
 4817TIP3    H214374   2.694   6.391   3.018
 4818TIP3   OH214375   3.195   6.394   3.056
 4818TIP3    H114376   3.284   6.363   3.069
 4818TIP3    H214377   3.160   6.338   2.987
 4819TIP3   OH214378   3.151   5.988   1.184
 4819TIP3    H114379   3.103   5.919   1.230
 4819TIP3    H214380   3.225   5.942   1.144
 4820TIP3   OH214381   3.808   6.330   2.822
 4820TIP3    H114382   3.822   6.259   2.883
 4820TIP3    H214383   3.880   6.391   2.838
 4821TIP3   OH214384   3.589   6.033   1.120
 4821TIP3    H114385   3.622   5.964   1.177
 4821TIP3    H214386   3.639   6.024   1.039
 4822TIP3   OH214387   2.805   5.874   3.234
 4822TIP3    H114388   2.776   5.812   3.301
 4822TIP3    H214389   2.730   5.883   3.175
 4823TIP3   OH214390   2.814   5.517   1.408
 4823TIP3    H114391   2.861   5.496   1.488
 4823TIP3    H214392   2.882   5.522   1.341
 4824TIP3   OH214393   3.448   5.963   2.989
 4824TIP3    H114394   3.404   5.984   2.907
 4824TIP3    H214395   3.483   5.875   2.976
 4825TIP3   OH214396   3.391   5.705   1.251
 4825TIP3    H114397   3.364   5.718   1.341
 4825TIP3    H214398   3.366   5.614   1.232
 4826TIP3   OH214399   3.921   6.011   2.607
 4826TIP3    H114400   4.000   6.034   2.560
 4826TIP3    H214401   3.860   6.082   2.588
 4827TIP3   OH214402   2.965   5.559   3.191
 4827TIP3    H114403   3.060   5.555   3.184
 4827TIP3    H214404   2.948   5.611   3.270
 4828TIP3   OH214405   2.982   5.440   1.614
 4828TIP3    H114406   2.961   5.425   1.706
 4828TIP3    H214407   3.032   5.363   1.588
 4829TIP3   OH214408   3.314   5.515   2.870
 4829TIP3    H114409   3.227   5.554   2.876
 4829TIP3    H214410   3.347   5.540   2.784
 4830TIP3   OH214411   3.131   5.243   1.469
 4830TIP3    H114412   3.099   5.251   1.379
 4830TIP3    H214413   3.225   5.255   1.463
 4831TIP3   OH214414   3.806   5.882   2.955
 4831TIP3    H114415   3.873   5.843   2.900
 4831TIP3    H214416   3.802   5.825   3.032
 4832TIP3   OH214417   3.925   5.533   1.143
 4832TIP3    H114418   3.906   5.491   1.059
 4832TIP3    H214419   3.901   5.625   1.130
 4833TIP3   OH214420   3.411   5.281   2.980
 4833TIP3    H114421   3.411   5.211   2.915
 4833TIP3    H214422   3.376   5.357   2.932
 4834TIP3   OH214423   3.419   5.080   2.778
 4834TIP3    H114424   3.444   5.119   2.695
 4834TIP3    H214425   3.328   5.053   2.765
 4835TIP3   OH214426   3.429   5.606   2.641
 4835TIP3    H114427   3.515   5.649   2.633
 4835TIP3    H214428   3.369   5.664   2.594
 4836TIP3   OH214429   4.015   5.568   3.027
 4836TIP3    H114430   4.063   5.485   3.033
 4836TIP3    H214431   4.083   5.635   3.019
 4837TIP3   OH214432   4.042   5.830   2.769
 4837TIP3    H114433   3.989   5.893   2.720
 4837TIP3    H214434   4.131   5.844   2.737
 4838TIP3   OH214435   3.295   5.361   3.225
 4838TIP3    H114436   3.225   5.300   3.246
 4838TIP3    H214437   3.322   5.338   3.137
 4839TIP3   OH214438   3.539   4.848   2.881
 4839TIP3    H114439   3.498   4.928   2.848
 4839TIP3    H214440   3.473   4.780   2.869
 4840TIP3   OH214441   3.665   5.317   3.085
 4840TIP3    H114442   3.652   5.304   3.179
 4840TIP3    H214443   3.580   5.298   3.046
 4841TIP3   OH214444   3.911   5.272   2.957
 4841TIP3    H114445   3.831   5.272   3.010
 4841TIP3    H214446   3.980   5.248   3.018
 4842TIP3   OH214447   4.152   5.240   3.103
 4842TIP3    H114448   4.163   5.145   3.110
 4842TIP3    H214449   4.145   5.270   3.193
 4843TIP3   OH214450   3.128   5.142   3.288
 4843TIP3    H114451   3.132   5.053   3.253
 4843TIP3    H214452   3.166   5.135   3.376
 4844TIP3   OH214453   3.605   4.824   3.147
 4844TIP3    H114454   3.673   4.757   3.140
 4844TIP3    H214455   3.574   4.837   3.057
 4845TIP3   OH214456   3.703   5.040   3.288
 4845TIP3    H114457   3.670   4.968   3.235
 4845TIP3    H214458   3.630   5.102   3.291
 4846TIP3   OH214459   2.956   6.304   1.403
 4846TIP3    H114460   3.042   6.273   1.374
 4846TIP3    H214461   2.917   6.345   1.325
 4847TIP3   OH214462   2.394   5.652   1.582
 4847TIP3    H114463   2.483   5.682   1.563
 4847TIP3    H214464   2.387   5.568   1.537
 4848TIP3   OH214465   2.311   6.267   2.029
 4848TIP3    H114466   2.254   6.203   1.986
 4848TIP3    H214467   2.361   6.215   2.092
 4849TIP3   OH214468   2.448   6.133   2.223
 4849TIP3    H114469   2.460   6.038   2.222
 4849TIP3    H214470   2.510   6.165   2.288
 4850TIP3   OH214471   4.212   6.511   2.063
 4850TIP3    H114472   4.267   6.498   2.140
 4850TIP3    H214473   4.221   6.604   2.043
 4851TIP3   OH214474   4.287   6.218   2.873
 4851TIP3    H114475   4.210   6.228   2.929
 4851TIP3    H214476   4.328   6.304   2.874
 4852TIP3   OH214477   4.100   5.736   1.475
 4852TIP3    H114478   4.157   5.808   1.450
 4852TIP3    H214479   4.141   5.698   1.553
 4853TIP3   OH214480   4.222   5.593   1.678
 4853TIP3    H114481   4.153   5.553   1.730
 4853TIP3    H214482   4.285   5.626   1.742
 4854TIP3   OH214483   4.273   5.999   2.114
 4854TIP3    H114484   4.326   5.936   2.066
 4854TIP3    H214485   4.266   6.074   2.054
 4855TIP3   OH214486   4.085   6.249   2.286
 4855TIP3    H114487   4.039   6.320   2.331
 4855TIP3    H214488   4.026   6.223   2.216
 4856TIP3   OH214489   4.129   5.510   1.323
 4856TIP3    H114490   4.056   5.512   1.261
 4856TIP3    H214491   4.116   5.588   1.378
 4857TIP3   OH214492   4.009   5.156   1.246
 4857TIP3    H114493   3.947   5.194   1.184
 4857TIP3    H214494   3.997   5.061   1.236
 4858TIP3   OH214495   4.023   5.453   1.811
 4858TIP3    H114496   4.025   5.358   1.798
 4858TIP3    H214497   4.004   5.464   1.904
 4859TIP3   OH214498   2.644   5.526   2.587
 4859TIP3    H114499   2.635   5.493   2.498
 4859TIP3    H214500   2.738   5.519   2.606
 4860TIP3   OH214501   4.301   5.869   2.679
 4860TIP3    H114502   4.370   5.807   2.658
 4860TIP3    H214503   4.322   5.947   2.627
 4861TIP3   OH214504   4.487   5.665   2.664
 4861TIP3    H114505   4.411   5.623   2.704
 4861TIP3    H214506   4.561   5.609   2.686
 4862TIP3   OH214507   3.957   4.884   1.225
 4862TIP3    H114508   4.017   4.861   1.296
 4862TIP3    H214509   3.871   4.852   1.255
 4863TIP3   OH214510   4.020   5.180   1.697
 4863TIP3    H114511   4.064   5.096   1.710
 4863TIP3    H214512   4.062   5.218   1.620
 4864TIP3   OH214513   4.169   5.342   2.224
 4864TIP3    H114514   4.251   5.358   2.177
 4864TIP3    H214515   4.181   5.385   2.309
 4865TIP3   OH214516   4.244   5.499   2.445
 4865TIP3    H114517   4.173   5.528   2.502
 4865TIP3    H214518   4.274   5.579   2.402
 4866TIP3   OH214519   2.865   5.202   3.221
 4866TIP3    H114520   2.958   5.201   3.242
 4866TIP3    H214521   2.830   5.122   3.262
 4867TIP3   OH214522   4.714   5.089   2.990
 4867TIP3    H114523   4.777   5.032   2.946
 4867TIP3    H214524   4.673   5.139   2.920
 4868TIP3   OH214525   4.135   4.930   1.747
 4868TIP3    H114526   4.179   4.916   1.831
 4868TIP3    H214527   4.072   4.859   1.741
 4869TIP3   OH214528   2.844   4.914   2.571
 4869TIP3    H114529   2.898   4.836   2.579
 4869TIP3    H214530   2.906   4.985   2.555
 4870TIP3   OH214531   2.619   5.174   2.640
 4870TIP3    H114532   2.674   5.174   2.561
 4870TIP3    H214533   2.639   5.256   2.684
 4871TIP3   OH214534   4.558   5.216   2.807
 4871TIP3    H114535   4.490   5.257   2.861
 4871TIP3    H214536   4.509   5.164   2.743
 4872TIP3   OH214537   4.181   4.843   1.387
 4872TIP3    H114538   4.229   4.781   1.332
 4872TIP3    H214539   4.237   4.920   1.392
 4873TIP3   OH214540   2.605   4.675   2.135
 4873TIP3    H114541   2.521   4.665   2.180
 4873TIP3    H214542   2.586   4.734   2.062
 4874TIP3   OH214543   3.777   6.410   1.664
 4874TIP3    H114544   3.832   6.399   1.587
 4874TIP3    H214545   3.818   6.482   1.712
 4875TIP3   OH214546   2.831   4.736   2.961
 4875TIP3    H114547   2.785   4.736   3.045
 4875TIP3    H214548   2.777   4.789   2.903
 4876TIP3   OH214549   2.870   6.199   3.039
 4876TIP3    H114550   2.777   6.185   3.028
 4876TIP3    H214551   2.886   6.180   3.132
 4877TIP3   OH214552   3.071   6.244   2.584
 4877TIP3    H114553   3.021   6.320   2.553
 4877TIP3    H214554   3.156   6.252   2.540
 4878TIP3   OH214555   3.470   6.481   2.726
 4878TIP3    H114556   3.507   6.472   2.813
 4878TIP3    H214557   3.533   6.534   2.677
 4879TIP3   OH214558   3.662   6.633   2.597
 4879TIP3    H114559   3.720   6.574   2.548
 4879TIP3    H214560   3.721   6.687   2.649
 4880TIP3   OH214561   4.466   4.956   2.685
 4880TIP3    H114562   4.377   4.948   2.651
 4880TIP3    H214563   4.503   4.868   2.679
 4881TIP3   OH214564   2.735   6.512   2.620
 4881TIP3    H114565   2.641   6.490   2.620
 4881TIP3    H214566   2.746   6.570   2.695
 4882TIP3   OH214567   2.969   6.481   2.482
 4882TIP3    H114568   2.887   6.490   2.529
 4882TIP3    H214569   2.946   6.496   2.390
 4883TIP3   OH214570   3.377   6.495   2.275
 4883TIP3    H114571   3.303   6.505   2.215
 4883TIP3    H214572   3.386   6.582   2.315
 4884TIP3   OH214573   3.642   6.438   2.328
 4884TIP3    H114574   3.551   6.454   2.305
 4884TIP3    H214575   3.691   6.505   2.281
 4885TIP3   OH214576   3.840   6.608   2.223
 4885TIP3    H114577   3.841   6.694   2.182
 4885TIP3    H214578   3.871   6.548   2.155
 4886TIP3   OH214579   2.643   6.267   2.389
 4886TIP3    H114580   2.675   6.231   2.472
 4886TIP3    H214581   2.709   6.241   2.325
 4887TIP3   OH214582   2.842   6.165   2.233
 4887TIP3    H114583   2.850   6.074   2.262
 4887TIP3    H214584   2.932   6.196   2.230
 4888TIP3   OH214585   3.116   6.239   2.231
 4888TIP3    H114586   3.127   6.146   2.209
 4888TIP3    H214587   3.174   6.253   2.306
 4889TIP3   OH214588   3.677   4.886   2.323
 4889TIP3    H114589   3.637   4.815   2.374
 4889TIP3    H214590   3.744   4.843   2.271
 4890TIP3   OH214591   4.178   4.802   2.206
 4890TIP3    H114592   4.212   4.854   2.134
 4890TIP3    H214593   4.084   4.822   2.208
 4891TIP3   OH214594   4.293   4.882   1.970
 4891TIP3    H114595   4.363   4.821   1.945
 4891TIP3    H214596   4.330   4.969   1.956
 4892TIP3   OH214597   2.917   4.586   2.318
 4892TIP3    H114598   2.828   4.554   2.330
 4892TIP3    H214599   2.971   4.507   2.309
 4893TIP3   OH214600   2.736   4.488   1.968
 4893TIP3    H114601   2.761   4.541   1.892
 4893TIP3    H214602   2.697   4.551   2.029
 4894TIP3   OH214603   3.400   4.622   2.215
 4894TIP3    H114604   3.446   4.673   2.149
 4894TIP3    H214605   3.437   4.652   2.298
 4895TIP3   OH214606   3.891   4.769   2.190
 4895TIP3    H114607   3.898   4.732   2.102
 4895TIP3    H214608   3.897   4.693   2.248
 4896TIP3   OH214609   3.949   4.720   1.757
 4896TIP3    H114610   3.869   4.768   1.781
 4896TIP3    H214611   3.938   4.634   1.796
 4897TIP3   OH214612   2.428   6.053   1.703
 4897TIP3    H114613   2.340   6.016   1.695
 4897TIP3    H214614   2.416   6.146   1.683
 4898TIP3   OH214615   2.843   4.623   1.732
 4898TIP3    H114616   2.890   4.562   1.675
 4898TIP3    H214617   2.911   4.679   1.768
 4899TIP3   OH214618   3.330   4.817   1.831
 4899TIP3    H114619   3.388   4.766   1.887
 4899TIP3    H214620   3.343   4.908   1.859
 4900TIP3   OH214621   3.202   6.212   1.328
 4900TIP3    H114622   3.288   6.239   1.293
 4900TIP3    H214623   3.175   6.140   1.271
 4901TIP3   OH214624   3.931   6.359   1.436
 4901TIP3    H114625   3.919   6.264   1.432
 4901TIP3    H214626   3.880   6.393   1.363
 4902TIP3   OH214627   3.143   4.871   3.201
 4902TIP3    H114628   3.107   4.804   3.259
 4902TIP3    H214629   3.235   4.879   3.226
 4903TIP3   OH214630   3.390   4.877   3.325
 4903TIP3    H114631   3.467   4.853   3.273
 4903TIP3    H214632   3.383   4.807   3.390
 4904TIP3   OH214633   2.521   6.041   1.402
 4904TIP3    H114634   2.519   6.034   1.498
 4904TIP3    H214635   2.604   6.000   1.377
 4905TIP3   OH214636   4.213   4.967   3.108
 4905TIP3    H114637   4.229   4.938   3.197
 4905TIP3    H214638   4.298   4.962   3.065
 4906TIP3   OH214639   4.097   6.495   2.644
 4906TIP3    H114640   4.049   6.462   2.568
 4906TIP3    H214641   4.102   6.589   2.629
 4907TIP3   OH214642   5.399   5.882   1.388
 4907TIP3    H114643   5.385   5.972   1.357
 4907TIP3    H214644   5.328   5.833   1.346
 4908TIP3   OH214645   5.404   5.863   1.774
 4908TIP3    H114646   5.460   5.847   1.850
 4908TIP3    H214647   5.365   5.778   1.754
 4909TIP3   OH214648   4.707   5.772   2.132
 4909TIP3    H114649   4.734   5.694   2.179
 4909TIP3    H214650   4.760   5.843   2.170
 4910TIP3   OH214651   5.675   6.167   1.457
 4910TIP3    H114652   5.662   6.099   1.523
 4910TIP3    H214653   5.698   6.245   1.507
 4911TIP3   OH214654   4.684   6.189   1.839
 4911TIP3    H114655   4.691   6.095   1.853
 4911TIP3    H214656   4.650   6.223   1.922
 4912TIP3   OH214657   4.380   5.375   1.590
 4912TIP3    H114658   4.337   5.456   1.619
 4912TIP3    H214659   4.309   5.322   1.553
 4913TIP3   OH214660   4.455   5.664   1.814
 4913TIP3    H114661   4.503   5.589   1.849
 4913TIP3    H214662   4.515   5.704   1.751
 4914TIP3   OH214663   5.292   6.598   1.468
 4914TIP3    H114664   5.355   6.535   1.433
 4914TIP3    H214665   5.299   6.590   1.563
 4915TIP3   OH214666   5.221   6.089   1.780
 4915TIP3    H114667   5.267   6.010   1.753
 4915TIP3    H214668   5.289   6.148   1.810
 4916TIP3   OH214669   6.234   5.415   1.775
 4916TIP3    H114670   6.254   5.491   1.830
 4916TIP3    H214671   6.295   5.423   1.702
 4917TIP3   OH214672   5.626   5.548   1.853
 4917TIP3    H114673   5.587   5.482   1.910
 4917TIP3    H214674   5.583   5.534   1.768
 4918TIP3   OH214675   4.972   5.246   1.776
 4918TIP3    H114676   4.946   5.319   1.720
 4918TIP3    H214677   4.918   5.173   1.747
 4919TIP3   OH214678   5.686   5.343   1.442
 4919TIP3    H114679   5.754   5.277   1.456
 4919TIP3    H214680   5.714   5.390   1.363
 4920TIP3   OH214681   4.601   5.455   1.914
 4920TIP3    H114682   4.684   5.437   1.958
 4920TIP3    H214683   4.603   5.401   1.834
 4921TIP3   OH214684   5.029   5.667   1.691
 4921TIP3    H114685   5.121   5.645   1.706
 4921TIP3    H214686   4.987   5.584   1.668
 4922TIP3   OH214687   6.268   5.619   1.967
 4922TIP3    H114688   6.207   5.689   1.945
 4922TIP3    H214689   6.337   5.662   2.018
 4923TIP3   OH214690   4.959   5.251   2.235
 4923TIP3    H114691   4.911   5.286   2.159
 4923TIP3    H214692   4.900   5.265   2.309
 4924TIP3   OH214693   5.340   6.119   1.252
 4924TIP3    H114694   5.281   6.085   1.185
 4924TIP3    H214695   5.288   6.184   1.299
 4925TIP3   OH214696   5.056   6.022   1.988
 4925TIP3    H114697   5.003   6.095   2.019
 4925TIP3    H214698   5.109   6.059   1.917
 4926TIP3   OH214699   4.850   5.354   2.002
 4926TIP3    H114700   4.903   5.430   2.025
 4926TIP3    H214701   4.896   5.314   1.928
 4927TIP3   OH214702   4.902   6.228   2.087
 4927TIP3    H114703   4.885   6.320   2.066
 4927TIP3    H214704   4.831   6.203   2.146
 4928TIP3   OH214705   4.275   5.924   1.365
 4928TIP3    H114706   4.233   5.939   1.280
 4928TIP3    H214707   4.301   6.011   1.395
 4929TIP3   OH214708   5.712   6.395   1.611
 4929TIP3    H114709   5.624   6.391   1.648
 4929TIP3    H214710   5.717   6.481   1.568
 4930TIP3   OH214711   5.982   5.374   1.958
 4930TIP3    H114712   5.902   5.419   1.984
 4930TIP3    H214713   6.038   5.379   2.035
 4931TIP3   OH214714   5.298   4.938   1.969
 4931TIP3    H114715   5.289   4.845   1.992
 4931TIP3    H214716   5.222   4.980   2.008
 4932TIP3   OH214717   5.452   6.426   1.328
 4932TIP3    H114718   5.501   6.348   1.302
 4932TIP3    H214719   5.516   6.497   1.324
 4933TIP3   OH214720   5.597   6.216   1.204
 4933TIP3    H114721   5.512   6.171   1.202
 4933TIP3    H214722   5.636   6.189   1.287
 4934TIP3   OH214723   5.942   6.317   1.939
 4934TIP3    H114724   5.925   6.245   1.879
 4934TIP3    H214725   5.926   6.396   1.887
 4935TIP3   OH214726   5.227   5.727   1.230
 4935TIP3    H114727   5.138   5.759   1.214
 4935TIP3    H214728   5.259   5.702   1.143
 4936TIP3   OH214729   5.199   5.438   0.957
 4936TIP3    H114730   5.206   5.533   0.959
 4936TIP3    H214731   5.288   5.407   0.940
 4937TIP3   OH214732   6.119   5.990   1.827
 4937TIP3    H114733   6.036   6.037   1.817
 4937TIP3    H214734   6.159   5.993   1.740
 4938TIP3   OH214735   5.591   5.764   1.237
 4938TIP3    H114736   5.538   5.805   1.306
 4938TIP3    H214737   5.677   5.752   1.277
 4939TIP3   OH214738   5.819   5.837   2.117
 4939TIP3    H114739   5.822   5.922   2.162
 4939TIP3    H214740   5.738   5.839   2.066
 4940TIP3   OH214741   4.820   5.806   1.573
 4940TIP3    H114742   4.781   5.743   1.512
 4940TIP3    H214743   4.897   5.761   1.608
 4941TIP3   OH214744   4.926   6.221   1.640
 4941TIP3    H114745   4.978   6.168   1.700
 4941TIP3    H214746   4.991   6.267   1.587
 4942TIP3   OH214747   4.955   5.773   1.935
 4942TIP3    H114748   4.987   5.748   1.849
 4942TIP3    H214749   4.993   5.860   1.951
 4943TIP3   OH214750   5.467   6.416   1.726
 4943TIP3    H114751   5.460   6.500   1.771
 4943TIP3    H214752   5.449   6.351   1.794
 4944TIP3   OH214753   5.092   6.319   2.269
 4944TIP3    H114754   5.028   6.376   2.312
 4944TIP3    H214755   5.040   6.270   2.204
 4945TIP3   OH214756   5.435   5.623   1.065
 4945TIP3    H114757   5.490   5.679   1.121
 4945TIP3    H214758   5.441   5.662   0.978
 4946TIP3   OH214759   4.837   5.878   2.386
 4946TIP3    H114760   4.847   5.967   2.420
 4946TIP3    H214761   4.745   5.856   2.403
 4947TIP3   OH214762   5.160   6.309   1.353
 4947TIP3    H114763   5.214   6.387   1.367
 4947TIP3    H214764   5.106   6.332   1.277
 4948TIP3   OH214765   4.882   6.478   2.347
 4948TIP3    H114766   4.854   6.497   2.257
 4948TIP3    H214767   4.801   6.457   2.394
 4949TIP3   OH214768   5.916   4.884   1.101
 4949TIP3    H114769   5.837   4.902   1.153
 4949TIP3    H214770   5.930   4.964   1.051
 4950TIP3   OH214771   4.696   5.636   1.380
 4950TIP3    H114772   4.616   5.679   1.349
 4950TIP3    H214773   4.668   5.546   1.400
 4951TIP3   OH214774   5.804   6.304   0.653
 4951TIP3    H114775   5.790   6.299   0.558
 4951TIP3    H214776   5.814   6.212   0.680
 4952TIP3   OH214777   4.476   6.034   2.305
 4952TIP3    H114778   4.399   6.025   2.250
 4952TIP3    H214779   4.498   5.945   2.332
 4953TIP3   OH214780   4.306   6.250   1.967
 4953TIP3    H114781   4.391   6.267   2.008
 4953TIP3    H214782   4.248   6.316   2.006
 4954TIP3   OH214783   6.172   6.676   2.011
 4954TIP3    H114784   6.175   6.581   2.022
 4954TIP3    H214785   6.092   6.703   2.056
 4955TIP3   OH214786   5.284   6.466   2.138
 4955TIP3    H114787   5.275   6.557   2.164
 4955TIP3    H214788   5.213   6.421   2.183
 4956TIP3   OH214789   5.056   6.559   1.181
 4956TIP3    H114790   5.013   6.550   1.096
 4956TIP3    H214791   5.037   6.648   1.209
 4957TIP3   OH214792   4.569   6.289   1.578
 4957TIP3    H114793   4.501   6.335   1.627
 4957TIP3    H214794   4.521   6.243   1.509
 4958TIP3   OH214795   5.121   6.379   0.618
 4958TIP3    H114796   5.196   6.365   0.560
 4958TIP3    H214797   5.157   6.432   0.689
 4959TIP3   OH214798   5.316   6.516   1.106
 4959TIP3    H114799   5.225   6.523   1.135
 4959TIP3    H214800   5.362   6.476   1.180
 4960TIP3   OH214801   6.069   5.799   2.294
 4960TIP3    H114802   5.985   5.793   2.249
 4960TIP3    H214803   6.088   5.709   2.321
 4961TIP3   OH214804   4.697   6.189   2.262
 4961TIP3    H114805   4.737   6.203   2.348
 4961TIP3    H214806   4.618   6.138   2.280
 4962TIP3   OH214807   5.064   5.034   2.091
 4962TIP3    H114808   4.981   4.999   2.059
 4962TIP3    H214809   5.040   5.115   2.138
 4963TIP3   OH214810   5.599   5.167   2.279
 4963TIP3    H114811   5.669   5.140   2.339
 4963TIP3    H214812   5.518   5.148   2.326
 4964TIP3   OH214813   5.837   5.562   2.157
 4964TIP3    H114814   5.808   5.551   2.248
 4964TIP3    H214815   5.815   5.653   2.137
 4965TIP3   OH214816   5.470   5.731   0.822
 4965TIP3    H114817   5.491   5.665   0.755
 4965TIP3    H214818   5.548   5.787   0.825
 4966TIP3   OH214819   5.196   5.077   1.062
 4966TIP3    H114820   5.157   5.080   1.150
 4966TIP3    H214821   5.151   5.005   1.018
 4967TIP3   OH214822   4.997   5.564   2.103
 4967TIP3    H114823   4.943   5.575   2.182
 4967TIP3    H214824   4.978   5.642   2.050
 4968TIP3   OH214825   4.875   5.448   1.620
 4968TIP3    H114826   4.786   5.423   1.644
 4968TIP3    H214827   4.887   5.413   1.531
 4969TIP3   OH214828   5.370   5.521   1.357
 4969TIP3    H114829   5.323   5.596   1.321
 4969TIP3    H214830   5.425   5.490   1.286
 4970TIP3   OH214831   5.558   5.765   2.420
 4970TIP3    H114832   5.518   5.773   2.507
 4970TIP3    H214833   5.652   5.780   2.436
 4971TIP3   OH214834   5.541   5.526   1.586
 4971TIP3    H114835   5.467   5.545   1.529
 4971TIP3    H214836   5.587   5.455   1.542
 4972TIP3   OH214837   4.815   5.579   2.309
 4972TIP3    H114838   4.804   5.644   2.378
 4972TIP3    H214839   4.801   5.495   2.352
 4973TIP3   OH214840   4.858   5.033   1.042
 4973TIP3    H114841   4.844   5.053   1.134
 4973TIP3    H214842   4.791   5.084   0.996
 4974TIP3   OH214843   4.425   5.102   1.888
 4974TIP3    H114844   4.501   5.133   1.938
 4974TIP3    H214845   4.462   5.073   1.805
 4975TIP3   OH214846   4.337   5.074   1.399
 4975TIP3    H114847   4.382   5.109   1.322
 4975TIP3    H214848   4.274   5.142   1.424
 4976TIP3   OH214849   5.577   5.784   1.984
 4976TIP3    H114850   5.604   5.709   1.930
 4976TIP3    H214851   5.528   5.745   2.055
 4977TIP3   OH214852   5.236   5.311   1.697
 4977TIP3    H114853   5.155   5.283   1.738
 4977TIP3    H214854   5.301   5.246   1.724
 4978TIP3   OH214855   4.637   5.321   1.676
 4978TIP3    H114856   4.549   5.326   1.639
 4978TIP3    H214857   4.665   5.231   1.662
 4979TIP3   OH214858   4.894   5.324   1.379
 4979TIP3    H114859   4.987   5.334   1.359
 4979TIP3    H214860   4.850   5.334   1.295
 4980TIP3   OH214861   4.749   5.324   1.148
 4980TIP3    H114862   4.687   5.276   1.093
 4980TIP3    H214863   4.810   5.363   1.086
 4981TIP3   OH214864   5.891   7.024   2.102
 4981TIP3    H114865   5.883   7.042   2.009
 4981TIP3    H214866   5.970   7.071   2.129
 4982TIP3   OH214867   4.844   6.128   2.512
 4982TIP3    H114868   4.922   6.152   2.562
 4982TIP3    H214869   4.771   6.142   2.573
 4983TIP3   OH214870   5.283   5.583   1.778
 4983TIP3    H114871   5.288   5.499   1.732
 4983TIP3    H214872   5.279   5.561   1.870
 4984TIP3   OH214873   4.780   5.072   1.659
 4984TIP3    H114874   4.754   4.996   1.711
 4984TIP3    H214875   4.797   5.036   1.572
 4985TIP3   OH214876   5.261   5.514   2.048
 4985TIP3    H114877   5.171   5.540   2.069
 4985TIP3    H214878   5.316   5.573   2.098
 4986TIP3   OH214879   4.977   5.833   1.179
 4986TIP3    H114880   4.908   5.779   1.140
 4986TIP3    H214881   4.932   5.887   1.244
 4987TIP3   OH214882   5.885   6.118   1.758
 4987TIP3    H114883   5.923   6.166   1.684
 4987TIP3    H214884   5.806   6.078   1.723
 4988TIP3   OH214885   5.453   5.144   1.098
 4988TIP3    H114886   5.359   5.139   1.086
 4988TIP3    H214887   5.473   5.237   1.100
 4989TIP3   OH214888   5.404   6.200   2.177
 4989TIP3    H114889   5.457   6.201   2.257
 4989TIP3    H214890   5.362   6.286   2.176
 4990TIP3   OH214891   5.544   5.396   1.154
 4990TIP3    H114892   5.638   5.414   1.156
 4990TIP3    H214893   5.507   5.470   1.106
 4991TIP3   OH214894   4.730   5.918   1.821
 4991TIP3    H114895   4.756   5.879   1.738
 4991TIP3    H214896   4.769   5.861   1.887
 4992TIP3   OH214897   5.151   6.023   1.080
 4992TIP3    H114898   5.094   6.099   1.085
 4992TIP3    H214899   5.093   5.948   1.097
 4993TIP3   OH214900   4.575   5.791   2.431
 4993TIP3    H114901   4.567   5.768   2.524
 4993TIP3    H214902   4.500   5.750   2.390
 4994TIP3   OH214903   5.310   5.934   2.464
 4994TIP3    H114904   5.231   5.884   2.441
 4994TIP3    H214905   5.375   5.909   2.399
 4995TIP3   OH214906   5.552   6.481   2.061
 4995TIP3    H114907   5.457   6.472   2.066
 4995TIP3    H214908   5.577   6.522   2.143
 4996TIP3   OH214909   5.972   5.499   1.007
 4996TIP3    H114910   5.977   5.438   0.934
 4996TIP3    H214911   5.943   5.581   0.967
 4997TIP3   OH214912   6.189   6.394   2.029
 4997TIP3    H114913   6.094   6.381   2.021
 4997TIP3    H214914   6.224   6.368   1.943
 4998TIP3   OH214915   5.794   6.308   1.031
 4998TIP3    H114916   5.738   6.291   1.106
 4998TIP3    H214917   5.742   6.281   0.955
 4999TIP3   OH214918   5.657   5.974   1.659
 4999TIP3    H114919   5.566   5.955   1.680
 4999TIP3    H214920   5.693   5.890   1.631
 5000TIP3   OH214921   4.365   5.506   1.184
 5000TIP3    H114922   4.411   5.585   1.212
 5000TIP3    H214923   4.284   5.506   1.235
 5001TIP3   OH214924   4.867   5.998   1.373
 5001TIP3    H114925   4.942   6.049   1.402
 5001TIP3    H214926   4.847   5.940   1.446
 5002TIP3   OH214927   5.107   6.529   1.922
 5002TIP3    H114928   5.135   6.602   1.867
 5002TIP3    H214929   5.184   6.506   1.973
 5003TIP3   OH214930   5.447   6.200   1.904
 5003TIP3    H114931   5.432   6.196   1.998
 5003TIP3    H214932   5.535   6.163   1.892
 5004TIP3   OH214933   5.361   5.980   0.909
 5004TIP3    H114934   5.434   5.940   0.956
 5004TIP3    H214935   5.289   5.978   0.972
 5005TIP3   OH214936   5.704   6.701   1.949
 5005TIP3    H114937   5.629   6.641   1.956
 5005TIP3    H214938   5.681   6.758   1.876
 5006TIP3   OH214939   5.668   6.576   0.529
 5006TIP3    H114940   5.763   6.567   0.544
 5006TIP3    H214941   5.635   6.608   0.613
 5007TIP3   OH214942   4.773   5.327   2.430
 5007TIP3    H114943   4.679   5.340   2.433
 5007TIP3    H214944   4.793   5.275   2.508
 5008TIP3   OH214945   5.610   5.918   1.017
 5008TIP3    H114946   5.601   5.864   1.096
 5008TIP3    H214947   5.702   5.943   1.016
 5009TIP3   OH214948   4.553   6.335   2.072
 5009TIP3    H114949   4.608   6.284   2.131
 5009TIP3    H214950   4.514   6.403   2.126
 5010TIP3   OH214951   4.894   6.030   0.921
 5010TIP3    H114952   4.854   5.964   0.863
 5010TIP3    H214953   4.831   6.041   0.992
 5011TIP3   OH214954   4.718   6.069   1.135
 5011TIP3    H114955   4.764   6.046   1.215
 5011TIP3    H214956   4.713   6.165   1.137
 5012TIP3   OH214957   4.468   5.748   1.274
 5012TIP3    H114958   4.402   5.796   1.325
 5012TIP3    H214959   4.487   5.806   1.199
 5013TIP3   OH214960   5.604   5.402   2.127
 5013TIP3    H114961   5.694   5.433   2.139
 5013TIP3    H214962   5.602   5.319   2.174
 5014TIP3   OH214963   5.518   5.134   1.361
 5014TIP3    H114964   5.492   5.143   1.270
 5014TIP3    H214965   5.552   5.220   1.386
 5015TIP3   OH214966   4.987   6.249   1.118
 5015TIP3    H114967   4.902   6.283   1.147
 5015TIP3    H214968   4.988   6.264   1.023
 5016TIP3   OH214969   5.180   5.332   1.423
 5016TIP3    H114970   5.241   5.398   1.391
 5016TIP3    H214971   5.195   5.327   1.517
 5017TIP3   OH214972   5.467   5.638   2.188
 5017TIP3    H114973   5.495   5.673   2.273
 5017TIP3    H214974   5.510   5.553   2.182
 5018TIP3   OH214975   5.333   5.010   1.517
 5018TIP3    H114976   5.359   5.049   1.600
 5018TIP3    H214977   5.392   5.049   1.453
 5019TIP3   OH214978   4.728   6.348   1.149
 5019TIP3    H114979   4.711   6.394   1.067
 5019TIP3    H214980   4.713   6.414   1.217
 5020TIP3   OH214981   4.845   5.049   1.325
 5020TIP3    H114982   4.834   5.141   1.351
 5020TIP3    H214983   4.939   5.035   1.327
 5021TIP3   OH214984   6.105   5.515   2.171
 5021TIP3    H114985   6.012   5.540   2.163
 5021TIP3    H214986   6.148   5.561   2.099
 5022TIP3   OH214987   5.749   5.709   1.601
 5022TIP3    H114988   5.668   5.658   1.599
 5022TIP3    H214989   5.804   5.664   1.665
 5023TIP3   OH214990   4.490   5.925   1.062
 5023TIP3    H114991   4.557   5.991   1.082
 5023TIP3    H214992   4.528   5.873   0.992
 5024TIP3   OH214993   4.385   5.227   1.176
 5024TIP3    H114994   4.396   5.321   1.188
 5024TIP3    H214995   4.298   5.219   1.136
 5025TIP3   OH214996   5.713   6.657   1.541
 5025TIP3    H114997   5.665   6.666   1.459
 5025TIP3    H214998   5.793   6.707   1.527
 5026TIP3   OH214999   4.808   4.942   2.045
 5026TIP3    H115000   4.776   4.910   1.960
 5026TIP3    H215001   4.796   4.867   2.104
 5027TIP3   OH215002   4.343   6.189   1.440
 5027TIP3    H115003   4.294   6.221   1.516
 5027TIP3    H215004   4.300   6.229   1.365
 5028TIP3   OH215005   4.521   6.767   2.479
 5028TIP3    H115006   4.601   6.742   2.525
 5028TIP3    H215007   4.498   6.690   2.426
 5029TIP3   OH215008   4.993   6.635   2.546
 5029TIP3    H115009   5.084   6.607   2.551
 5029TIP3    H215010   4.956   6.584   2.474
 5030TIP3   OH215011   4.906   6.182   0.610
 5030TIP3    H115012   4.939   6.167   0.699
 5030TIP3    H215013   4.982   6.166   0.554
 5031TIP3   OH215014   5.610   6.586   2.308
 5031TIP3    H115015   5.626   6.517   2.373
 5031TIP3    H215016   5.683   6.647   2.321
 5032TIP3   OH215017   5.390   6.263   0.605
 5032TIP3    H115018   5.461   6.199   0.600
 5032TIP3    H215019   5.412   6.329   0.539
 5033TIP3   OH215020   4.640   6.127   2.703
 5033TIP3    H115021   4.662   6.035   2.714
 5033TIP3    H215022   4.553   6.127   2.665
 5034TIP3   OH215023   4.623   5.751   0.897
 5034TIP3    H115024   4.668   5.716   0.974
 5034TIP3    H215025   4.692   5.787   0.842
 5035TIP3   OH215026   5.248   6.219   2.473
 5035TIP3    H115027   5.200   6.241   2.393
 5035TIP3    H215028   5.279   6.130   2.458
 5036TIP3   OH215029   5.108   6.008   0.753
 5036TIP3    H115030   5.049   6.010   0.828
 5036TIP3    H215031   5.119   5.915   0.733
 5037TIP3   OH215032   5.716   6.256   2.085
 5037TIP3    H115033   5.794   6.285   2.038
 5037TIP3    H215034   5.654   6.328   2.074
 5038TIP3   OH215035   4.762   5.871   2.714
 5038TIP3    H115036   4.843   5.854   2.667
 5038TIP3    H215037   4.791   5.899   2.801
 5039TIP3   OH215038   4.779   5.655   1.101
 5039TIP3    H115039   4.759   5.630   1.191
 5039TIP3    H215040   4.830   5.582   1.066
 5040TIP3   OH215041   5.102   5.772   2.366
 5040TIP3    H115042   5.012   5.804   2.368
 5040TIP3    H215043   5.135   5.799   2.281
 5041TIP3   OH215044   4.923   5.445   0.982
 5041TIP3    H115045   4.904   5.414   0.894
 5041TIP3    H215046   5.019   5.446   0.987
 5042TIP3   OH215047   5.602   6.137   2.449
 5042TIP3    H115048   5.672   6.103   2.393
 5042TIP3    H215049   5.601   6.079   2.525
 5043TIP3   OH215050   5.712   5.834   0.725
 5043TIP3    H115051   5.721   5.798   0.637
 5043TIP3    H215052   5.753   5.921   0.720
 5044TIP3   OH215053   5.207   5.544   2.486
 5044TIP3    H115054   5.214   5.473   2.422
 5044TIP3    H215055   5.175   5.618   2.436
 5045TIP3   OH215056   5.218   5.340   2.275
 5045TIP3    H115057   5.243   5.381   2.192
 5045TIP3    H215058   5.127   5.313   2.263
 5046TIP3   OH215059   5.226   5.877   2.147
 5046TIP3    H115060   5.312   5.912   2.121
 5046TIP3    H215061   5.163   5.926   2.094
 5047TIP3   OH215062   5.825   5.828   2.517
 5047TIP3    H115063   5.887   5.755   2.519
 5047TIP3    H215064   5.880   5.906   2.508
 5048TIP3   OH215065   5.847   6.084   2.249
 5048TIP3    H115066   5.792   6.144   2.199
 5048TIP3    H215067   5.936   6.101   2.217
 5049TIP3   OH215068   5.069   5.639   2.712
 5049TIP3    H115069   5.005   5.571   2.735
 5049TIP3    H215070   5.106   5.610   2.628
 5050TIP3   OH215071   5.341   5.109   2.372
 5050TIP3    H115072   5.298   5.188   2.340
 5050TIP3    H215073   5.276   5.039   2.361
 5051TIP3   OH215074   5.757   5.510   2.410
 5051TIP3    H115075   5.683   5.462   2.447
 5051TIP3    H215076   5.826   5.502   2.476
 5052TIP3   OH215077   5.952   5.493   2.604
 5052TIP3    H115078   5.967   5.399   2.615
 5052TIP3    H215079   5.941   5.527   2.692
 5053TIP3   OH215080   4.923   5.400   2.768
 5053TIP3    H115081   4.927   5.310   2.733
 5053TIP3    H215082   4.963   5.393   2.855
 5054TIP3   OH215083   5.427   5.090   2.633
 5054TIP3    H115084   5.490   5.019   2.624
 5054TIP3    H215085   5.389   5.099   2.546
 5055TIP3   OH215086   5.446   5.307   2.795
 5055TIP3    H115087   5.456   5.228   2.742
 5055TIP3    H215088   5.380   5.359   2.749
 5056TIP3   OH215089   4.687   6.487   0.917
 5056TIP3    H115090   4.769   6.536   0.914
 5056TIP3    H215091   4.628   6.535   0.859
 5057TIP3   OH215092   4.218   5.910   1.080
 5057TIP3    H115093   4.313   5.921   1.076
 5057TIP3    H215094   4.203   5.824   1.042
 5058TIP3   OH215095   4.135   6.508   1.539
 5058TIP3    H115096   4.069   6.453   1.496
 5058TIP3    H215097   4.181   6.447   1.597
 5059TIP3   OH215098   4.315   6.361   1.705
 5059TIP3    H115099   4.292   6.299   1.774
 5059TIP3    H215100   4.353   6.436   1.751
 5060TIP3   OH215101   5.935   6.810   1.534
 5060TIP3    H115102   5.957   6.811   1.627
 5060TIP3    H215103   6.019   6.817   1.489
 5061TIP3   OH215104   6.007   6.781   1.799
 5061TIP3    H115105   5.966   6.694   1.793
 5061TIP3    H215106   6.085   6.767   1.852
 5062TIP3   OH215107   6.084   6.476   2.355
 5062TIP3    H115108   6.008   6.487   2.413
 5062TIP3    H215109   6.129   6.560   2.358
 5063TIP3   OH215110   5.858   6.025   1.016
 5063TIP3    H115111   5.881   6.114   1.044
 5063TIP3    H215112   5.908   5.968   1.074
 5064TIP3   OH215113   5.992   5.866   1.188
 5064TIP3    H115114   5.939   5.806   1.240
 5064TIP3    H215115   6.066   5.888   1.246
 5065TIP3   OH215116   6.073   6.249   1.595
 5065TIP3    H115117   6.101   6.185   1.528
 5065TIP3    H215118   6.077   6.333   1.550
 5066TIP3   OH215119   5.874   6.538   1.797
 5066TIP3    H115120   5.805   6.585   1.845
 5066TIP3    H215121   5.828   6.497   1.724
 5067TIP3   OH215122   5.906   5.730   0.895
 5067TIP3    H115123   5.832   5.765   0.846
 5067TIP3    H215124   5.966   5.804   0.903
 5068TIP3   OH215125   5.709   5.467   0.848
 5068TIP3    H115126   5.789   5.494   0.804
 5068TIP3    H215127   5.723   5.376   0.871
 5069TIP3   OH215128   5.837   5.696   1.338
 5069TIP3    H115129   5.838   5.602   1.318
 5069TIP3    H215130   5.820   5.700   1.432
 5070TIP3   OH215131   4.444   5.786   2.059
 5070TIP3    H115132   4.437   5.748   1.971
 5070TIP3    H215133   4.538   5.788   2.077
 5071TIP3   OH215134   6.106   6.130   2.160
 5071TIP3    H115135   6.168   6.060   2.137
 5071TIP3    H215136   6.125   6.199   2.097
 5072TIP3   OH215137   6.272   5.908   2.145
 5072TIP3    H115138   6.201   5.874   2.200
 5072TIP3    H215139   6.346   5.850   2.162
 5073TIP3   OH215140   5.692   5.200   0.898
 5073TIP3    H115141   5.773   5.159   0.929
 5073TIP3    H215142   5.631   5.127   0.887
 5074TIP3   OH215143   5.819   5.432   1.219
 5074TIP3    H115144   5.859   5.347   1.234
 5074TIP3    H215145   5.865   5.468   1.143
 5075TIP3   OH215146   5.993   5.567   1.733
 5075TIP3    H115147   6.050   5.612   1.671
 5075TIP3    H215148   5.987   5.627   1.807
 5076TIP3   OH215149   6.024   5.758   1.938
 5076TIP3    H115150   5.953   5.789   1.995
 5076TIP3    H215151   6.059   5.838   1.899
 5077TIP3   OH215152   4.658   5.454   2.710
 5077TIP3    H115153   4.752   5.451   2.728
 5077TIP3    H215154   4.623   5.376   2.752
 5078TIP3   OH215155   6.504   5.350   2.473
 5078TIP3    H115156   6.571   5.293   2.436
 5078TIP3    H215157   6.465   5.394   2.397
 5079TIP3   OH215158   5.906   5.181   1.293
 5079TIP3    H115159   5.966   5.148   1.360
 5079TIP3    H215160   5.848   5.107   1.275
 5080TIP3   OH215161   4.643   5.165   2.047
 5080TIP3    H115162   4.696   5.087   2.059
 5080TIP3    H215163   4.707   5.236   2.038
 5081TIP3   OH215164   4.416   5.423   2.129
 5081TIP3    H115165   4.470   5.420   2.051
 5081TIP3    H215166   4.432   5.511   2.165
 5082TIP3   OH215167   6.355   5.446   2.267
 5082TIP3    H115168   6.269   5.487   2.283
 5082TIP3    H215169   6.336   5.371   2.211
 5083TIP3   OH215170   5.951   5.107   0.950
 5083TIP3    H115171   5.985   5.042   0.889
 5083TIP3    H215172   5.975   5.191   0.912
 5084TIP3   OH215173   4.407   4.949   1.632
 5084TIP3    H115174   4.320   4.934   1.670
 5084TIP3    H215175   4.389   5.000   1.552
 5085TIP3   OH215176   5.604   6.648   1.282
 5085TIP3    H115177   5.609   6.609   1.195
 5085TIP3    H215178   5.628   6.740   1.268
 5086TIP3   OH215179   4.628   5.000   2.454
 5086TIP3    H115180   4.577   4.994   2.535
 5086TIP3    H215181   4.572   5.050   2.394
 5087TIP3   OH215182   4.648   6.421   2.478
 5087TIP3    H115183   4.578   6.449   2.418
 5087TIP3    H215184   4.604   6.409   2.562
 5088TIP3   OH215185   4.871   6.501   2.056
 5088TIP3    H115186   4.822   6.580   2.032
 5088TIP3    H215187   4.954   6.508   2.010
 5089TIP3   OH215188   5.271   6.734   2.209
 5089TIP3    H115189   5.306   6.728   2.298
 5089TIP3    H215190   5.335   6.787   2.161
 5090TIP3   OH215191   5.467   6.887   2.088
 5090TIP3    H115192   5.532   6.838   2.038
 5090TIP3    H215193   5.518   6.947   2.142
 5091TIP3   OH215194   6.268   5.192   2.163
 5091TIP3    H115195   6.180   5.164   2.137
 5091TIP3    H215196   6.321   5.112   2.162
 5092TIP3   OH215197   4.502   6.729   2.047
 5092TIP3    H115198   4.416   6.772   2.045
 5092TIP3    H215199   4.500   6.676   2.127
 5093TIP3   OH215200   4.763   6.741   1.965
 5093TIP3    H115201   4.676   6.745   2.005
 5093TIP3    H215202   4.749   6.768   1.874
 5094TIP3   OH215203   5.185   6.749   1.766
 5094TIP3    H115204   5.106   6.760   1.713
 5094TIP3    H215205   5.196   6.832   1.811
 5095TIP3   OH215206   5.445   6.678   1.812
 5095TIP3    H115207   5.354   6.704   1.796
 5095TIP3    H215208   5.497   6.747   1.771
 5096TIP3   OH215209   5.646   6.858   1.733
 5096TIP3    H115210   5.631   6.946   1.699
 5096TIP3    H215211   5.661   6.805   1.655
 5097TIP3   OH215212   4.479   6.531   1.857
 5097TIP3    H115213   4.480   6.605   1.918
 5097TIP3    H215214   4.511   6.457   1.909
 5098TIP3   OH215215   5.417   5.101   1.763
 5098TIP3    H115216   5.394   5.050   1.840
 5098TIP3    H215217   5.513   5.096   1.759
 5099TIP3   OH215218   5.967   5.194   1.722
 5099TIP3    H115219   6.012   5.155   1.647
 5099TIP3    H215220   5.884   5.148   1.727
 5100TIP3   OH215221   6.092   5.112   1.493
 5100TIP3    H115222   6.156   5.054   1.453
 5100TIP3    H215223   6.127   5.200   1.478
 5101TIP3   OH215224   4.714   4.843   1.804
 5101TIP3    H115225   4.624   4.810   1.815
 5101TIP3    H215226   4.767   4.764   1.794
 5102TIP3   OH215227   4.534   4.754   1.465
 5102TIP3    H115228   4.559   4.802   1.387
 5102TIP3    H215229   4.497   4.820   1.524
 5103TIP3   OH215230   5.176   4.875   1.709
 5103TIP3    H115231   5.216   4.925   1.638
 5103TIP3    H215232   5.217   4.910   1.788
 5104TIP3   OH215233   5.724   5.038   1.691
 5104TIP3    H115234   5.732   4.998   1.604
 5104TIP3    H215235   5.712   4.964   1.750
 5105TIP3   OH215236   5.728   4.973   1.281
 5105TIP3    H115237   5.648   5.021   1.303
 5105TIP3    H215238   5.712   4.884   1.314
 5106TIP3   OH215239   4.202   6.302   1.235
 5106TIP3    H115240   4.112   6.272   1.220
 5106TIP3    H215241   4.200   6.396   1.218
 5107TIP3   OH215242   4.640   4.879   1.229
 5107TIP3    H115243   4.686   4.820   1.170
 5107TIP3    H215244   4.709   4.934   1.266
 5108TIP3   OH215245   5.122   5.079   1.332
 5108TIP3    H115246   5.178   5.026   1.388
 5108TIP3    H215247   5.141   5.169   1.358
 5109TIP3   OH215248   4.951   6.577   0.926
 5109TIP3    H115249   5.024   6.631   0.895
 5109TIP3    H215250   4.974   6.488   0.898
 5110TIP3   OH215251   5.618   6.578   1.024
 5110TIP3    H115252   5.611   6.509   0.958
 5110TIP3    H215253   5.615   6.659   0.974
 5111TIP3   OH215254   4.944   5.124   2.697
 5111TIP3    H115255   4.907   5.055   2.752
 5111TIP3    H215256   5.035   5.130   2.724
 5112TIP3   OH215257   5.192   5.124   2.825
 5112TIP3    H115258   5.268   5.091   2.776
 5112TIP3    H215259   5.175   5.056   2.890
 5113TIP3   OH215260   4.252   6.244   0.966
 5113TIP3    H115261   4.249   6.258   1.061
 5113TIP3    H215262   4.342   6.217   0.949
 5114TIP3   OH215263   6.009   5.220   2.601
 5114TIP3    H115264   6.025   5.187   2.689
 5114TIP3    H215265   6.095   5.214   2.558
 5115TIP3   OH215266   5.925   6.751   2.110
 5115TIP3    H115267   5.851   6.721   2.057
 5115TIP3    H215268   5.915   6.846   2.114
 5116TIP3   OH215269   7.266   6.070   0.994
 5116TIP3    H115270   7.236   6.160   1.004
 5116TIP3    H215271   7.286   6.060   0.901
 5117TIP3   OH215272   7.218   6.101   1.280
 5117TIP3    H115273   7.207   6.067   1.369
 5117TIP3    H215274   7.251   6.027   1.230
 5118TIP3   OH215275   6.511   5.972   1.629
 5118TIP3    H115276   6.533   5.915   1.702
 5118TIP3    H215277   6.595   6.005   1.598
 5119TIP3   OH215278   7.551   6.457   0.958
 5119TIP3    H115279   7.540   6.365   0.934
 5119TIP3    H215280   7.463   6.484   0.986
 5120TIP3   OH215281   6.425   6.396   1.448
 5120TIP3    H115282   6.432   6.302   1.434
 5120TIP3    H215283   6.508   6.420   1.490
 5121TIP3   OH215284   6.180   5.586   1.160
 5121TIP3    H115285   6.187   5.680   1.148
 5121TIP3    H215286   6.096   5.562   1.121
 5122TIP3   OH215287   6.229   5.906   1.328
 5122TIP3    H115288   6.284   5.838   1.367
 5122TIP3    H215289   6.256   5.908   1.236
 5123TIP3   OH215290   7.142   6.996   0.803
 5123TIP3    H115291   7.191   6.934   0.857
 5123TIP3    H215292   7.148   7.079   0.850
 5124TIP3   OH215293   7.034   6.331   1.332
 5124TIP3    H115294   7.047   6.267   1.262
 5124TIP3    H215295   7.120   6.340   1.372
 5125TIP3   OH215296   8.034   5.679   1.336
 5125TIP3    H115297   8.052   5.748   1.399
 5125TIP3    H215298   8.051   5.718   1.251
 5126TIP3   OH215299   7.413   5.860   1.385
 5126TIP3    H115300   7.443   5.772   1.404
 5126TIP3    H215301   7.379   5.855   1.295
 5127TIP3   OH215302   6.788   5.488   1.308
 5127TIP3    H115303   6.754   5.565   1.263
 5127TIP3    H215304   6.722   5.421   1.294
 5128TIP3   OH215305   7.485   5.659   0.865
 5128TIP3    H115306   7.492   5.649   0.960
 5128TIP3    H215307   7.567   5.622   0.831
 5129TIP3   OH215308   6.390   5.705   1.423
 5129TIP3    H115309   6.475   5.698   1.465
 5129TIP3    H215310   6.402   5.664   1.337
 5130TIP3   OH215311   6.813   5.934   1.260
 5130TIP3    H115312   6.901   5.904   1.282
 5130TIP3    H215313   6.765   5.854   1.238
 5131TIP3   OH215314   8.063   5.885   1.513
 5131TIP3    H115315   8.023   5.964   1.476
 5131TIP3    H215316   8.145   5.916   1.552
 5132TIP3   OH215317   6.754   5.494   1.729
 5132TIP3    H115318   6.703   5.539   1.662
 5132TIP3    H215319   6.703   5.506   1.810
 5133TIP3   OH215320   6.852   6.293   1.535
 5133TIP3    H115321   6.789   6.364   1.546
 5133TIP3    H215322   6.911   6.325   1.466
 5134TIP3   OH215323   7.553   5.715   1.136
 5134TIP3    H115324   7.520   5.657   1.204
 5134TIP3    H215325   7.640   5.741   1.168
 5135TIP3   OH215326   6.638   5.613   1.510
 5135TIP3    H115327   6.689   5.690   1.536
 5135TIP3    H215328   6.692   5.569   1.444
 5136TIP3   OH215329   6.660   6.486   1.588
 5136TIP3    H115330   6.657   6.581   1.571
 5136TIP3    H215331   6.598   6.473   1.660
 5137TIP3   OH215332   6.104   6.189   0.962
 5137TIP3    H115333   6.097   6.258   0.895
 5137TIP3    H215334   6.194   6.194   0.991
 5138TIP3   OH215335   7.469   6.754   1.167
 5138TIP3    H115336   7.394   6.803   1.199
 5138TIP3    H215337   7.497   6.802   1.089
 5139TIP3   OH215338   7.839   5.553   1.482
 5139TIP3    H115339   7.798   5.624   1.532
 5139TIP3    H215340   7.908   5.597   1.433
 5140TIP3   OH215341   7.086   5.188   1.470
 5140TIP3    H115342   7.082   5.097   1.498
 5140TIP3    H215343   7.009   5.229   1.510
 5141TIP3   OH215344   7.758   6.564   1.463
 5141TIP3    H115345   7.758   6.486   1.408
 5141TIP3    H215346   7.722   6.633   1.408
 5142TIP3   OH215347   7.975   6.327   1.243
 5142TIP3    H115348   7.957   6.276   1.322
 5142TIP3    H215349   7.894   6.321   1.192
 5143TIP3   OH215350   7.602   6.081   1.659
 5143TIP3    H115351   7.603   6.161   1.712
 5143TIP3    H215352   7.551   6.104   1.582
 5144TIP3   OH215353   6.550   5.990   1.171
 5144TIP3    H115354   6.557   5.987   1.075
 5144TIP3    H215355   6.640   6.002   1.201
 5145TIP3   OH215356   6.811   6.460   1.245
 5145TIP3    H115357   6.809   6.413   1.161
 5145TIP3    H215358   6.890   6.426   1.289
 5146TIP3   OH215359   6.740   6.048   1.500
 5146TIP3    H115360   6.761   6.026   1.409
 5146TIP3    H215361   6.775   6.136   1.512
 5147TIP3   OH215362   7.236   6.603   1.307
 5147TIP3    H115363   7.276   6.652   1.379
 5147TIP3    H215364   7.235   6.512   1.338
 5148TIP3   OH215365   6.869   6.561   1.780
 5148TIP3    H115366   6.808   6.613   1.832
 5148TIP3    H215367   6.816   6.528   1.707
 5149TIP3   OH215368   6.643   6.136   1.913
 5149TIP3    H115369   6.644   6.230   1.930
 5149TIP3    H215370   6.551   6.114   1.899
 5150TIP3   OH215371   7.012   6.771   0.696
 5150TIP3    H115372   7.086   6.826   0.722
 5150TIP3    H215373   6.977   6.815   0.618
 5151TIP3   OH215374   6.677   6.717   1.901
 5151TIP3    H115375   6.654   6.741   1.811
 5151TIP3    H215376   6.592   6.710   1.945
 5152TIP3   OH215377   6.523   5.877   0.896
 5152TIP3    H115378   6.468   5.922   0.832
 5152TIP3    H215379   6.514   5.784   0.874
 5153TIP3   OH215380   6.273   6.294   1.789
 5153TIP3    H115381   6.206   6.276   1.722
 5153TIP3    H215382   6.306   6.208   1.814
 5154TIP3   OH215383   6.171   6.491   1.489
 5154TIP3    H115384   6.255   6.449   1.469
 5154TIP3    H215385   6.193   6.561   1.550
 5155TIP3   OH215386   8.011   7.000   1.591
 5155TIP3    H115387   7.940   6.939   1.572
 5155TIP3    H215388   7.974   7.060   1.657
 5156TIP3   OH215389   7.088   6.700   1.689
 5156TIP3    H115390   7.078   6.792   1.712
 5156TIP3    H215391   7.010   6.658   1.727
 5157TIP3   OH215392   6.381   6.655   0.974
 5157TIP3    H115393   6.419   6.627   1.057
 5157TIP3    H215394   6.292   6.619   0.975
 5158TIP3   OH215395   7.845   6.043   1.794
 5158TIP3    H115396   7.765   6.034   1.743
 5158TIP3    H215397   7.866   5.954   1.822
 5159TIP3   OH215398   6.475   6.479   1.784
 5159TIP3    H115399   6.523   6.461   1.865
 5159TIP3    H215400   6.403   6.416   1.785
 5160TIP3   OH215401   6.851   5.282   1.580
 5160TIP3    H115402   6.766   5.250   1.550
 5160TIP3    H215403   6.832   5.365   1.624
 5161TIP3   OH215404   7.401   5.403   1.785
 5161TIP3    H115405   7.474   5.378   1.843
 5161TIP3    H215406   7.323   5.380   1.834
 5162TIP3   OH215407   7.614   5.815   1.702
 5162TIP3    H115408   7.578   5.795   1.788
 5162TIP3    H215409   7.589   5.905   1.685
 5163TIP3   OH215410   7.068   5.423   0.587
 5163TIP3    H115411   7.055   5.365   0.662
 5163TIP3    H215412   6.986   5.417   0.538
 5164TIP3   OH215413   6.801   5.807   1.607
 5164TIP3    H115414   6.762   5.815   1.694
 5164TIP3    H215415   6.790   5.894   1.568
 5165TIP3   OH215416   6.688   5.703   1.184
 5165TIP3    H115417   6.596   5.679   1.175
 5165TIP3    H215418   6.717   5.722   1.095
 5166TIP3   OH215419   7.179   5.776   0.873
 5166TIP3    H115420   7.168   5.852   0.816
 5166TIP3    H215421   7.243   5.721   0.828
 5167TIP3   OH215422   7.357   6.040   1.919
 5167TIP3    H115423   7.327   5.976   1.984
 5167TIP3    H215424   7.451   6.049   1.935
 5168TIP3   OH215425   7.278   5.837   1.148
 5168TIP3    H115426   7.266   5.891   1.070
 5168TIP3    H215427   7.298   5.750   1.113
 5169TIP3   OH215428   6.626   5.804   1.828
 5169TIP3    H115429   6.678   5.863   1.883
 5169TIP3    H215430   6.611   5.727   1.882
 5170TIP3   OH215431   6.550   5.364   0.454
 5170TIP3    H115432   6.558   5.303   0.528
 5170TIP3    H215433   6.456   5.378   0.445
 5171TIP3   OH215434   6.195   5.358   1.446
 5171TIP3    H115435   6.277   5.398   1.476
 5171TIP3    H215436   6.203   5.354   1.351
 5172TIP3   OH215437   6.220   5.349   0.969
 5172TIP3    H115438   6.316   5.353   0.970
 5172TIP3    H215439   6.193   5.440   0.979
 5173TIP3   OH215440   7.238   6.008   1.535
 5173TIP3    H115441   7.308   5.962   1.489
 5173TIP3    H215442   7.231   5.962   1.619
 5174TIP3   OH215443   7.056   5.544   1.238
 5174TIP3    H115444   6.972   5.533   1.282
 5174TIP3    H215445   7.120   5.510   1.301
 5175TIP3   OH215446   6.446   5.562   1.195
 5175TIP3    H115447   6.352   5.556   1.180
 5175TIP3    H215448   6.474   5.471   1.209
 5176TIP3   OH215449   6.781   5.555   0.752
 5176TIP3    H115450   6.765   5.582   0.842
 5176TIP3    H215451   6.770   5.635   0.700
 5177TIP3   OH215452   7.460   5.585   1.372
 5177TIP3    H115453   7.442   5.589   1.466
 5177TIP3    H215454   7.403   5.515   1.340
 5178TIP3   OH215455   6.479   5.704   0.671
 5178TIP3    H115456   6.494   5.623   0.720
 5178TIP3    H215457   6.509   5.684   0.582
 5179TIP3   OH215458   7.740   7.339   1.600
 5179TIP3    H115459   7.728   7.324   1.506
 5179TIP3    H215460   7.771   7.430   1.606
 5180TIP3   OH215461   6.625   6.397   2.008
 5180TIP3    H115462   6.707   6.421   2.053
 5180TIP3    H215463   6.558   6.407   2.075
 5181TIP3   OH215464   7.060   5.847   1.314
 5181TIP3    H115465   7.135   5.826   1.258
 5181TIP3    H215466   7.073   5.797   1.394
 5182TIP3   OH215467   6.579   5.322   1.237
 5182TIP3    H115468   6.551   5.236   1.266
 5182TIP3    H215469   6.580   5.316   1.141
 5183TIP3   OH215470   7.061   5.729   1.563
 5183TIP3    H115471   6.973   5.765   1.579
 5183TIP3    H215472   7.118   5.778   1.622
 5184TIP3   OH215473   6.766   6.108   0.701
 5184TIP3    H115474   6.680   6.149   0.707
 5184TIP3    H215475   6.827   6.181   0.695
 5185TIP3   OH215476   7.678   6.317   1.353
 5185TIP3    H115477   7.628   6.389   1.316
 5185TIP3    H215478   7.611   6.256   1.385
 5186TIP3   OH215479   7.204   6.436   1.707
 5186TIP3    H115480   7.256   6.426   1.787
 5186TIP3    H215481   7.171   6.526   1.710
 5187TIP3   OH215482   6.451   6.129   1.402
 5187TIP3    H115483   6.477   6.093   1.318
 5187TIP3    H215484   6.477   6.062   1.466
 5188TIP3   OH215485   6.370   6.070   1.929
 5188TIP3    H115486   6.384   6.048   2.021
 5188TIP3    H215487   6.291   6.022   1.903
 5189TIP3   OH215488   7.132   6.203   1.927
 5189TIP3    H115489   7.084   6.184   1.846
 5189TIP3    H215490   7.215   6.157   1.917
 5190TIP3   OH215491   7.329   6.688   1.555
 5190TIP3    H115492   7.248   6.689   1.606
 5190TIP3    H215493   7.363   6.777   1.560
 5191TIP3   OH215494   7.988   6.634   1.654
 5191TIP3    H115495   7.937   6.692   1.710
 5191TIP3    H215496   7.967   6.661   1.565
 5192TIP3   OH215497   7.393   6.283   1.168
 5192TIP3    H115498   7.316   6.241   1.207
 5192TIP3    H215499   7.456   6.211   1.158
 5193TIP3   OH215500   6.575   6.442   0.974
 5193TIP3    H115501   6.610   6.531   0.982
 5193TIP3    H215502   6.495   6.452   0.923
 5194TIP3   OH215503   6.081   5.806   0.619
 5194TIP3    H115504   6.157   5.852   0.584
 5194TIP3    H215505   6.072   5.838   0.709
 5195TIP3   OH215506   6.818   6.324   1.012
 5195TIP3    H115507   6.741   6.361   0.970
 5195TIP3    H215508   6.804   6.229   1.010
 5196TIP3   OH215509   6.885   6.701   1.488
 5196TIP3    H115510   6.899   6.755   1.411
 5196TIP3    H215511   6.969   6.702   1.534
 5197TIP3   OH215512   6.545   6.661   0.755
 5197TIP3    H115513   6.483   6.681   0.824
 5197TIP3    H215514   6.580   6.746   0.728
 5198TIP3   OH215515   7.280   6.369   1.454
 5198TIP3    H115516   7.246   6.383   1.543
 5198TIP3    H215517   7.371   6.397   1.458
 5199TIP3   OH215518   7.404   6.943   1.511
 5199TIP3    H115519   7.361   6.962   1.428
 5199TIP3    H215520   7.480   7.002   1.513
 5200TIP3   OH215521   6.606   5.539   1.957
 5200TIP3    H115522   6.525   5.488   1.956
 5200TIP3    H215523   6.655   5.503   2.031
 5201TIP3   OH215524   6.329   6.679   1.641
 5201TIP3    H115525   6.384   6.618   1.689
 5201TIP3    H215526   6.350   6.765   1.678
 5202TIP3   OH215527   6.324   6.005   0.746
 5202TIP3    H115528   6.342   6.064   0.819
 5202TIP3    H215529   6.332   6.059   0.668
 5203TIP3   OH215530   7.413   5.633   1.639
 5203TIP3    H115531   7.494   5.677   1.664
 5203TIP3    H215532   7.410   5.554   1.693
 5204TIP3   OH215533   7.218   5.475   0.818
 5204TIP3    H115534   7.184   5.486   0.729
 5204TIP3    H215535   7.308   5.445   0.806
 5205TIP3   OH215536   6.996   5.601   0.973
 5205TIP3    H115537   7.057   5.668   0.941
 5205TIP3    H215538   6.997   5.611   1.068
 5206TIP3   OH215539   7.243   5.836   1.743
 5206TIP3    H115540   7.287   5.888   1.811
 5206TIP3    H215541   7.303   5.764   1.725
 5207TIP3   OH215542   7.100   5.314   1.082
 5207TIP3    H115543   7.101   5.400   1.124
 5207TIP3    H215544   7.184   5.307   1.038
 5208TIP3   OH215545   6.685   5.295   0.726
 5208TIP3    H115546   6.698   5.388   0.745
 5208TIP3    H215547   6.727   5.249   0.798
 5209TIP3   OH215548   7.880   5.759   1.692
 5209TIP3    H115549   7.787   5.780   1.691
 5209TIP3    H215550   7.918   5.813   1.623
 5210TIP3   OH215551   7.554   6.055   1.186
 5210TIP3    H115552   7.520   6.013   1.107
 5210TIP3    H215553   7.630   6.003   1.211
 5211TIP3   OH215554   6.153   5.530   0.668
 5211TIP3    H115555   6.196   5.576   0.597
 5211TIP3    H215556   6.063   5.563   0.668
 5212TIP3   OH215557   7.504   6.942   0.972
 5212TIP3    H115558   7.472   6.963   0.884
 5212TIP3    H215559   7.588   6.899   0.958
 5213TIP3   OH215560   6.587   5.199   1.557
 5213TIP3    H115561   6.556   5.163   1.474
 5213TIP3    H215562   6.582   5.127   1.618
 5214TIP3   OH215563   6.161   6.487   1.029
 5214TIP3    H115564   6.117   6.518   1.108
 5214TIP3    H215565   6.090   6.473   0.966
 5215TIP3   OH215566   6.327   6.996   2.001
 5215TIP3    H115567   6.409   6.998   2.050
 5215TIP3    H215568   6.316   6.903   1.978
 5216TIP3   OH215569   6.797   6.902   2.063
 5216TIP3    H115570   6.891   6.886   2.052
 5216TIP3    H215571   6.755   6.838   2.005
 5217TIP3   OH215572   7.391   6.844   1.822
 5217TIP3    H115573   7.410   6.765   1.872
 5217TIP3    H215574   7.469   6.899   1.834
 5218TIP3   OH215575   6.416   6.389   2.191
 5218TIP3    H115576   6.432   6.295   2.200
 5218TIP3    H215577   6.330   6.394   2.149
 5219TIP3   OH215578   7.046   6.469   1.967
 5219TIP3    H115579   6.993   6.485   1.889
 5219TIP3    H215580   7.087   6.384   1.951
 5220TIP3   OH215581   7.513   6.486   1.582
 5220TIP3    H115582   7.591   6.519   1.537
 5220TIP3    H215583   7.450   6.557   1.578
 5221TIP3   OH215584   6.531   6.129   2.189
 5221TIP3    H115585   6.603   6.125   2.127
 5221TIP3    H215586   6.573   6.154   2.272
 5222TIP3   OH215587   6.543   5.957   0.533
 5222TIP3    H115588   6.518   5.882   0.587
 5222TIP3    H215589   6.634   5.941   0.510
 5223TIP3   OH215590   6.859   5.981   1.843
 5223TIP3    H115591   6.792   6.045   1.869
 5223TIP3    H215592   6.917   6.030   1.785
 5224TIP3   OH215593   7.392   6.391   1.935
 5224TIP3    H115594   7.466   6.363   1.882
 5224TIP3    H215595   7.392   6.332   2.010
 5225TIP3   OH215596   7.001   5.783   1.968
 5225TIP3    H115597   7.010   5.708   1.909
 5225TIP3    H215598   6.960   5.850   1.915
 5226TIP3   OH215599   7.011   5.569   1.782
 5226TIP3    H115600   7.042   5.607   1.700
 5226TIP3    H215601   6.920   5.545   1.764
 5227TIP3   OH215602   7.023   6.130   1.680
 5227TIP3    H115603   7.094   6.108   1.619
 5227TIP3    H215604   6.969   6.193   1.632
 5228TIP3   OH215605   7.625   6.059   2.010
 5228TIP3    H115606   7.662   5.974   2.034
 5228TIP3    H215607   7.698   6.106   1.970
 5229TIP3   OH215608   7.626   6.334   1.775
 5229TIP3    H115609   7.576   6.385   1.711
 5229TIP3    H215610   7.717   6.343   1.748
 5230TIP3   OH215611   6.888   5.875   2.206
 5230TIP3    H115612   6.817   5.814   2.224
 5230TIP3    H215613   6.918   5.852   2.118
 5231TIP3   OH215614   7.137   5.339   1.861
 5231TIP3    H115615   7.097   5.422   1.834
 5231TIP3    H215616   7.069   5.274   1.847
 5232TIP3   OH215617   7.259   5.830   2.065
 5232TIP3    H115618   7.246   5.817   2.159
 5232TIP3    H215619   7.174   5.812   2.026
 5233TIP3   OH215620   7.497   5.762   1.937
 5233TIP3    H115621   7.420   5.771   1.992
 5233TIP3    H215622   7.569   5.750   1.999
 5234TIP3   OH215623   7.734   5.754   2.084
 5234TIP3    H115624   7.747   5.660   2.090
 5234TIP3    H215625   7.732   5.783   2.176
 5235TIP3   OH215626   6.713   5.661   2.268
 5235TIP3    H115627   6.723   5.573   2.233
 5235TIP3    H215628   6.751   5.657   2.356
 5236TIP3   OH215629   7.201   5.335   2.126
 5236TIP3    H115630   7.271   5.270   2.123
 5236TIP3    H215631   7.171   5.342   2.036
 5237TIP3   OH215632   7.297   5.552   2.266
 5237TIP3    H115633   7.267   5.480   2.212
 5237TIP3    H215634   7.224   5.614   2.267
 5238TIP3   OH215635   6.087   6.175   0.597
 5238TIP3    H115636   6.177   6.193   0.572
 5238TIP3    H215637   6.049   6.134   0.519
 5239TIP3   OH215638   5.941   6.811   1.140
 5239TIP3    H115639   5.998   6.814   1.062
 5239TIP3    H215640   5.956   6.725   1.178
 5240TIP3   OH215641   6.021   6.573   1.252
 5240TIP3    H115642   6.017   6.498   1.311
 5240TIP3    H215643   6.092   6.628   1.287
 5241TIP3   OH215644   7.826   6.999   1.326
 5241TIP3    H115645   7.808   6.906   1.336
 5241TIP3    H215646   7.922   7.004   1.318
 5242TIP3   OH215647   7.865   6.761   1.860
 5242TIP3    H115648   7.798   6.759   1.929
 5242TIP3    H215649   7.913   6.842   1.874
 5243TIP3   OH215650   7.842   6.510   0.884
 5243TIP3    H115651   7.927   6.467   0.893
 5243TIP3    H215652   7.863   6.603   0.884
 5244TIP3   OH215653   7.614   6.793   1.390
 5244TIP3    H115654   7.540   6.839   1.430
 5244TIP3    H215655   7.585   6.772   1.302
 5245TIP3   OH215656   7.770   5.980   0.869
 5245TIP3    H115657   7.768   5.939   0.783
 5245TIP3    H215658   7.678   5.978   0.898
 5246TIP3   OH215659   6.239   5.995   1.585
 5246TIP3    H115660   6.230   5.989   1.490
 5246TIP3    H215661   6.333   6.000   1.600
 5247TIP3   OH215662   7.884   6.380   1.699
 5247TIP3    H115663   7.962   6.326   1.713
 5247TIP3    H215664   7.916   6.457   1.651
 5248TIP3   OH215665   8.068   6.190   1.751
 5248TIP3    H115666   7.991   6.134   1.758
 5248TIP3    H215667   8.140   6.130   1.732
 5249TIP3   OH215668   7.778   5.877   1.210
 5249TIP3    H115669   7.845   5.936   1.176
 5249TIP3    H215670   7.787   5.884   1.306
 5250TIP3   OH215671   7.781   5.944   1.472
 5250TIP3    H115672   7.700   5.953   1.524
 5250TIP3    H215673   7.821   6.031   1.476
 5251TIP3   OH215674   6.448   5.698   2.185
 5251TIP3    H115675   6.541   5.703   2.206
 5251TIP3    H215676   6.420   5.615   2.221
 5252TIP3   OH215677   8.282   5.590   1.963
 5252TIP3    H115678   8.366   5.560   1.927
 5252TIP3    H215679   8.247   5.650   1.898
 5253TIP3   OH215680   7.690   5.541   0.722
 5253TIP3    H115681   7.714   5.501   0.806
 5253TIP3    H215682   7.731   5.485   0.656
 5254TIP3   OH215683   6.433   5.428   1.579
 5254TIP3    H115684   6.488   5.350   1.573
 5254TIP3    H215685   6.491   5.500   1.554
 5255TIP3   OH215686   6.182   5.718   1.607
 5255TIP3    H115687   6.249   5.695   1.543
 5255TIP3    H215688   6.184   5.814   1.610
 5256TIP3   OH215689   8.144   5.725   1.776
 5256TIP3    H115690   8.058   5.763   1.796
 5256TIP3    H215691   8.124   5.652   1.717
 5257TIP3   OH215692   6.173   5.204   1.191
 5257TIP3    H115693   6.079   5.192   1.197
 5257TIP3    H215694   6.185   5.258   1.113
 5258TIP3   OH215695   6.426   5.305   1.956
 5258TIP3    H115696   6.373   5.264   2.024
 5258TIP3    H215697   6.366   5.317   1.882
 5259TIP3   OH215698   6.441   6.712   2.043
 5259TIP3    H115699   6.349   6.693   2.025
 5259TIP3    H215700   6.450   6.700   2.137
 5260TIP3   OH215701   6.660   6.763   1.632
 5260TIP3    H115702   6.613   6.832   1.586
 5260TIP3    H215703   6.744   6.756   1.586
 5261TIP3   OH215704   7.049   6.969   1.759
 5261TIP3    H115705   7.115   6.994   1.824
 5261TIP3    H215706   7.084   7.002   1.676
 5262TIP3   OH215707   7.266   7.143   1.664
 5262TIP3    H115708   7.309   7.064   1.628
 5262TIP3    H215709   7.339   7.200   1.688
 5263TIP3   OH215710   8.056   5.489   1.654
 5263TIP3    H115711   7.972   5.501   1.610
 5263TIP3    H215712   8.076   5.396   1.642
 5264TIP3   OH215713   6.323   6.982   1.668
 5264TIP3    H115714   6.239   6.993   1.623
 5264TIP3    H215715   6.336   7.065   1.714
 5265TIP3   OH215716   6.540   6.970   1.503
 5265TIP3    H115717   6.468   6.981   1.565
 5265TIP3    H215718   6.498   6.965   1.417
 5266TIP3   OH215719   6.964   7.063   1.178
 5266TIP3    H115720   6.949   7.043   1.085
 5266TIP3    H215721   6.923   7.149   1.190
 5267TIP3   OH215722   7.274   6.919   1.254
 5267TIP3    H115723   7.189   6.874   1.257
 5267TIP3    H215724   7.256   7.007   1.288
 5268TIP3   OH215725   7.537   7.114   1.199
 5268TIP3    H115726   7.478   7.188   1.184
 5268TIP3    H215727   7.518   7.053   1.127
 5269TIP3   OH215728   6.191   6.822   1.449
 5269TIP3    H115729   6.249   6.773   1.507
 5269TIP3    H215730   6.224   6.804   1.361
 5270TIP3   OH215731   6.418   6.568   1.234
 5270TIP3    H115732   6.405   6.502   1.303
 5270TIP3    H215733   6.497   6.615   1.261
 5271TIP3   OH215734   6.711   6.670   1.050
 5271TIP3    H115735   6.714   6.650   1.144
 5271TIP3    H215736   6.793   6.716   1.033
 5272TIP3   OH215737   7.250   5.385   1.348
 5272TIP3    H115738   7.198   5.313   1.383
 5272TIP3    H215739   7.316   5.343   1.293
 5273TIP3   OH215740   7.783   5.254   1.198
 5273TIP3    H115741   7.859   5.301   1.163
 5273TIP3    H215742   7.725   5.322   1.230
 5274TIP3   OH215743   7.982   5.399   1.084
 5274TIP3    H115744   8.035   5.325   1.055
 5274TIP3    H215745   7.999   5.468   1.019
 5275TIP3   OH215746   6.495   5.077   1.332
 5275TIP3    H115747   6.406   5.044   1.327
 5275TIP3    H215748   6.550   5.003   1.307
 5276TIP3   OH215749   6.349   5.016   1.066
 5276TIP3    H115750   6.334   5.045   0.976
 5276TIP3    H215751   6.297   5.075   1.119
 5277TIP3   OH215752   6.945   5.150   1.226
 5277TIP3    H115753   7.000   5.209   1.174
 5277TIP3    H215754   6.980   5.157   1.315
 5278TIP3   OH215755   7.451   5.265   1.209
 5278TIP3    H115756   7.480   5.229   1.125
 5278TIP3    H215757   7.466   5.193   1.271
 5279TIP3   OH215758   7.513   5.117   0.734
 5279TIP3    H115759   7.456   5.062   0.680
 5279TIP3    H215760   7.508   5.078   0.821
 5280TIP3   OH215761   5.938   6.540   0.540
 5280TIP3    H115762   5.977   6.473   0.596
 5280TIP3    H215763   5.947   6.621   0.590
 5281TIP3   OH215764   6.456   5.168   0.636
 5281TIP3    H115765   6.392   5.139   0.702
 5281TIP3    H215766   6.537   5.182   0.686
 5282TIP3   OH215767   6.956   5.354   0.833
 5282TIP3    H115768   7.035   5.387   0.876
 5282TIP3    H215769   6.912   5.432   0.800
 5283TIP3   OH215770   6.737   5.394   2.171
 5283TIP3    H115771   6.702   5.329   2.231
 5283TIP3    H215772   6.830   5.401   2.195
 5284TIP3   OH215773   6.983   5.391   2.295
 5284TIP3    H115774   7.061   5.370   2.245
 5284TIP3    H215775   6.978   5.324   2.362
 5285TIP3   OH215776   7.794   5.484   2.091
 5285TIP3    H115777   7.817   5.454   2.179
 5285TIP3    H215778   7.876   5.482   2.043
 5286TIP3   OH215779   7.776   7.087   1.729
 5286TIP3    H115780   7.755   7.021   1.663
 5286TIP3    H215781   7.762   7.171   1.685
 5287TIP3   OH215782   8.497   6.353   1.185
 5287TIP3    H115783   8.402   6.370   1.186
 5287TIP3    H215784   8.517   6.341   1.092
 5288TIP3   OH215785   8.236   6.417   1.246
 5288TIP3    H115786   8.143   6.397   1.237
 5288TIP3    H215787   8.252   6.417   1.340
 5289TIP3   OH215788   8.291   6.670   1.118
 5289TIP3    H115789   8.326   6.691   1.204
 5289TIP3    H215790   8.227   6.601   1.134
 5290TIP3   OH215791   8.389   5.999   1.273
 5290TIP3    H115792   8.477   6.034   1.287
 5290TIP3    H215793   8.376   5.935   1.343
 5291TIP3   OH215794   7.980   5.588   0.672
 5291TIP3    H115795   8.012   5.611   0.759
 5291TIP3    H215796   8.057   5.596   0.616
 5292TIP3   OH215797   8.109   6.392   1.509
 5292TIP3    H115798   8.173   6.407   1.579
 5292TIP3    H215799   8.127   6.302   1.480
 5293TIP3   OH215800   8.348   5.825   1.479
 5293TIP3    H115801   8.306   5.761   1.537
 5293TIP3    H215802   8.412   5.774   1.429
 5294TIP3   OH215803   8.567   5.445   1.113
 5294TIP3    H115804   8.591   5.465   1.023
 5294TIP3    H215805   8.472   5.433   1.110
 5295TIP3   OH215806   8.248   6.679   1.705
 5295TIP3    H115807   8.291   6.594   1.697
 5295TIP3    H215808   8.155   6.660   1.693
 5296TIP3   OH215809   8.330   6.423   1.669
 5296TIP3    H115810   8.387   6.376   1.608
 5296TIP3    H215811   8.365   6.403   1.756
 5297TIP3   OH215812   8.504   5.915   1.771
 5297TIP3    H115813   8.514   5.842   1.710
 5297TIP3    H215814   8.559   5.891   1.846
 5298TIP3   OH215815   8.059   6.358   0.931
 5298TIP3    H115816   8.021   6.300   0.865
 5298TIP3    H215817   8.107   6.300   0.989
 5299TIP3   OH215818   8.239   5.980   1.719
 5299TIP3    H115819   8.335   5.974   1.715
 5299TIP3    H215820   8.211   5.894   1.752
 5300TIP3   OH215821   8.319   5.705   1.016
 5300TIP3    H115822   8.335   5.613   1.040
 5300TIP3    H215823   8.404   5.747   1.024
 5301TIP3   OH215824   8.102   5.838   1.125
 5301TIP3    H115825   8.188   5.815   1.091
 5301TIP3    H215826   8.086   5.927   1.092
 5302TIP3   OH215827   8.242   5.515   1.440
 5302TIP3    H115828   8.189   5.510   1.520
 5302TIP3    H215829   8.185   5.555   1.375
 5303TIP3   OH215830   8.258   5.389   0.742
 5303TIP3    H115831   8.166   5.371   0.761
 5303TIP3    H215832   8.301   5.304   0.747
 5304TIP3   OH215833   8.543   5.658   1.662
 5304TIP3    H115834   8.525   5.585   1.721
 5304TIP3    H215835   8.621   5.632   1.614
 5305TIP3   OH215836   0.516   6.473   2.964
 5305TIP3    H115837   0.525   6.562   2.998
 5305TIP3    H215838   0.552   6.477   2.875
 5306TIP3   OH215839   8.846   6.436   2.612
 5306TIP3    H115840   8.914   6.409   2.674
 5306TIP3    H215841   8.894   6.448   2.529
 5307TIP3   OH215842   0.553   6.689   3.131
 5307TIP3    H115843   0.468   6.733   3.134
 5307TIP3    H215844   0.601   6.726   3.205
 5308TIP3   OH215845   0.143   6.410   2.791
 5308TIP3    H115846   0.125   6.348   2.862
 5308TIP3    H215847   0.192   6.481   2.834
 5309TIP3   OH215848   0.279   6.414   3.102
 5309TIP3    H115849   0.208   6.467   3.066
 5309TIP3    H215850   0.351   6.425   3.039
 5310TIP3   OH215851   0.193   7.373   3.148
 5310TIP3    H115852   0.172   7.298   3.092
 5310TIP3    H215853   0.129   7.440   3.124
 5311TIP3   OH215854   0.379   7.035   2.993
 5311TIP3    H115855   0.296   7.082   2.996
 5311TIP3    H215856   0.406   7.039   2.902
 5312TIP3   OH215857   0.189   5.944   2.225
 5312TIP3    H115858   0.111   5.965   2.276
 5312TIP3    H215859   0.203   6.020   2.169
 5313TIP3   OH215860   0.445   7.705   3.210
 5313TIP3    H115861   0.438   7.612   3.232
 5313TIP3    H215862   0.402   7.712   3.124
 5314TIP3   OH215863   0.335   6.828   3.467
 5314TIP3    H115864   0.242   6.833   3.489
 5314TIP3    H215865   0.349   6.737   3.442
 5315TIP3   OH215866   0.074   6.672   3.339
 5315TIP3    H115867   0.057   6.596   3.394
 5315TIP3    H215868   0.006   6.735   3.363
 5316TIP3   OH215869   0.140   7.166   2.976
 5316TIP3    H115870   0.162   7.205   2.891
 5316TIP3    H215871   0.049   7.140   2.968
 5317TIP3   OH215872   0.209   6.552   2.147
 5317TIP3    H115873   0.169   6.505   2.074
 5317TIP3    H215874   0.189   6.644   2.131
 5318TIP3   OH215875   0.450   7.428   3.209
 5318TIP3    H115876   0.355   7.418   3.205
 5318TIP3    H215877   0.481   7.395   3.125
 5319TIP3   OH215878   0.345   6.576   3.338
 5319TIP3    H115879   0.252   6.599   3.337
 5319TIP3    H215880   0.361   6.537   3.252
 5320TIP3   OH215881   0.029   6.699   2.734
 5320TIP3    H115882  -0.002   6.611   2.716
 5320TIP3    H215883   0.106   6.688   2.790
 5321TIP3   OH215884   0.254   6.552   3.853
 5321TIP3    H115885   0.254   6.559   3.949
 5321TIP3    H215886   0.177   6.602   3.825
 5322TIP3   OH215887   0.223   7.836   2.736
 5322TIP3    H115888   0.193   7.923   2.710
 5322TIP3    H215889   0.284   7.810   2.667
 5323TIP3   OH215890   0.346   7.724   2.954
 5323TIP3    H115891   0.277   7.751   2.893
 5323TIP3    H215892   0.418   7.697   2.897
 5324TIP3   OH215893   0.311   7.519   3.516
 5324TIP3    H115894   0.219   7.545   3.510
 5324TIP3    H215895   0.357   7.601   3.535
 5325TIP3   OH215896   0.298   6.884   2.320
 5325TIP3    H115897   0.227   6.852   2.376
 5325TIP3    H215898   0.353   6.936   2.379
 5326TIP3   OH215899   0.309   7.276   2.781
 5326TIP3    H115900   0.360   7.206   2.739
 5326TIP3    H215901   0.320   7.351   2.724
 5327TIP3   OH215902   0.110   6.744   2.469
 5327TIP3    H115903   0.107   6.651   2.450
 5327TIP3    H215904   0.079   6.752   2.559
 5328TIP3   OH215905   0.332   7.175   3.365
 5328TIP3    H115906   0.395   7.110   3.335
 5328TIP3    H215907   0.317   7.231   3.288
 5329TIP3   OH215908   0.519   6.971   3.327
 5329TIP3    H115909   0.452   6.924   3.377
 5329TIP3    H215910   0.599   6.921   3.344
 5330TIP3   OH215911   0.107   6.468   2.392
 5330TIP3    H115912   0.142   6.380   2.404
 5330TIP3    H215913   0.140   6.495   2.306
 5331TIP3   OH215914   0.253   6.643   2.897
 5331TIP3    H115915   0.331   6.672   2.849
 5331TIP3    H215916   0.254   6.693   2.978
 5332TIP3   OH215917   0.298   6.803   3.120
 5332TIP3    H115918   0.233   6.826   3.186
 5332TIP3    H215919   0.324   6.886   3.082
 5333TIP3   OH215920   0.785   6.421   3.641
 5333TIP3    H115921   0.838   6.350   3.606
 5333TIP3    H215922   0.745   6.462   3.563
 5334TIP3   OH215923   0.190   6.206   2.426
 5334TIP3    H115924   0.231   6.195   2.512
 5334TIP3    H215925   0.123   6.138   2.422
 5335TIP3   OH215926   0.601   6.538   3.466
 5335TIP3    H115927   0.556   6.568   3.545
 5335TIP3    H215928   0.530   6.518   3.404
 5336TIP3   OH215929   0.253   6.145   2.052
 5336TIP3    H115930   0.270   6.100   1.970
 5336TIP3    H215931   0.319   6.214   2.056
 5337TIP3   OH215932   0.526   6.245   3.345
 5337TIP3    H115933   0.437   6.231   3.315
 5337TIP3    H215934   0.565   6.157   3.347
 5338TIP3   OH215935   0.274   6.141   2.909
 5338TIP3    H115936   0.313   6.163   2.825
 5338TIP3    H215937   0.179   6.144   2.893
 5339TIP3   OH215938   0.354   6.165   2.647
 5339TIP3    H115939   0.425   6.111   2.611
 5339TIP3    H215940   0.383   6.255   2.631
 5340TIP3   OH215941   8.906   6.146   2.861
 5340TIP3    H115942   8.880   6.096   2.784
 5340TIP3    H215943   8.901   6.083   2.933
 5341TIP3   OH215944   8.902   5.997   2.428
 5341TIP3    H115945   8.809   6.007   2.449
 5341TIP3    H215946   8.926   5.912   2.465
 5342TIP3   OH215947   0.329   6.216   3.778
 5342TIP3    H115948   0.346   6.209   3.872
 5342TIP3    H215949   0.412   6.244   3.741
 5343TIP3   OH215950   1.398   7.163   2.447
 5343TIP3    H115951   1.472   7.144   2.505
 5343TIP3    H215952   1.435   7.161   2.359
 5344TIP3   OH215953   0.749   7.055   2.779
 5344TIP3    H115954   0.783   7.004   2.853
 5344TIP3    H215955   0.825   7.069   2.723
 5345TIP3   OH215956   1.703   7.459   2.077
 5345TIP3    H115957   1.665   7.379   2.114
 5345TIP3    H215958   1.720   7.514   2.152
 5346TIP3   OH215959   0.722   7.447   2.493
 5346TIP3    H115960   0.711   7.352   2.490
 5346TIP3    H215961   0.817   7.461   2.487
 5347TIP3   OH215962   0.445   6.662   2.263
 5347TIP3    H115963   0.411   6.749   2.282
 5347TIP3    H215964   0.368   6.609   2.246
 5348TIP3   OH215965   0.513   6.988   2.477
 5348TIP3    H115966   0.562   6.909   2.501
 5348TIP3    H215967   0.580   7.053   2.458
 5349TIP3   OH215968   1.428   7.851   2.187
 5349TIP3    H115969   1.435   7.791   2.113
 5349TIP3    H215970   1.453   7.799   2.263
 5350TIP3   OH215971   1.254   7.402   2.459
 5350TIP3    H115972   1.281   7.312   2.439
 5350TIP3    H215973   1.336   7.448   2.476
 5351TIP3   OH215974   1.698   6.889   2.462
 5351TIP3    H115975   1.721   6.803   2.496
 5351TIP3    H215976   1.636   6.871   2.391
 5352TIP3   OH215977   1.024   6.518   2.470
 5352TIP3    H115978   1.013   6.598   2.420
 5352TIP3    H215979   0.968   6.454   2.426
 5353TIP3   OH215980   1.702   6.651   2.071
 5353TIP3    H115981   1.754   6.657   2.151
 5353TIP3    H215982   1.757   6.691   2.004
 5354TIP3   OH215983   0.652   6.765   2.572
 5354TIP3    H115984   0.733   6.745   2.618
 5354TIP3    H215985   0.653   6.708   2.495
 5355TIP3   OH215986   1.073   6.940   2.394
 5355TIP3    H115987   1.165   6.914   2.398
 5355TIP3    H215988   1.027   6.861   2.366
 5356TIP3   OH215989   2.306   6.876   2.576
 5356TIP3    H115990   2.230   6.927   2.604
 5356TIP3    H215991   2.348   6.849   2.658
 5357TIP3   OH215992   1.397   7.436   1.883
 5357TIP3    H115993   1.348   7.395   1.812
 5357TIP3    H215994   1.384   7.378   1.958
 5358TIP3   OH215995   1.107   7.300   2.667
 5358TIP3    H115996   1.050   7.363   2.710
 5358TIP3    H215997   1.150   7.349   2.598
 5359TIP3   OH215998   1.863   6.671   2.295
 5359TIP3    H115999   1.824   6.641   2.377
 5359TIP3    H216000   1.955   6.688   2.317
 5360TIP3   OH216001   0.886   6.653   2.676
 5360TIP3    H116002   0.945   6.720   2.710
 5360TIP3    H216003   0.938   6.608   2.609
 5361TIP3   OH216004   0.940   7.471   2.797
 5361TIP3    H116005   0.917   7.553   2.753
 5361TIP3    H216006   0.865   7.452   2.854
 5362TIP3   OH216007   1.742   7.674   2.268
 5362TIP3    H116008   1.662   7.664   2.319
 5362TIP3    H216009   1.734   7.760   2.227
 5363TIP3   OH216010   2.026   6.616   2.624
 5363TIP3    H116011   1.932   6.621   2.605
 5363TIP3    H216012   2.067   6.613   2.537
 5364TIP3   OH216013   1.349   6.233   2.615
 5364TIP3    H116014   1.345   6.143   2.648
 5364TIP3    H216015   1.271   6.275   2.650
 5365TIP3   OH216016   1.438   7.696   1.958
 5365TIP3    H116017   1.436   7.605   1.930
 5365TIP3    H216018   1.531   7.718   1.962
 5366TIP3   OH216019   1.652   7.530   1.818
 5366TIP3    H116020   1.568   7.484   1.819
 5366TIP3    H216021   1.692   7.510   1.903
 5367TIP3   OH216022   2.002   7.623   2.628
 5367TIP3    H116023   1.994   7.558   2.559
 5367TIP3    H216024   1.951   7.698   2.598
 5368TIP3   OH216025   1.261   6.993   1.878
 5368TIP3    H116026   1.193   7.058   1.861
 5368TIP3    H216027   1.334   7.020   1.822
 5369TIP3   OH216028   1.273   6.837   1.613
 5369TIP3    H116029   1.331   6.882   1.674
 5369TIP3    H216030   1.330   6.782   1.560
 5370TIP3   OH216031   2.182   7.264   2.466
 5370TIP3    H116032   2.103   7.318   2.476
 5370TIP3    H216033   2.214   7.285   2.378
 5371TIP3   OH216034   1.655   7.123   1.885
 5371TIP3    H116035   1.614   7.146   1.968
 5371TIP3    H216036   1.741   7.089   1.909
 5372TIP3   OH216037   1.862   7.143   2.754
 5372TIP3    H116038   1.865   7.228   2.798
 5372TIP3    H216039   1.779   7.145   2.707
 5373TIP3   OH216040   0.884   7.090   2.248
 5373TIP3    H116041   0.838   7.026   2.192
 5373TIP3    H216042   0.956   7.040   2.286
 5374TIP3   OH216043   0.990   7.501   2.426
 5374TIP3    H116044   0.969   7.498   2.333
 5374TIP3    H216045   1.082   7.475   2.430
 5375TIP3   OH216046   0.969   7.073   2.611
 5375TIP3    H116047   1.008   7.034   2.533
 5375TIP3    H216048   1.020   7.151   2.628
 5376TIP3   OH216049   1.502   7.696   2.411
 5376TIP3    H116050   1.533   7.756   2.479
 5376TIP3    H216051   1.508   7.609   2.451
 5377TIP3   OH216052   1.120   7.585   2.974
 5377TIP3    H116053   1.057   7.649   3.007
 5377TIP3    H216054   1.069   7.529   2.915
 5378TIP3   OH216055   1.485   6.993   1.715
 5378TIP3    H116056   1.545   7.045   1.768
 5378TIP3    H216057   1.512   7.009   1.625
 5379TIP3   OH216058   0.899   7.165   3.077
 5379TIP3    H116059   0.913   7.255   3.107
 5379TIP3    H216060   0.804   7.155   3.075
 5380TIP3   OH216061   1.149   7.652   1.978
 5380TIP3    H116062   1.242   7.646   1.960
 5380TIP3    H216063   1.111   7.686   1.897
 5381TIP3   OH216064   0.904   7.752   3.015
 5381TIP3    H116065   0.878   7.729   2.925
 5381TIP3    H216066   0.839   7.709   3.070
 5382TIP3   OH216067   1.974   6.205   1.716
 5382TIP3    H116068   1.898   6.228   1.771
 5382TIP3    H216069   1.984   6.280   1.658
 5383TIP3   OH216070   0.744   6.926   2.075
 5383TIP3    H116071   0.737   6.946   1.981
 5383TIP3    H216072   0.679   6.857   2.089
 5384TIP3   OH216073   1.797   7.530   1.198
 5384TIP3    H116074   1.803   7.623   1.220
 5384TIP3    H216075   1.887   7.498   1.209
 5385TIP3   OH216076   0.517   7.323   2.967
 5385TIP3    H116077   0.444   7.309   2.907
 5385TIP3    H216078   0.553   7.235   2.982
 5386TIP3   OH216079   0.382   7.481   2.616
 5386TIP3    H116080   0.470   7.474   2.578
 5386TIP3    H216081   0.358   7.572   2.604
 5387TIP3   OH216082   2.229   7.953   2.713
 5387TIP3    H116083   2.262   7.863   2.716
 5387TIP3    H216084   2.146   7.949   2.760
 5388TIP3   OH216085   1.311   7.659   2.794
 5388TIP3    H116086   1.341   7.749   2.788
 5388TIP3    H216087   1.253   7.657   2.870
 5389TIP3   OH216088   1.294   7.895   1.633
 5389TIP3    H116089   1.280   7.909   1.726
 5389TIP3    H216090   1.310   7.801   1.625
 5390TIP3   OH216091   2.116   7.085   2.934
 5390TIP3    H116092   2.034   7.093   2.886
 5390TIP3    H216093   2.132   6.991   2.940
 5391TIP3   OH216094   0.716   7.506   2.953
 5391TIP3    H116095   0.731   7.528   3.045
 5391TIP3    H216096   0.646   7.441   2.954
 5392TIP3   OH216097   1.103   6.350   2.699
 5392TIP3    H116098   1.014   6.314   2.702
 5392TIP3    H216099   1.100   6.414   2.628
 5393TIP3   OH216100   1.654   6.456   2.953
 5393TIP3    H116101   1.726   6.427   3.008
 5393TIP3    H216102   1.575   6.436   3.003
 5394TIP3   OH216103   1.875   6.892   2.873
 5394TIP3    H116104   1.831   6.886   2.958
 5394TIP3    H216105   1.848   6.978   2.839
 5395TIP3   OH216106   1.564   7.004   1.458
 5395TIP3    H116107   1.532   6.979   1.372
 5395TIP3    H216108   1.649   7.047   1.440
 5396TIP3   OH216109   1.247   6.366   1.717
 5396TIP3    H116110   1.220   6.380   1.807
 5396TIP3    H216111   1.222   6.276   1.698
 5397TIP3   OH216112   1.045   6.857   2.776
 5397TIP3    H116113   0.995   6.872   2.856
 5397TIP3    H216114   1.026   6.932   2.720
 5398TIP3   OH216115   0.934   6.723   2.310
 5398TIP3    H116116   0.843   6.700   2.331
 5398TIP3    H216117   0.943   6.698   2.218
 5399TIP3   OH216118   1.412   6.792   1.997
 5399TIP3    H116119   1.361   6.866   1.963
 5399TIP3    H216120   1.472   6.770   1.926
 5400TIP3   OH216121   1.600   7.078   3.079
 5400TIP3    H116122   1.572   7.009   3.139
 5400TIP3    H216123   1.692   7.094   3.102
 5401TIP3   OH216124   1.522   6.863   2.255
 5401TIP3    H116125   1.523   6.953   2.223
 5401TIP3    H216126   1.512   6.810   2.176
 5402TIP3   OH216127   0.871   6.906   2.984
 5402TIP3    H116128   0.892   6.986   3.031
 5402TIP3    H216129   0.801   6.866   3.036
 5403TIP3   OH216130   0.902   6.328   1.696
 5403TIP3    H116131   0.888   6.392   1.766
 5403TIP3    H216132   0.863   6.368   1.619
 5404TIP3   OH216133   0.477   6.391   2.566
 5404TIP3    H116134   0.544   6.435   2.618
 5404TIP3    H216135   0.519   6.372   2.483
 5405TIP3   OH216136   0.419   6.372   2.107
 5405TIP3    H116137   0.445   6.404   2.020
 5405TIP3    H216138   0.357   6.437   2.139
 5406TIP3   OH216139   1.610   7.084   2.631
 5406TIP3    H116140   1.643   7.017   2.571
 5406TIP3    H216141   1.576   7.035   2.706
 5407TIP3   OH216142   1.281   6.530   2.340
 5407TIP3    H116143   1.203   6.507   2.390
 5407TIP3    H216144   1.309   6.614   2.376
 5408TIP3   OH216145   0.693   6.602   2.357
 5408TIP3    H116146   0.609   6.610   2.313
 5408TIP3    H216147   0.725   6.516   2.331
 5409TIP3   OH216148   0.955   6.620   2.057
 5409TIP3    H116149   1.050   6.623   2.059
 5409TIP3    H216150   0.933   6.629   1.964
 5410TIP3   OH216151   1.750   6.632   2.557
 5410TIP3    H116152   1.722   6.655   2.646
 5410TIP3    H216153   1.688   6.564   2.530
 5411TIP3   OH216154   0.893   6.624   1.793
 5411TIP3    H116155   0.803   6.618   1.761
 5411TIP3    H216156   0.939   6.675   1.726
 5412TIP3   OH216157   0.910   7.407   3.201
 5412TIP3    H116158   0.981   7.445   3.254
 5412TIP3    H216159   0.831   7.423   3.252
 5413TIP3   OH216160   1.315   6.790   2.430
 5413TIP3    H116161   1.390   6.824   2.383
 5413TIP3    H216162   1.338   6.800   2.523
 5414TIP3   OH216163   0.840   6.363   2.323
 5414TIP3    H116164   0.811   6.286   2.370
 5414TIP3    H216165   0.860   6.332   2.235
 5415TIP3   OH216166   1.320   6.808   2.717
 5415TIP3    H116167   1.235   6.847   2.735
 5415TIP3    H216168   1.383   6.866   2.759
 5416TIP3   OH216169   1.052   7.172   1.814
 5416TIP3    H116170   0.978   7.114   1.794
 5416TIP3    H216171   1.028   7.214   1.896
 5417TIP3   OH216172   1.961   7.426   2.448
 5417TIP3    H116173   1.991   7.462   2.364
 5417TIP3    H216174   1.873   7.392   2.429
 5418TIP3   OH216175   1.508   6.468   1.731
 5418TIP3    H116176   1.414   6.453   1.719
 5418TIP3    H216177   1.517   6.563   1.731
 5419TIP3   OH216178   1.487   7.452   2.805
 5419TIP3    H116179   1.514   7.439   2.896
 5419TIP3    H216180   1.413   7.513   2.810
 5420TIP3   OH216181   1.578   6.735   1.774
 5420TIP3    H116182   1.672   6.736   1.793
 5420TIP3    H216183   1.560   6.823   1.739
 5421TIP3   OH216184   0.735   7.167   2.466
 5421TIP3    H116185   0.778   7.154   2.381
 5421TIP3    H216186   0.800   7.138   2.530
 5422TIP3   OH216187   1.233   7.337   1.686
 5422TIP3    H116188   1.178   7.415   1.688
 5422TIP3    H216189   1.181   7.270   1.728
 5423TIP3   OH216190   0.629   7.093   3.099
 5423TIP3    H116191   0.627   7.079   3.193
 5423TIP3    H216192   0.547   7.055   3.067
 5424TIP3   OH216193   1.368   7.226   3.123
 5424TIP3    H116194   1.299   7.167   3.093
 5424TIP3    H216195   1.449   7.188   3.092
 5425TIP3   OH216196   1.619   7.683   2.680
 5425TIP3    H116197   1.544   7.625   2.694
 5425TIP3    H216198   1.640   7.717   2.767
 5426TIP3   OH216199   1.991   6.826   1.615
 5426TIP3    H116200   1.932   6.779   1.556
 5426TIP3    H216201   1.998   6.914   1.578
 5427TIP3   OH216202   2.256   7.668   2.703
 5427TIP3    H116203   2.160   7.665   2.697
 5427TIP3    H216204   2.287   7.645   2.615
 5428TIP3   OH216205   1.711   7.597   1.559
 5428TIP3    H116206   1.699   7.585   1.654
 5428TIP3    H216207   1.686   7.512   1.522
 5429TIP3   OH216208   1.726   7.293   2.409
 5429TIP3    H116209   1.670   7.271   2.334
 5429TIP3    H216210   1.767   7.210   2.432
 5430TIP3   OH216211   0.860   7.499   2.177
 5430TIP3    H116212   0.852   7.543   2.092
 5430TIP3    H216213   0.771   7.502   2.214
 5431TIP3   OH216214   0.963   7.270   2.052
 5431TIP3    H116215   0.942   7.356   2.089
 5431TIP3    H216216   0.940   7.208   2.121
 5432TIP3   OH216217   1.103   7.788   2.653
 5432TIP3    H116218   1.151   7.813   2.573
 5432TIP3    H216219   1.164   7.732   2.700
 5433TIP3   OH216220   1.525   7.449   2.530
 5433TIP3    H116221   1.518   7.425   2.622
 5433TIP3    H216222   1.593   7.392   2.495
 5434TIP3   OH216223   1.468   7.355   1.506
 5434TIP3    H116224   1.536   7.313   1.559
 5434TIP3    H216225   1.388   7.346   1.558
 5435TIP3   OH216226   1.702   8.032   2.687
 5435TIP3    H116227   1.638   8.066   2.750
 5435TIP3    H216228   1.688   8.086   2.609
 5436TIP3   OH216229   1.820   7.797   1.233
 5436TIP3    H116230   1.853   7.849   1.160
 5436TIP3    H216231   1.728   7.823   1.241
 5437TIP3   OH216232   1.678   7.256   1.645
 5437TIP3    H116233   1.670   7.221   1.734
 5437TIP3    H216234   1.771   7.273   1.634
 5438TIP3   OH216235   0.570   7.695   2.794
 5438TIP3    H116236   0.625   7.622   2.822
 5438TIP3    H216237   0.604   7.771   2.841
 5439TIP3   OH216238   1.682   6.693   2.817
 5439TIP3    H116239   1.761   6.733   2.853
 5439TIP3    H216240   1.671   6.612   2.866
 5440TIP3   OH216241   1.564   6.425   1.998
 5440TIP3    H116242   1.543   6.442   1.906
 5440TIP3    H216243   1.606   6.506   2.027
 5441TIP3   OH216244   1.225   6.616   2.084
 5441TIP3    H116245   1.290   6.679   2.053
 5441TIP3    H216246   1.252   6.597   2.174
 5442TIP3   OH216247   1.534   6.932   2.845
 5442TIP3    H116248   1.556   6.975   2.928
 5442TIP3    H216249   1.581   6.848   2.849
 5443TIP3   OH216250   1.382   6.323   2.176
 5443TIP3    H116251   1.363   6.398   2.232
 5443TIP3    H216252   1.452   6.353   2.118
 5444TIP3   OH216253   0.898   6.347   2.010
 5444TIP3    H116254   0.895   6.440   2.030
 5444TIP3    H216255   0.989   6.329   1.989
 5445TIP3   OH216256   2.123   6.805   2.812
 5445TIP3    H116257   2.034   6.832   2.836
 5445TIP3    H216258   2.110   6.732   2.752
 5446TIP3   OH216259   1.835   7.011   2.249
 5446TIP3    H116260   1.760   7.064   2.220
 5446TIP3    H216261   1.801   6.961   2.323
 5447TIP3   OH216262   0.421   6.468   1.854
 5447TIP3    H116263   0.390   6.529   1.787
 5447TIP3    H216264   0.458   6.395   1.805
 5448TIP3   OH216265   1.755   7.984   2.223
 5448TIP3    H116266   1.737   7.954   2.134
 5448TIP3    H216267   1.848   8.007   2.222
 5449TIP3   OH216268   0.846   6.246   2.718
 5449TIP3    H116269   0.817   6.215   2.632
 5449TIP3    H216270   0.835   6.171   2.776
 5450TIP3   OH216271   0.605   7.937   3.211
 5450TIP3    H116272   0.661   7.935   3.289
 5450TIP3    H216273   0.541   7.867   3.225
 5451TIP3   OH216274   1.013   7.895   3.223
 5451TIP3    H116275   1.104   7.864   3.228
 5451TIP3    H216276   0.977   7.851   3.146
 5452TIP3   OH216277   1.674   7.777   2.921
 5452TIP3    H116278   1.654   7.730   3.002
 5452TIP3    H216279   1.722   7.855   2.950
 5453TIP3   OH216280   0.682   7.403   3.358
 5453TIP3    H116281   0.692   7.310   3.379
 5453TIP3    H216282   0.595   7.410   3.318
 5454TIP3   OH216283   1.299   7.494   3.158
 5454TIP3    H116284   1.243   7.513   3.082
 5454TIP3    H216285   1.333   7.406   3.141
 5455TIP3   OH216286   1.799   7.475   2.740
 5455TIP3    H116287   1.874   7.524   2.708
 5455TIP3    H216288   1.723   7.527   2.715
 5456TIP3   OH216289   0.799   7.144   3.372
 5456TIP3    H116290   0.872   7.150   3.311
 5456TIP3    H216291   0.834   7.179   3.454
 5457TIP3   OH216292   0.864   6.942   1.799
 5457TIP3    H116293   0.912   6.903   1.872
 5457TIP3    H216294   0.904   6.903   1.721
 5458TIP3   OH216295   1.161   7.061   3.025
 5458TIP3    H116296   1.076   7.106   3.032
 5458TIP3    H216297   1.194   7.086   2.939
 5459TIP3   OH216298   1.002   6.796   1.606
 5459TIP3    H116299   1.005   6.762   1.516
 5459TIP3    H216300   1.093   6.814   1.627
 5460TIP3   OH216301   1.656   7.409   3.101
 5460TIP3    H116302   1.734   7.379   3.054
 5460TIP3    H216303   1.655   7.357   3.181
 5461TIP3   OH216304   1.787   7.086   1.299
 5461TIP3    H116305   1.770   7.049   1.212
 5461TIP3    H216306   1.747   7.173   1.296
 5462TIP3   OH216307   1.248   6.826   3.136
 5462TIP3    H116308   1.248   6.757   3.070
 5462TIP3    H216309   1.219   6.904   3.088
 5463TIP3   OH216310   1.244   6.631   2.922
 5463TIP3    H116311   1.296   6.674   2.854
 5463TIP3    H216312   1.156   6.627   2.886
 5464TIP3   OH216313   1.283   7.138   2.796
 5464TIP3    H116314   1.371   7.156   2.763
 5464TIP3    H216315   1.226   7.197   2.747
 5465TIP3   OH216316   1.865   7.112   3.181
 5465TIP3    H116317   1.907   7.027   3.194
 5465TIP3    H216318   1.937   7.169   3.152
 5466TIP3   OH216319   1.914   7.360   2.949
 5466TIP3    H116320   1.862   7.409   2.886
 5466TIP3    H216321   2.004   7.369   2.918
 5467TIP3   OH216322   1.138   6.922   3.377
 5467TIP3    H116323   1.064   6.865   3.398
 5467TIP3    H216324   1.164   6.897   3.289
 5468TIP3   OH216325   1.382   6.410   3.030
 5468TIP3    H116326   1.340   6.488   2.994
 5468TIP3    H216327   1.326   6.338   3.001
 5469TIP3   OH216328   1.508   6.871   3.235
 5469TIP3    H116329   1.502   6.861   3.330
 5469TIP3    H216330   1.421   6.848   3.202
 5470TIP3   OH216331   1.757   6.826   3.107
 5470TIP3    H116332   1.679   6.822   3.162
 5470TIP3    H216333   1.829   6.801   3.165
 5471TIP3   OH216334   1.994   6.797   3.254
 5471TIP3    H116335   2.008   6.702   3.262
 5471TIP3    H216336   1.991   6.828   3.345
 5472TIP3   OH216337   0.966   6.705   3.444
 5472TIP3    H116338   0.980   6.614   3.416
 5472TIP3    H216339   1.001   6.708   3.533
 5473TIP3   OH216340   1.445   6.387   3.295
 5473TIP3    H116341   1.516   6.323   3.293
 5473TIP3    H216342   1.420   6.398   3.204
 5474TIP3   OH216343   1.545   6.597   3.445
 5474TIP3    H116344   1.515   6.525   3.388
 5474TIP3    H216345   1.471   6.658   3.446
 5475TIP3   OH216346   2.015   8.088   2.187
 5475TIP3    H116347   2.055   8.167   2.151
 5475TIP3    H216348   1.992   8.036   2.110
 5476TIP3   OH216349   2.103   8.039   2.474
 5476TIP3    H116350   2.066   7.969   2.420
 5476TIP3    H216351   2.142   7.993   2.549
 5477TIP3   OH216352   2.084   7.758   3.034
 5477TIP3    H116353   2.018   7.771   3.102
 5477TIP3    H216354   2.130   7.842   3.028
 5478TIP3   OH216355   1.952   7.286   1.627
 5478TIP3    H116356   2.009   7.356   1.597
 5478TIP3    H216357   1.997   7.249   1.704
 5479TIP3   OH216358   2.077   7.150   1.831
 5479TIP3    H116359   2.015   7.108   1.891
 5479TIP3    H216360   2.143   7.188   1.888
 5480TIP3   OH216361   2.114   7.527   2.249
 5480TIP3    H116362   2.170   7.459   2.210
 5480TIP3    H216363   2.123   7.602   2.190
 5481TIP3   OH216364   1.981   7.805   2.352
 5481TIP3    H116365   1.926   7.828   2.427
 5481TIP3    H216366   1.934   7.734   2.309
 5482TIP3   OH216367   1.991   7.062   1.475
 5482TIP3    H116368   1.920   7.062   1.412
 5482TIP3    H216369   1.976   7.140   1.529
 5483TIP3   OH216370   1.838   6.709   1.427
 5483TIP3    H116371   1.804   6.741   1.344
 5483TIP3    H216372   1.833   6.614   1.420
 5484TIP3   OH216373   1.890   7.000   1.976
 5484TIP3    H116374   1.881   6.908   1.949
 5484TIP3    H216375   1.879   6.997   2.071
 5485TIP3   OH216376   0.482   7.056   2.740
 5485TIP3    H116377   0.473   7.035   2.647
 5485TIP3    H216378   0.576   7.066   2.754
 5486TIP3   OH216379   2.164   7.413   2.835
 5486TIP3    H116380   2.226   7.343   2.815
 5486TIP3    H216381   2.186   7.483   2.774
 5487TIP3   OH216382   2.331   7.196   2.804
 5487TIP3    H116383   2.260   7.153   2.851
 5487TIP3    H216384   2.404   7.135   2.810
 5488TIP3   OH216385   1.802   6.437   1.364
 5488TIP3    H116386   1.875   6.417   1.423
 5488TIP3    H216387   1.726   6.396   1.404
 5489TIP3   OH216388   1.862   6.740   1.852
 5489TIP3    H116389   1.903   6.655   1.867
 5489TIP3    H216390   1.907   6.774   1.774
 5490TIP3   OH216391   2.100   6.838   2.376
 5490TIP3    H116392   2.051   6.876   2.303
 5490TIP3    H216393   2.074   6.890   2.452
 5491TIP3   OH216394   2.071   7.033   2.576
 5491TIP3    H116395   2.002   7.062   2.635
 5491TIP3    H216396   2.111   7.114   2.544
 5492TIP3   OH216397   0.710   6.767   3.356
 5492TIP3    H116398   0.802   6.766   3.381
 5492TIP3    H216399   0.672   6.691   3.399
 5493TIP3   OH216400   2.543   6.664   3.125
 5493TIP3    H116401   2.608   6.599   3.098
 5493TIP3    H216402   2.510   6.700   3.043
 5494TIP3   OH216403   1.973   6.490   1.907
 5494TIP3    H116404   2.017   6.476   1.990
 5494TIP3    H216405   1.910   6.418   1.900
 5495TIP3   OH216406   0.684   6.472   2.736
 5495TIP3    H116407   0.738   6.393   2.735
 5495TIP3    H216408   0.745   6.544   2.722
 5496TIP3   OH216409   0.475   6.762   2.788
 5496TIP3    H116410   0.529   6.743   2.711
 5496TIP3    H216411   0.476   6.858   2.795
 5497TIP3   OH216412   2.393   6.762   2.917
 5497TIP3    H116413   2.321   6.800   2.968
 5497TIP3    H216414   2.357   6.681   2.881
 5498TIP3   OH216415   2.023   6.404   1.529
 5498TIP3    H116416   2.071   6.338   1.478
 5498TIP3    H216417   2.083   6.478   1.535
 5499TIP3   OH216418   0.463   6.207   2.315
 5499TIP3    H116419   0.374   6.197   2.349
 5499TIP3    H216420   0.455   6.271   2.244
 5500TIP3   OH216421   1.669   7.936   1.758
 5500TIP3    H116422   1.705   7.910   1.673
 5500TIP3    H216423   1.706   8.023   1.774
 5501TIP3   OH216424   0.680   6.375   3.162
 5501TIP3    H116425   0.618   6.337   3.225
 5501TIP3    H216426   0.624   6.409   3.092
 5502TIP3   OH216427   0.721   7.657   3.195
 5502TIP3    H116428   0.627   7.676   3.191
 5502TIP3    H216429   0.744   7.665   3.288
 5503TIP3   OH216430   0.856   7.724   2.742
 5503TIP3    H116431   0.790   7.750   2.678
 5503TIP3    H216432   0.938   7.756   2.705
 5504TIP3   OH216433   1.391   8.213   2.778
 5504TIP3    H116434   1.308   8.203   2.825
 5504TIP3    H216435   1.455   8.166   2.832
 5505TIP3   OH216436   2.304   6.497   2.859
 5505TIP3    H116437   2.219   6.465   2.829
 5505TIP3    H216438   2.365   6.426   2.837
 5506TIP3   OH216439   1.478   7.987   2.485
 5506TIP3    H116440   1.396   7.966   2.440
 5506TIP3    H216441   1.504   8.071   2.448
 5507TIP3   OH216442   0.422   7.757   2.567
 5507TIP3    H116443   0.482   7.746   2.641
 5507TIP3    H216444   0.479   7.751   2.490
 5508TIP3   OH216445   0.628   7.687   2.398
 5508TIP3    H116446   0.651   7.599   2.429
 5508TIP3    H216447   0.712   7.731   2.387
 5509TIP3   OH216448   0.893   7.762   2.411
 5509TIP3    H116449   0.926   7.677   2.440
 5509TIP3    H216450   0.948   7.785   2.336
 5510TIP3   OH216451   1.571   6.437   2.488
 5510TIP3    H116452   1.494   6.381   2.500
 5510TIP3    H216453   1.624   6.391   2.423
 5511TIP3   OH216454   2.016   6.396   2.372
 5511TIP3    H116455   2.052   6.423   2.287
 5511TIP3    H216456   1.924   6.378   2.354
 5512TIP3   OH216457   2.137   6.452   2.130
 5512TIP3    H116458   2.195   6.383   2.098
 5512TIP3    H216459   2.185   6.533   2.114
 5513TIP3   OH216460   0.760   6.145   2.476
 5513TIP3    H116461   0.670   6.113   2.477
 5513TIP3    H216462   0.813   6.066   2.468
 5514TIP3   OH216463   0.569   6.029   2.117
 5514TIP3    H116464   0.609   6.083   2.048
 5514TIP3    H216465   0.540   6.093   2.183
 5515TIP3   OH216466   1.229   6.185   2.366
 5515TIP3    H116467   1.278   6.227   2.294
 5515TIP3    H216468   1.281   6.203   2.444
 5516TIP3   OH216469   1.754   6.299   2.330
 5516TIP3    H116470   1.783   6.258   2.248
 5516TIP3    H216471   1.752   6.228   2.394
 5517TIP3   OH216472   1.787   6.281   1.907
 5517TIP3    H116473   1.708   6.327   1.937
 5517TIP3    H216474   1.778   6.193   1.944
 5518TIP3   OH216475   0.705   6.171   1.905
 5518TIP3    H116476   0.750   6.113   1.844
 5518TIP3    H216477   0.773   6.229   1.940
 5519TIP3   OH216478   1.175   6.370   1.981
 5519TIP3    H116479   1.231   6.315   2.036
 5519TIP3    H216480   1.192   6.459   2.011
 5520TIP3   OH216481   1.784   7.859   1.524
 5520TIP3    H116482   1.755   7.768   1.531
 5520TIP3    H216483   1.869   7.854   1.481
 5521TIP3   OH216484   0.977   6.409   3.349
 5521TIP3    H116485   0.956   6.347   3.418
 5521TIP3    H216486   1.068   6.434   3.365
 5522TIP3   OH216487   1.224   6.438   3.462
 5522TIP3    H116488   1.304   6.420   3.413
 5522TIP3    H216489   1.223   6.371   3.530
 5523TIP3   OH216490   2.051   6.525   3.269
 5523TIP3    H116491   2.069   6.487   3.355
 5523TIP3    H216492   2.135   6.525   3.224
 5524TIP3   OH216493   1.972   7.986   2.799
 5524TIP3    H116494   1.912   7.922   2.762
 5524TIP3    H216495   1.949   8.068   2.755
 5525TIP3   OH216496   3.271   7.447   1.531
 5525TIP3    H116497   3.243   7.491   1.611
 5525TIP3    H216498   3.193   7.397   1.503
 5526TIP3   OH216499   3.248   7.422   1.921
 5526TIP3    H116500   3.298   7.413   2.002
 5526TIP3    H216501   3.204   7.338   1.910
 5527TIP3   OH216502   2.550   7.294   2.277
 5527TIP3    H116503   2.589   7.242   2.347
 5527TIP3    H216504   2.625   7.321   2.224
 5528TIP3   OH216505   3.438   7.777   1.597
 5528TIP3    H116506   3.455   7.691   1.636
 5528TIP3    H216507   3.491   7.838   1.648
 5529TIP3   OH216508   2.544   7.702   1.957
 5529TIP3    H116509   2.523   7.609   1.965
 5529TIP3    H216510   2.639   7.705   1.961
 5530TIP3   OH216511   2.223   6.924   1.748
 5530TIP3    H116512   2.183   7.008   1.770
 5530TIP3    H216513   2.152   6.873   1.708
 5531TIP3   OH216514   2.310   7.239   1.960
 5531TIP3    H116515   2.362   7.161   1.980
 5531TIP3    H216516   2.375   7.305   1.936
 5532TIP3   OH216517   3.185   8.117   1.676
 5532TIP3    H116518   3.235   8.086   1.601
 5532TIP3    H216519   3.215   8.063   1.749
 5533TIP3   OH216520   3.068   7.642   1.921
 5533TIP3    H116521   3.112   7.557   1.909
 5533TIP3    H216522   3.137   7.701   1.951
 5534TIP3   OH216523   4.078   6.985   1.949
 5534TIP3    H116524   4.103   7.066   1.994
 5534TIP3    H216525   4.093   7.004   1.856
 5535TIP3   OH216526   3.462   7.144   1.971
 5535TIP3    H116527   3.496   7.059   1.999
 5535TIP3    H216528   3.424   7.127   1.884
 5536TIP3   OH216529   2.812   6.802   1.936
 5536TIP3    H116530   2.792   6.874   1.876
 5536TIP3    H216531   2.762   6.727   1.902
 5537TIP3   OH216532   3.509   6.898   1.581
 5537TIP3    H116533   3.575   6.890   1.649
 5537TIP3    H216534   3.557   6.933   1.505
 5538TIP3   OH216535   2.451   7.019   2.051
 5538TIP3    H116536   2.533   6.994   2.093
 5538TIP3    H216537   2.448   6.966   1.971
 5539TIP3   OH216538   2.862   7.212   1.868
 5539TIP3    H116539   2.955   7.194   1.876
 5539TIP3    H216540   2.825   7.129   1.837
 5540TIP3   OH216541   4.148   7.196   2.118
 5540TIP3    H116542   4.058   7.228   2.117
 5540TIP3    H216543   4.186   7.232   2.198
 5541TIP3   OH216544   2.804   6.803   2.388
 5541TIP3    H116545   2.746   6.836   2.319
 5541TIP3    H216546   2.756   6.820   2.469
 5542TIP3   OH216547   3.087   7.672   1.400
 5542TIP3    H116548   3.031   7.623   1.461
 5542TIP3    H216549   3.069   7.764   1.419
 5543TIP3   OH216550   2.907   7.564   2.137
 5543TIP3    H116551   2.848   7.629   2.176
 5543TIP3    H216552   2.950   7.610   2.066
 5544TIP3   OH216553   3.678   6.923   1.792
 5544TIP3    H116554   3.636   6.903   1.876
 5544TIP3    H216555   3.732   7.000   1.811
 5545TIP3   OH216556   2.681   6.905   2.161
 5545TIP3    H116557   2.738   6.978   2.182
 5545TIP3    H216558   2.726   6.858   2.090
 5546TIP3   OH216559   2.742   7.744   2.258
 5546TIP3    H116560   2.735   7.833   2.225
 5546TIP3    H216561   2.666   7.733   2.315
 5547TIP3   OH216562   2.125   7.469   1.512
 5547TIP3    H116563   2.086   7.497   1.429
 5547TIP3    H216564   2.155   7.550   1.553
 5548TIP3   OH216565   3.542   7.982   1.754
 5548TIP3    H116566   3.458   7.982   1.799
 5548TIP3    H216567   3.544   8.066   1.707
 5549TIP3   OH216568   3.885   6.873   2.121
 5549TIP3    H116569   3.798   6.891   2.084
 5549TIP3    H216570   3.946   6.902   2.053
 5550TIP3   OH216571   3.135   6.496   2.113
 5550TIP3    H116572   3.131   6.404   2.138
 5550TIP3    H216573   3.055   6.535   2.149
 5551TIP3   OH216574   3.305   7.982   1.458
 5551TIP3    H116575   3.351   7.907   1.495
 5551TIP3    H216576   3.374   8.036   1.420
 5552TIP3   OH216577   3.786   7.874   2.086
 5552TIP3    H116578   3.769   7.798   2.031
 5552TIP3    H216579   3.774   7.949   2.028
 5553TIP3   OH216580   3.074   7.316   1.385
 5553TIP3    H116581   2.987   7.341   1.355
 5553TIP3    H216582   3.118   7.285   1.306
 5554TIP3   OH216583   3.032   7.087   1.054
 5554TIP3    H116584   3.094   7.135   1.109
 5554TIP3    H216585   3.083   7.015   1.018
 5555TIP3   OH216586   3.968   7.537   1.954
 5555TIP3    H116587   3.882   7.579   1.952
 5555TIP3    H216588   4.003   7.551   1.866
 5556TIP3   OH216589   3.426   7.367   1.321
 5556TIP3    H116590   3.388   7.400   1.403
 5556TIP3    H216591   3.516   7.345   1.344
 5557TIP3   OH216592   3.664   7.398   2.264
 5557TIP3    H116593   3.660   7.480   2.312
 5557TIP3    H216594   3.582   7.396   2.214
 5558TIP3   OH216595   2.675   7.351   1.711
 5558TIP3    H116596   2.633   7.290   1.651
 5558TIP3    H216597   2.742   7.299   1.756
 5559TIP3   OH216598   2.811   7.741   1.872
 5559TIP3    H116599   2.786   7.732   1.780
 5559TIP3    H216600   2.900   7.705   1.875
 5560TIP3   OH216601   2.762   7.337   2.093
 5560TIP3    H116602   2.800   7.299   2.014
 5560TIP3    H216603   2.814   7.415   2.110
 5561TIP3   OH216604   3.302   7.986   1.890
 5561TIP3    H116605   3.318   8.039   1.968
 5561TIP3    H216606   3.294   7.896   1.924
 5562TIP3   OH216607   2.956   7.845   2.405
 5562TIP3    H116608   2.895   7.900   2.454
 5562TIP3    H216609   2.900   7.791   2.350
 5563TIP3   OH216610   3.235   7.236   1.183
 5563TIP3    H116611   3.310   7.278   1.226
 5563TIP3    H216612   3.250   7.250   1.090
 5564TIP3   OH216613   2.696   7.412   2.554
 5564TIP3    H116614   2.711   7.500   2.589
 5564TIP3    H216615   2.601   7.405   2.548
 5565TIP3   OH216616   3.034   7.933   1.453
 5565TIP3    H116617   3.124   7.961   1.467
 5565TIP3    H216618   2.981   7.991   1.507
 5566TIP3   OH216619   2.743   7.965   2.522
 5566TIP3    H116620   2.681   8.002   2.459
 5566TIP3    H216621   2.689   7.915   2.583
 5567TIP3   OH216622   3.769   6.453   1.230
 5567TIP3    H116623   3.692   6.470   1.284
 5567TIP3    H216624   3.774   6.527   1.170
 5568TIP3   OH216625   2.543   7.188   1.521
 5568TIP3    H116626   2.463   7.228   1.490
 5568TIP3    H216627   2.519   7.096   1.537
 5569TIP3   OH216628   3.555   7.868   0.930
 5569TIP3    H116629   3.542   7.902   0.841
 5569TIP3    H216630   3.566   7.774   0.918
 5570TIP3   OH216631   2.309   7.578   2.451
 5570TIP3    H116632   2.241   7.559   2.387
 5570TIP3    H216633   2.345   7.493   2.475
 5571TIP3   OH216634   2.148   7.771   2.129
 5571TIP3    H116635   2.235   7.807   2.146
 5571TIP3    H216636   2.093   7.806   2.199
 5572TIP3   OH216637   4.037   8.234   2.178
 5572TIP3    H116638   4.035   8.141   2.200
 5572TIP3    H216639   3.949   8.266   2.196
 5573TIP3   OH216640   3.115   7.987   2.232
 5573TIP3    H116641   3.129   8.078   2.257
 5573TIP3    H216642   3.051   7.954   2.295
 5574TIP3   OH216643   2.349   7.952   1.604
 5574TIP3    H116644   2.391   7.954   1.690
 5574TIP3    H216645   2.297   7.872   1.604
 5575TIP3   OH216646   3.270   8.029   0.934
 5575TIP3    H116647   3.213   8.099   0.902
 5575TIP3    H216648   3.240   8.013   1.023
 5576TIP3   OH216649   3.167   7.975   1.184
 5576TIP3    H116650   3.074   7.968   1.208
 5576TIP3    H216651   3.211   7.999   1.265
 5577TIP3   OH216652   3.908   7.351   2.423
 5577TIP3    H116653   3.825   7.361   2.376
 5577TIP3    H216654   3.927   7.257   2.418
 5578TIP3   OH216655   2.519   7.750   2.423
 5578TIP3    H116656   2.523   7.792   2.509
 5578TIP3    H216657   2.447   7.687   2.430
 5579TIP3   OH216658   2.890   6.583   2.236
 5579TIP3    H116659   2.803   6.551   2.209
 5579TIP3    H216660   2.871   6.662   2.287
 5580TIP3   OH216661   3.445   6.713   2.437
 5580TIP3    H116662   3.516   6.686   2.496
 5580TIP3    H216663   3.365   6.695   2.485
 5581TIP3   OH216664   3.663   7.133   2.354
 5581TIP3    H116665   3.624   7.129   2.442
 5581TIP3    H216666   3.648   7.223   2.326
 5582TIP3   OH216667   3.276   7.275   0.924
 5582TIP3    H116668   3.243   7.250   0.838
 5582TIP3    H216669   3.368   7.294   0.910
 5583TIP3   OH216670   3.049   6.636   1.206
 5583TIP3    H116671   3.012   6.642   1.294
 5583TIP3    H216672   3.013   6.554   1.171
 5584TIP3   OH216673   2.838   7.117   2.245
 5584TIP3    H116674   2.795   7.126   2.330
 5584TIP3    H216675   2.815   7.197   2.198
 5585TIP3   OH216676   2.717   6.998   1.767
 5585TIP3    H116677   2.629   6.970   1.791
 5585TIP3    H216678   2.729   6.965   1.677
 5586TIP3   OH216679   3.201   7.085   1.497
 5586TIP3    H116680   3.158   7.162   1.459
 5586TIP3    H216681   3.258   7.053   1.427
 5587TIP3   OH216682   3.390   7.338   2.566
 5587TIP3    H116683   3.363   7.270   2.627
 5587TIP3    H216684   3.483   7.353   2.586
 5588TIP3   OH216685   3.368   7.091   1.719
 5588TIP3    H116686   3.300   7.109   1.653
 5588TIP3    H216687   3.416   7.016   1.684
 5589TIP3   OH216688   2.682   7.133   2.470
 5589TIP3    H116689   2.695   7.205   2.533
 5589TIP3    H216690   2.678   7.055   2.525
 5590TIP3   OH216691   2.713   6.616   1.180
 5590TIP3    H116692   2.703   6.615   1.275
 5590TIP3    H216693   2.635   6.660   1.148
 5591TIP3   OH216694   2.294   6.654   2.031
 5591TIP3    H116695   2.384   6.686   2.028
 5591TIP3    H216696   2.280   6.612   1.946
 5592TIP3   OH216697   2.180   6.632   1.550
 5592TIP3    H116698   2.226   6.665   1.473
 5592TIP3    H216699   2.117   6.700   1.572
 5593TIP3   OH216700   3.410   7.347   2.141
 5593TIP3    H116701   3.437   7.280   2.079
 5593TIP3    H216702   3.368   7.299   2.212
 5594TIP3   OH216703   3.085   6.801   1.823
 5594TIP3    H116704   3.008   6.795   1.880
 5594TIP3    H216705   3.159   6.784   1.882
 5595TIP3   OH216706   2.481   6.867   1.826
 5595TIP3    H116707   2.393   6.872   1.788
 5595TIP3    H216708   2.512   6.779   1.805
 5596TIP3   OH216709   2.733   6.884   1.518
 5596TIP3    H116710   2.828   6.889   1.507
 5596TIP3    H216711   2.698   6.897   1.430
 5597TIP3   OH216712   3.534   6.881   2.028
 5597TIP3    H116713   3.512   6.897   2.120
 5597TIP3    H216714   3.470   6.815   2.000
 5598TIP3   OH216715   2.615   6.908   1.270
 5598TIP3    H116716   2.549   6.858   1.224
 5598TIP3    H216717   2.668   6.949   1.201
 5599TIP3   OH216718   2.717   7.647   2.695
 5599TIP3    H116719   2.787   7.686   2.748
 5599TIP3    H216720   2.643   7.706   2.706
 5600TIP3   OH216721   3.134   7.161   1.921
 5600TIP3    H116722   3.197   7.106   1.874
 5600TIP3    H216723   3.130   7.123   2.009
 5601TIP3   OH216724   2.628   6.625   1.813
 5601TIP3    H116725   2.597   6.554   1.869
 5601TIP3    H216726   2.659   6.580   1.734
 5602TIP3   OH216727   3.106   7.071   2.185
 5602TIP3    H116728   3.018   7.098   2.213
 5602TIP3    H216729   3.165   7.122   2.240
 5603TIP3   OH216730   2.837   7.437   1.291
 5603TIP3    H116731   2.770   7.371   1.274
 5603TIP3    H216732   2.818   7.469   1.379
 5604TIP3   OH216733   3.725   7.667   1.912
 5604TIP3    H116734   3.766   7.716   1.840
 5604TIP3    H216735   3.647   7.628   1.873
 5605TIP3   OH216736   3.303   6.732   1.219
 5605TIP3    H116737   3.209   6.712   1.212
 5605TIP3    H216738   3.306   6.828   1.227
 5606TIP3   OH216739   3.253   7.731   2.295
 5606TIP3    H116740   3.299   7.724   2.379
 5606TIP3    H216741   3.191   7.803   2.308
 5607TIP3   OH216742   3.368   6.996   1.288
 5607TIP3    H116743   3.463   6.991   1.298
 5607TIP3    H216744   3.355   7.060   1.218
 5608TIP3   OH216745   2.533   7.416   1.943
 5608TIP3    H116746   2.574   7.406   1.857
 5608TIP3    H216747   2.600   7.388   2.005
 5609TIP3   OH216748   3.010   7.583   1.137
 5609TIP3    H116749   2.962   7.662   1.114
 5609TIP3    H216750   2.945   7.526   1.178
 5610TIP3   OH216751   2.421   7.362   2.590
 5610TIP3    H116752   2.438   7.341   2.682
 5610TIP3    H216753   2.350   7.302   2.565
 5611TIP3   OH216754   3.157   7.486   2.607
 5611TIP3    H116755   3.089   7.425   2.579
 5611TIP3    H216756   3.239   7.446   2.578
 5612TIP3   OH216757   3.383   8.011   2.167
 5612TIP3    H116758   3.291   7.987   2.176
 5612TIP3    H216759   3.411   8.033   2.255
 5613TIP3   OH216760   3.767   7.106   1.148
 5613TIP3    H116761   3.706   7.055   1.095
 5613TIP3    H216762   3.775   7.189   1.101
 5614TIP3   OH216763   4.030   7.948   2.187
 5614TIP3    H116764   3.936   7.937   2.175
 5614TIP3    H216765   4.068   7.924   2.102
 5615TIP3   OH216766   3.494   7.537   1.799
 5615TIP3    H116767   3.411   7.508   1.835
 5615TIP3    H216768   3.535   7.458   1.764
 5616TIP3   OH216769   2.658   7.763   1.621
 5616TIP3    H116770   2.648   7.840   1.565
 5616TIP3    H216771   2.578   7.761   1.674
 5617TIP3   OH216772   2.211   7.051   1.312
 5617TIP3    H116773   2.260   7.130   1.336
 5617TIP3    H216774   2.135   7.051   1.370
 5618TIP3   OH216775   2.789   7.537   1.538
 5618TIP3    H116776   2.745   7.619   1.560
 5618TIP3    H216777   2.753   7.474   1.600
 5619TIP3   OH216778   2.950   8.132   2.045
 5619TIP3    H116779   2.999   8.206   2.009
 5619TIP3    H216780   3.016   8.078   2.088
 5620TIP3   OH216781   2.580   7.993   1.468
 5620TIP3    H116782   2.491   7.984   1.503
 5620TIP3    H216783   2.609   8.079   1.499
 5621TIP3   OH216784   3.305   7.743   2.024
 5621TIP3    H116785   3.288   7.737   2.118
 5621TIP3    H216786   3.388   7.697   2.011
 5622TIP3   OH216787   3.538   8.218   2.071
 5622TIP3    H116788   3.492   8.144   2.110
 5622TIP3    H216789   3.469   8.272   2.033
 5623TIP3   OH216790   3.590   8.102   0.737
 5623TIP3    H116791   3.672   8.145   0.761
 5623TIP3    H216792   3.522   8.165   0.759
 5624TIP3   OH216793   2.674   6.883   2.626
 5624TIP3    H116794   2.608   6.924   2.682
 5624TIP3    H216795   2.715   6.817   2.681
 5625TIP3   OH216796   2.374   7.907   2.235
 5625TIP3    H116797   2.432   7.844   2.277
 5625TIP3    H216798   2.387   7.988   2.283
 5626TIP3   OH216799   2.648   7.601   0.936
 5626TIP3    H116800   2.660   7.513   0.902
 5626TIP3    H216801   2.624   7.589   1.028
 5627TIP3   OH216802   2.590   7.611   1.208
 5627TIP3    H116803   2.664   7.577   1.259
 5627TIP3    H216804   2.599   7.706   1.214
 5628TIP3   OH216805   2.315   7.296   1.407
 5628TIP3    H116806   2.250   7.340   1.461
 5628TIP3    H216807   2.335   7.358   1.337
 5629TIP3   OH216808   3.471   6.943   2.289
 5629TIP3    H116809   3.550   6.987   2.320
 5629TIP3    H216810   3.463   6.865   2.344
 5630TIP3   OH216811   3.360   6.686   1.486
 5630TIP3    H116812   3.341   6.703   1.393
 5630TIP3    H216813   3.405   6.764   1.517
 5631TIP3   OH216814   2.870   7.815   1.109
 5631TIP3    H116815   2.791   7.846   1.154
 5631TIP3    H216816   2.852   7.832   1.016
 5632TIP3   OH216817   3.015   6.890   1.569
 5632TIP3    H116818   3.079   6.957   1.543
 5632TIP3    H216819   3.038   6.870   1.659
 5633TIP3   OH216820   3.316   7.179   2.337
 5633TIP3    H116821   3.341   7.217   2.421
 5633TIP3    H216822   3.363   7.096   2.334
 5634TIP3   OH216823   3.171   6.586   1.659
 5634TIP3    H116824   3.150   6.664   1.710
 5634TIP3    H216825   3.241   6.614   1.600
 5635TIP3   OH216826   2.621   7.884   1.218
 5635TIP3    H116827   2.559   7.928   1.161
 5635TIP3    H216828   2.610   7.925   1.303
 5636TIP3   OH216829   2.689   6.606   1.458
 5636TIP3    H116830   2.676   6.695   1.490
 5636TIP3    H216831   2.784   6.592   1.464
 5637TIP3   OH216832   3.927   7.077   2.331
 5637TIP3    H116833   3.832   7.086   2.343
 5637TIP3    H216834   3.936   7.013   2.260
 5638TIP3   OH216835   3.590   7.282   1.720
 5638TIP3    H116836   3.516   7.222   1.730
 5638TIP3    H216837   3.659   7.243   1.773
 5639TIP3   OH216838   2.339   7.486   1.205
 5639TIP3    H116839   2.409   7.551   1.216
 5639TIP3    H216840   2.373   7.427   1.138
 5640TIP3   OH216841   2.241   6.773   1.326
 5640TIP3    H116842   2.237   6.868   1.317
 5640TIP3    H216843   2.179   6.740   1.261
 5641TIP3   OH216844   3.558   8.233   1.653
 5641TIP3    H116845   3.515   8.298   1.598
 5641TIP3    H216846   3.650   8.261   1.655
 5642TIP3   OH216847   2.605   6.517   2.230
 5642TIP3    H116848   2.580   6.485   2.143
 5642TIP3    H216849   2.608   6.439   2.285
 5643TIP3   OH216850   2.184   7.725   1.607
 5643TIP3    H116851   2.147   7.760   1.687
 5643TIP3    H216852   2.130   7.762   1.537
 5644TIP3   OH216853   2.442   8.139   2.653
 5644TIP3    H116854   2.472   8.178   2.735
 5644TIP3    H216855   2.356   8.102   2.674
 5645TIP3   OH216856   2.830   8.159   2.694
 5645TIP3    H116857   2.921   8.133   2.702
 5645TIP3    H216858   2.793   8.098   2.630
 5646TIP3   OH216859   2.804   7.804   0.839
 5646TIP3    H116860   2.753   7.728   0.865
 5646TIP3    H216861   2.878   7.768   0.789
 5647TIP3   OH216862   3.461   8.064   2.415
 5647TIP3    H116863   3.446   8.013   2.494
 5647TIP3    H216864   3.519   8.135   2.442
 5648TIP3   OH216865   3.264   7.796   0.791
 5648TIP3    H116866   3.271   7.868   0.854
 5648TIP3    H216867   3.268   7.840   0.706
 5649TIP3   OH216868   2.468   7.656   2.875
 5649TIP3    H116869   2.503   7.567   2.868
 5649TIP3    H216870   2.389   7.655   2.821
 5650TIP3   OH216871   2.476   7.305   1.055
 5650TIP3    H116872   2.530   7.280   1.130
 5650TIP3    H216873   2.538   7.315   0.983
 5651TIP3   OH216874   3.089   7.757   2.629
 5651TIP3    H116875   3.049   7.777   2.545
 5651TIP3    H216876   3.123   7.668   2.619
 5652TIP3   OH216877   2.972   7.503   0.862
 5652TIP3    H116878   2.988   7.506   0.956
 5652TIP3    H216879   2.962   7.409   0.842
 5653TIP3   OH216880   3.564   7.795   2.230
 5653TIP3    H116881   3.642   7.831   2.187
 5653TIP3    H216882   3.495   7.858   2.210
 5654TIP3   OH216883   2.596   7.407   2.850
 5654TIP3    H116884   2.667   7.424   2.789
 5654TIP3    H216885   2.629   7.434   2.936
 5655TIP3   OH216886   2.651   7.240   1.262
 5655TIP3    H116887   2.621   7.204   1.346
 5655TIP3    H216888   2.685   7.165   1.214
 5656TIP3   OH216889   2.953   7.313   2.508
 5656TIP3    H116890   2.867   7.354   2.515
 5656TIP3    H216891   2.987   7.343   2.423
 5657TIP3   OH216892   2.759   7.054   1.087
 5657TIP3    H116893   2.731   7.056   0.996
 5657TIP3    H216894   2.854   7.059   1.083
 5658TIP3   OH216895   3.447   7.679   2.587
 5658TIP3    H116896   3.520   7.647   2.534
 5658TIP3    H216897   3.447   7.623   2.664
 5659TIP3   OH216898   3.524   7.356   0.841
 5659TIP3    H116899   3.503   7.308   0.761
 5659TIP3    H216900   3.497   7.446   0.823
 5660TIP3   OH216901   3.047   7.084   2.623
 5660TIP3    H116902   3.053   7.014   2.558
 5660TIP3    H216903   3.015   7.160   2.574
 5661TIP3   OH216904   3.061   6.893   2.415
 5661TIP3    H116905   3.088   6.928   2.330
 5661TIP3    H216906   2.972   6.862   2.401
 5662TIP3   OH216907   3.076   7.412   2.288
 5662TIP3    H116908   3.164   7.450   2.280
 5662TIP3    H216909   3.021   7.468   2.234
 5663TIP3   OH216910   3.658   7.370   2.667
 5663TIP3    H116911   3.691   7.281   2.675
 5663TIP3    H216912   3.736   7.423   2.652
 5664TIP3   OH216913   3.687   7.638   2.412
 5664TIP3    H116914   3.634   7.695   2.356
 5664TIP3    H216915   3.777   7.652   2.381
 5665TIP3   OH216916   2.934   7.173   2.865
 5665TIP3    H116917   2.865   7.111   2.888
 5665TIP3    H216918   2.961   7.147   2.777
 5666TIP3   OH216919   3.182   6.662   2.518
 5666TIP3    H116920   3.141   6.741   2.485
 5666TIP3    H216921   3.117   6.593   2.505
 5667TIP3   OH216922   3.304   7.130   2.722
 5667TIP3    H116923   3.296   7.118   2.817
 5667TIP3    H216924   3.218   7.106   2.687
 5668TIP3   OH216925   3.553   7.088   2.597
 5668TIP3    H116926   3.474   7.083   2.650
 5668TIP3    H216927   3.623   7.058   2.655
 5669TIP3   OH216928   3.787   7.050   2.744
 5669TIP3    H116929   3.802   6.956   2.749
 5669TIP3    H216930   3.783   7.079   2.835
 5670TIP3   OH216931   2.768   6.955   2.940
 5670TIP3    H116932   2.777   6.866   2.905
 5670TIP3    H216933   2.806   6.951   3.028
 5671TIP3   OH216934   3.244   6.640   2.785
 5671TIP3    H116935   3.311   6.572   2.782
 5671TIP3    H216936   3.216   6.651   2.694
 5672TIP3   OH216937   3.342   6.853   2.929
 5672TIP3    H116938   3.312   6.781   2.875
 5672TIP3    H216939   3.269   6.915   2.930
 5673TIP3   OH216940   2.065   7.461   1.216
 5673TIP3    H116941   2.159   7.479   1.217
 5673TIP3    H216942   2.058   7.371   1.183
 5674TIP3   OH216943   2.121   7.844   1.849
 5674TIP3    H116944   2.106   7.786   1.924
 5674TIP3    H216945   2.181   7.911   1.881
 5675TIP3   OH216946   3.825   8.297   1.659
 5675TIP3    H116947   3.862   8.308   1.747
 5675TIP3    H216948   3.893   8.328   1.600
 5676TIP3   OH216949   3.953   8.260   1.902
 5676TIP3    H116950   3.883   8.197   1.917
 5676TIP3    H216951   3.984   8.283   1.989
 5677TIP3   OH216952   3.880   8.044   2.514
 5677TIP3    H116953   3.825   8.048   2.592
 5677TIP3    H216954   3.939   8.119   2.522
 5678TIP3   OH216955   3.729   7.563   1.134
 5678TIP3    H116956   3.789   7.637   1.119
 5678TIP3    H216957   3.767   7.517   1.208
 5679TIP3   OH216958   3.856   7.413   1.324
 5679TIP3    H116959   3.791   7.366   1.377
 5679TIP3    H216960   3.921   7.443   1.388
 5680TIP3   OH216961   3.906   7.804   1.756
 5680TIP3    H116962   3.963   7.740   1.715
 5680TIP3    H216963   3.910   7.880   1.698
 5681TIP3   OH216964   3.734   8.090   1.925
 5681TIP3    H116965   3.670   8.143   1.971
 5681TIP3    H216966   3.685   8.047   1.856
 5682TIP3   OH216967   3.757   7.334   0.992
 5682TIP3    H116968   3.672   7.323   0.951
 5682TIP3    H216969   3.750   7.416   1.040
 5683TIP3   OH216970   3.585   6.988   0.984
 5683TIP3    H116971   3.628   7.034   0.912
 5683TIP3    H216972   3.569   6.900   0.950
 5684TIP3   OH216973   3.657   7.267   1.451
 5684TIP3    H116974   3.661   7.173   1.437
 5684TIP3    H216975   3.638   7.277   1.544
 5685TIP3   OH216976   2.288   7.315   2.220
 5685TIP3    H116977   2.283   7.292   2.127
 5685TIP3    H216978   2.382   7.319   2.238
 5686TIP3   OH216979   3.944   7.688   2.315
 5686TIP3    H116980   4.009   7.619   2.301
 5686TIP3    H216981   3.964   7.754   2.249
 5687TIP3   OH216982   4.119   7.477   2.302
 5687TIP3    H116983   4.046   7.432   2.345
 5687TIP3    H216984   4.195   7.424   2.323
 5688TIP3   OH216985   3.565   6.729   0.892
 5688TIP3    H116986   3.633   6.696   0.951
 5688TIP3    H216987   3.487   6.679   0.915
 5689TIP3   OH216988   3.653   6.988   1.363
 5689TIP3    H116989   3.698   6.904   1.371
 5689TIP3    H216990   3.697   7.033   1.291
 5690TIP3   OH216991   3.805   7.162   1.858
 5690TIP3    H116992   3.887   7.177   1.810
 5690TIP3    H216993   3.822   7.199   1.945
 5691TIP3   OH216994   3.885   7.308   2.087
 5691TIP3    H116995   3.813   7.336   2.142
 5691TIP3    H216996   3.916   7.388   2.045
 5692TIP3   OH216997   2.518   6.991   2.831
 5692TIP3    H116998   2.601   6.996   2.879
 5692TIP3    H216999   2.474   6.915   2.869
 5693TIP3   OH217000   4.345   6.908   2.628
 5693TIP3    H117001   4.414   6.859   2.582
 5693TIP3    H217002   4.303   6.960   2.561
 5694TIP3   OH217003   3.766   6.738   1.404
 5694TIP3    H117004   3.811   6.719   1.487
 5694TIP3    H217005   3.702   6.668   1.395
 5695TIP3   OH217006   2.464   6.758   2.304
 5695TIP3    H117007   2.496   6.669   2.294
 5695TIP3    H217008   2.528   6.812   2.257
 5696TIP3   OH217009   2.315   7.017   2.290
 5696TIP3    H117010   2.353   7.023   2.202
 5696TIP3    H217011   2.293   7.107   2.313
 5697TIP3   OH217012   4.195   7.030   2.436
 5697TIP3    H117013   4.115   7.068   2.474
 5697TIP3    H217014   4.163   6.960   2.380
 5698TIP3   OH217015   3.790   6.659   1.046
 5698TIP3    H117016   3.837   6.594   0.994
 5698TIP3    H217017   3.851   6.733   1.052
 5699TIP3   OH217018   2.234   6.524   1.793
 5699TIP3    H117019   2.146   6.498   1.819
 5699TIP3    H217020   2.223   6.565   1.708
 5700TIP3   OH217021   3.501   8.132   1.342
 5700TIP3    H117022   3.510   8.122   1.247
 5700TIP3    H217023   3.588   8.157   1.372
 5701TIP3   OH217024   2.536   7.877   2.683
 5701TIP3    H117025   2.507   7.966   2.663
 5701TIP3    H217026   2.513   7.864   2.775
 5702TIP3   OH217027   2.742   8.005   2.186
 5702TIP3    H117028   2.679   8.074   2.209
 5702TIP3    H217029   2.807   8.049   2.131
 5703TIP3   OH217030   3.188   8.248   2.224
 5703TIP3    H117031   3.242   8.285   2.294
 5703TIP3    H217032   3.236   8.268   2.144
 5704TIP3   OH217033   4.108   6.782   2.322
 5704TIP3    H117034   4.021   6.768   2.285
 5704TIP3    H217035   4.147   6.695   2.325
 5705TIP3   OH217036   3.282   8.290   1.960
 5705TIP3    H117037   3.201   8.341   1.964
 5705TIP3    H217038   3.288   8.263   1.868
 5706TIP3   OH217039   2.296   8.008   1.990
 5706TIP3    H117040   2.322   7.976   2.077
 5706TIP3    H217041   2.372   7.992   1.935
 5707TIP3   OH217042   2.501   7.936   1.830
 5707TIP3    H117043   2.511   7.855   1.880
 5707TIP3    H217044   2.586   7.979   1.837
 5708TIP3   OH217045   2.760   8.015   1.867
 5708TIP3    H117046   2.787   7.924   1.881
 5708TIP3    H217047   2.824   8.066   1.915
 5709TIP3   OH217048   3.307   6.695   1.958
 5709TIP3    H117049   3.268   6.624   2.009
 5709TIP3    H217050   3.378   6.654   1.910
 5710TIP3   OH217051   3.821   6.620   1.858
 5710TIP3    H117052   3.855   6.668   1.782
 5710TIP3    H217053   3.727   6.636   1.856
 5711TIP3   OH217054   3.934   6.686   1.617
 5711TIP3    H117055   4.007   6.630   1.589
 5711TIP3    H217056   3.967   6.775   1.606
 5712TIP3   OH217057   2.540   6.420   1.975
 5712TIP3    H117058   2.453   6.379   1.977
 5712TIP3    H217059   2.601   6.346   1.973
 5713TIP3   OH217060   2.347   6.304   1.607
 5713TIP3    H117061   2.387   6.347   1.532
 5713TIP3    H217062   2.328   6.375   1.668
 5714TIP3   OH217063   3.026   6.438   1.851
 5714TIP3    H117064   3.077   6.484   1.784
 5714TIP3    H217065   3.069   6.461   1.933
 5715TIP3   OH217066   3.532   6.586   1.835
 5715TIP3    H117067   3.539   6.552   1.746
 5715TIP3    H217068   3.538   6.509   1.891
 5716TIP3   OH217069   3.579   6.532   1.410
 5716TIP3    H117070   3.498   6.578   1.432
 5716TIP3    H217071   3.567   6.444   1.447
 5717TIP3   OH217072   2.058   7.806   1.374
 5717TIP3    H117073   1.980   7.790   1.321
 5717TIP3    H217074   2.126   7.830   1.311
 5718TIP3   OH217075   2.486   6.424   1.382
 5718TIP3    H117076   2.532   6.358   1.329
 5718TIP3    H217077   2.555   6.482   1.413
 5719TIP3   OH217078   2.963   6.639   1.469
 5719TIP3    H117079   3.019   6.582   1.522
 5719TIP3    H217080   2.983   6.727   1.501
 5720TIP3   OH217081   1.418   7.899   2.740
 5720TIP3    H117082   1.419   7.941   2.654
 5720TIP3    H217083   1.511   7.886   2.760
 5721TIP3   OH217084   3.547   8.106   1.074
 5721TIP3    H117085   3.517   8.028   1.027
 5721TIP3    H217086   3.531   8.178   1.013
 5722TIP3   OH217087   2.777   6.690   2.836
 5722TIP3    H117088   2.742   6.623   2.896
 5722TIP3    H217089   2.870   6.694   2.858
 5723TIP3   OH217090   3.025   6.692   2.958
 5723TIP3    H117091   3.103   6.670   2.908
 5723TIP3    H217092   3.017   6.622   3.023
 5724TIP3   OH217093   2.183   7.840   1.065
 5724TIP3    H117094   2.158   7.752   1.037
 5724TIP3    H217095   2.272   7.852   1.029
 5725TIP3   OH217096   3.851   6.780   2.747
 5725TIP3    H117097   3.867   6.753   2.837
 5725TIP3    H217098   3.937   6.773   2.704
 5726TIP3   OH217099   3.775   8.323   2.181
 5726TIP3    H117100   3.695   8.275   2.157
 5726TIP3    H217101   3.757   8.413   2.154
 5727TIP3   OH217102   4.980   7.670   1.134
 5727TIP3    H117103   4.950   7.759   1.118
 5727TIP3    H217104   4.996   7.634   1.046
 5728TIP3   OH217105   5.014   7.665   1.449
 5728TIP3    H117106   5.056   7.646   1.533
 5728TIP3    H217107   4.976   7.581   1.422
 5729TIP3   OH217108   4.340   7.547   1.770
 5729TIP3    H117109   4.375   7.494   1.841
 5729TIP3    H217110   4.417   7.571   1.718
 5730TIP3   OH217111   5.287   8.027   1.225
 5730TIP3    H117112   5.256   7.959   1.285
 5730TIP3    H217113   5.378   8.004   1.207
 5731TIP3   OH217114   4.332   7.989   1.472
 5731TIP3    H117115   4.309   7.896   1.477
 5731TIP3    H217116   4.420   7.994   1.509
 5732TIP3   OH217117   4.015   7.190   1.249
 5732TIP3    H117118   3.973   7.275   1.268
 5732TIP3    H217119   3.945   7.138   1.210
 5733TIP3   OH217120   4.086   7.488   1.461
 5733TIP3    H117121   4.137   7.411   1.488
 5733TIP3    H217122   4.148   7.540   1.410
 5734TIP3   OH217123   7.857   0.130   1.196
 5734TIP3    H117124   7.935   0.075   1.207
 5734TIP3    H217125   7.812   0.124   1.280
 5735TIP3   OH217126   4.849   7.889   1.419
 5735TIP3    H117127   4.885   7.803   1.397
 5735TIP3    H217128   4.921   7.934   1.463
 5736TIP3   OH217129   5.858   7.229   1.487
 5736TIP3    H117130   5.884   7.308   1.534
 5736TIP3    H217131   5.882   7.246   1.396
 5737TIP3   OH217132   5.257   7.409   1.507
 5737TIP3    H117133   5.306   7.332   1.535
 5737TIP3    H217134   5.212   7.381   1.427
 5738TIP3   OH217135   4.584   7.069   1.431
 5738TIP3    H117136   4.573   7.139   1.367
 5738TIP3    H217137   4.524   7.000   1.402
 5739TIP3   OH217138   5.388   7.212   1.131
 5739TIP3    H117139   5.438   7.193   1.210
 5739TIP3    H217140   5.439   7.174   1.059
 5740TIP3   OH217141   4.233   7.275   1.553
 5740TIP3    H117142   4.314   7.257   1.599
 5740TIP3    H217143   4.239   7.225   1.472
 5741TIP3   OH217144   4.649   7.457   1.386
 5741TIP3    H117145   4.743   7.439   1.385
 5741TIP3    H217146   4.611   7.386   1.335
 5742TIP3   OH217147   5.925   7.442   1.647
 5742TIP3    H117148   5.840   7.485   1.645
 5742TIP3    H217149   5.971   7.484   1.721
 5743TIP3   OH217150   4.595   7.064   1.875
 5743TIP3    H117151   4.540   7.104   1.807
 5743TIP3    H217152   4.546   7.075   1.956
 5744TIP3   OH217153   4.936   7.931   1.062
 5744TIP3    H117154   4.909   7.882   0.985
 5744TIP3    H217155   4.976   8.011   1.026
 5745TIP3   OH217156   4.694   7.831   1.644
 5745TIP3    H117157   4.640   7.902   1.679
 5745TIP3    H217158   4.736   7.869   1.567
 5746TIP3   OH217159   5.539   7.157   1.341
 5746TIP3    H117160   5.509   7.085   1.396
 5746TIP3    H217161   5.543   7.233   1.399
 5747TIP3   OH217162   4.475   7.180   1.654
 5747TIP3    H117163   4.533   7.253   1.677
 5747TIP3    H217164   4.517   7.139   1.578
 5748TIP3   OH217165   4.533   8.029   1.751
 5748TIP3    H117166   4.519   8.120   1.725
 5748TIP3    H217167   4.458   8.009   1.807
 5749TIP3   OH217168   3.921   7.749   1.063
 5749TIP3    H117169   3.888   7.775   0.977
 5749TIP3    H217170   3.959   7.829   1.100
 5750TIP3   OH217171   5.330   8.274   1.350
 5750TIP3    H117172   5.289   8.187   1.346
 5750TIP3    H217173   5.380   8.281   1.269
 5751TIP3   OH217174   5.666   7.129   1.654
 5751TIP3    H117175   5.579   7.142   1.616
 5751TIP3    H217176   5.727   7.153   1.584
 5752TIP3   OH217177   4.953   6.793   1.621
 5752TIP3    H117178   4.921   6.734   1.553
 5752TIP3    H217179   4.875   6.823   1.666
 5753TIP3   OH217180   5.090   8.302   0.938
 5753TIP3    H117181   5.090   8.210   0.913
 5753TIP3    H217182   5.062   8.348   0.859
 5754TIP3   OH217183   5.106   8.039   0.861
 5754TIP3    H117184   5.081   7.971   0.798
 5754TIP3    H217185   5.201   8.037   0.861
 5755TIP3   OH217186   5.630   8.065   1.626
 5755TIP3    H117187   5.589   8.005   1.564
 5755TIP3    H217188   5.592   8.151   1.604
 5756TIP3   OH217189   4.787   7.473   0.814
 5756TIP3    H117190   4.718   7.539   0.804
 5756TIP3    H217191   4.849   7.493   0.744
 5757TIP3   OH217192   4.842   7.325   0.550
 5757TIP3    H117193   4.911   7.325   0.616
 5757TIP3    H217194   4.804   7.237   0.554
 5758TIP3   OH217195   5.770   7.810   1.531
 5758TIP3    H117196   5.684   7.843   1.504
 5758TIP3    H217197   5.820   7.805   1.450
 5759TIP3   OH217198   5.202   7.667   0.713
 5759TIP3    H117199   5.176   7.632   0.798
 5759TIP3    H217200   5.285   7.711   0.730
 5760TIP3   OH217201   5.436   7.659   1.767
 5760TIP3    H117202   5.438   7.739   1.821
 5760TIP3    H217203   5.350   7.661   1.726
 5761TIP3   OH217204   4.481   7.630   1.245
 5761TIP3    H117205   4.422   7.577   1.191
 5761TIP3    H217206   4.545   7.568   1.279
 5762TIP3   OH217207   4.618   8.034   1.417
 5762TIP3    H117208   4.570   8.022   1.335
 5762TIP3    H217209   4.701   7.988   1.404
 5763TIP3   OH217210   4.555   7.598   1.603
 5763TIP3    H117211   4.591   7.557   1.524
 5763TIP3    H217212   4.608   7.678   1.615
 5764TIP3   OH217213   5.051   8.218   1.436
 5764TIP3    H117214   5.100   8.250   1.512
 5764TIP3    H217215   5.034   8.125   1.457
 5765TIP3   OH217216   4.732   8.136   1.915
 5765TIP3    H117217   4.672   8.195   1.961
 5765TIP3    H217218   4.675   8.081   1.861
 5766TIP3   OH217219   4.946   7.594   0.624
 5766TIP3    H117220   5.034   7.615   0.654
 5766TIP3    H217221   4.958   7.561   0.535
 5767TIP3   OH217222   4.487   7.674   2.045
 5767TIP3    H117223   4.496   7.766   2.070
 5767TIP3    H217224   4.392   7.660   2.039
 5768TIP3   OH217225   4.835   8.211   0.789
 5768TIP3    H117226   4.822   8.250   0.875
 5768TIP3    H217227   4.795   8.125   0.795
 5769TIP3   OH217228   4.522   8.297   1.998
 5769TIP3    H117229   4.486   8.311   1.910
 5769TIP3    H217230   4.448   8.265   2.050
 5770TIP3   OH217231   5.620   6.896   0.643
 5770TIP3    H117232   5.593   6.822   0.698
 5770TIP3    H217233   5.598   6.868   0.554
 5771TIP3   OH217234   4.305   7.494   1.084
 5771TIP3    H117235   4.212   7.504   1.063
 5771TIP3    H217236   4.329   7.409   1.046
 5772TIP3   OH217237   4.115   7.851   1.946
 5772TIP3    H117238   4.045   7.830   1.884
 5772TIP3    H217239   4.151   7.766   1.970
 5773TIP3   OH217240   3.944   8.039   1.616
 5773TIP3    H117241   4.035   8.070   1.619
 5773TIP3    H217242   3.892   8.114   1.645
 5774TIP3   OH217243   8.811   0.098   1.755
 5774TIP3    H117244   8.806   0.004   1.741
 5774TIP3    H217245   8.763   0.112   1.837
 5775TIP3   OH217246   4.906   8.277   1.756
 5775TIP3    H117247   4.916   8.366   1.790
 5775TIP3    H217248   4.844   8.236   1.816
 5776TIP3   OH217249   4.135   8.255   1.134
 5776TIP3    H117250   4.173   8.254   1.222
 5776TIP3    H217251   4.088   8.172   1.126
 5777TIP3   OH217252   5.676   7.596   1.955
 5777TIP3    H117253   5.611   7.594   1.885
 5777TIP3    H217254   5.708   7.506   1.961
 5778TIP3   OH217255   4.308   8.043   1.913
 5778TIP3    H117256   4.339   8.060   2.002
 5778TIP3    H217257   4.243   7.974   1.923
 5779TIP3   OH217258   4.704   6.862   1.722
 5779TIP3    H117259   4.622   6.823   1.691
 5779TIP3    H217260   4.676   6.937   1.774
 5780TIP3   OH217261   5.243   6.962   1.934
 5780TIP3    H117262   5.312   6.939   1.996
 5780TIP3    H217263   5.162   6.946   1.981
 5781TIP3   OH217264   5.458   7.395   1.846
 5781TIP3    H117265   5.417   7.390   1.933
 5781TIP3    H217266   5.435   7.481   1.813
 5782TIP3   OH217267   4.893   6.853   0.769
 5782TIP3    H117268   4.840   6.854   0.848
 5782TIP3    H217269   4.832   6.827   0.700
 5783TIP3   OH217270   4.639   7.380   1.749
 5783TIP3    H117271   4.592   7.385   1.832
 5783TIP3    H217272   4.618   7.461   1.704
 5784TIP3   OH217273   4.507   7.262   1.248
 5784TIP3    H117274   4.417   7.239   1.273
 5784TIP3    H217275   4.520   7.219   1.163
 5785TIP3   OH217276   4.970   7.288   1.070
 5785TIP3    H117277   4.969   7.378   1.036
 5785TIP3    H217278   5.040   7.244   1.021
 5786TIP3   OH217279   5.181   7.600   2.059
 5786TIP3    H117280   5.156   7.533   2.122
 5786TIP3    H217281   5.274   7.617   2.077
 5787TIP3   OH217282   5.160   7.320   1.266
 5787TIP3    H117283   5.086   7.314   1.205
 5787TIP3    H217284   5.228   7.265   1.227
 5788TIP3   OH217285   4.470   7.388   1.964
 5788TIP3    H117286   4.480   7.455   2.032
 5788TIP3    H217287   4.456   7.307   2.012
 5789TIP3   OH217288   4.352   6.809   0.700
 5789TIP3    H117289   4.444   6.814   0.728
 5789TIP3    H217290   4.342   6.880   0.637
 5790TIP3   OH217291   4.051   6.920   1.551
 5790TIP3    H117292   4.132   6.949   1.593
 5790TIP3    H217293   4.077   6.897   1.462
 5791TIP3   OH217294   3.992   6.851   1.047
 5791TIP3    H117295   4.052   6.825   0.978
 5791TIP3    H217296   3.976   6.945   1.032
 5792TIP3   OH217297   5.176   7.609   1.667
 5792TIP3    H117298   5.213   7.545   1.606
 5792TIP3    H217299   5.138   7.555   1.737
 5793TIP3   OH217300   4.853   6.999   1.390
 5793TIP3    H117301   4.776   7.029   1.439
 5793TIP3    H217302   4.927   7.021   1.446
 5794TIP3   OH217303   4.273   7.141   1.319
 5794TIP3    H117304   4.183   7.148   1.285
 5794TIP3    H217305   4.294   7.048   1.312
 5795TIP3   OH217306   4.546   7.099   1.025
 5795TIP3    H117307   4.635   7.103   1.058
 5795TIP3    H217308   4.551   7.137   0.938
 5796TIP3   OH217309   5.336   7.146   1.550
 5796TIP3    H117310   5.311   7.161   1.641
 5796TIP3    H217311   5.266   7.092   1.514
 5797TIP3   OH217312   4.295   7.285   0.883
 5797TIP3    H117313   4.283   7.195   0.915
 5797TIP3    H217314   4.388   7.302   0.897
 5798TIP3   OH217315   4.490   7.928   2.152
 5798TIP3    H117316   4.566   7.957   2.203
 5798TIP3    H217317   4.415   7.950   2.207
 5799TIP3   OH217318   4.923   7.400   1.423
 5799TIP3    H117319   4.998   7.357   1.383
 5799TIP3    H217320   4.918   7.364   1.512
 5800TIP3   OH217321   4.400   6.890   1.327
 5800TIP3    H117322   4.375   6.809   1.371
 5800TIP3    H217323   4.415   6.864   1.236
 5801TIP3   OH217324   4.900   7.316   1.686
 5801TIP3    H117325   4.813   7.349   1.711
 5801TIP3    H217326   4.961   7.365   1.742
 5802TIP3   OH217327   4.614   7.680   0.824
 5802TIP3    H117328   4.523   7.671   0.797
 5802TIP3    H217329   4.610   7.722   0.910
 5803TIP3   OH217330   5.521   7.900   1.440
 5803TIP3    H117331   5.531   7.925   1.348
 5803TIP3    H217332   5.429   7.874   1.448
 5804TIP3   OH217333   5.061   7.060   0.722
 5804TIP3    H117334   4.996   6.990   0.720
 5804TIP3    H217335   5.086   7.072   0.631
 5805TIP3   OH217336   5.064   8.013   1.828
 5805TIP3    H117337   5.108   7.994   1.911
 5805TIP3    H217338   5.004   8.085   1.849
 5806TIP3   OH217339   5.047   7.329   0.727
 5806TIP3    H117340   5.059   7.236   0.744
 5806TIP3    H217341   5.113   7.350   0.661
 5807TIP3   OH217342   4.333   7.712   1.462
 5807TIP3    H117343   4.377   7.692   1.380
 5807TIP3    H217344   4.387   7.670   1.529
 5808TIP3   OH217345   4.712   7.834   0.573
 5808TIP3    H117346   4.710   7.927   0.550
 5808TIP3    H217347   4.666   7.829   0.656
 5809TIP3   OH217348   4.210   7.620   2.074
 5809TIP3    H117349   4.216   7.593   2.165
 5809TIP3    H217350   4.135   7.571   2.039
 5810TIP3   OH217351   4.951   7.754   2.094
 5810TIP3    H117352   4.881   7.694   2.068
 5810TIP3    H217353   5.032   7.712   2.066
 5811TIP3   OH217354   5.167   8.298   1.671
 5811TIP3    H117355   5.077   8.282   1.701
 5811TIP3    H217356   5.213   8.327   1.749
 5812TIP3   OH217357   5.841   8.220   1.723
 5812TIP3    H117358   5.754   8.180   1.733
 5812TIP3    H217359   5.878   8.176   1.647
 5813TIP3   OH217360   5.243   7.815   1.403
 5813TIP3    H117361   5.163   7.763   1.410
 5813TIP3    H217362   5.298   7.766   1.342
 5814TIP3   OH217363   4.436   8.052   1.212
 5814TIP3    H117364   4.383   8.115   1.163
 5814TIP3    H217365   4.374   8.011   1.273
 5815TIP3   OH217366   3.995   7.346   0.790
 5815TIP3    H117367   4.011   7.400   0.868
 5815TIP3    H217368   3.902   7.357   0.773
 5816TIP3   OH217369   4.598   7.806   1.069
 5816TIP3    H117370   4.663   7.857   1.117
 5816TIP3    H217371   4.562   7.746   1.135
 5817TIP3   OH217372   7.736   0.019   1.548
 5817TIP3    H117373   7.711   0.086   1.611
 5817TIP3    H217374   7.777  -0.050   1.600
 5818TIP3   OH217375   4.358   8.221   0.983
 5818TIP3    H117376   4.273   8.245   1.019
 5818TIP3    H217377   4.398   8.303   0.957
 5819TIP3   OH217378   5.069   7.974   1.556
 5819TIP3    H117379   5.073   7.980   1.652
 5819TIP3    H217380   5.146   7.922   1.532
 5820TIP3   OH217381   8.284   0.117   1.525
 5820TIP3    H117382   8.279   0.045   1.588
 5820TIP3    H217383   8.350   0.176   1.562
 5821TIP3   OH217384   4.437   7.134   2.092
 5821TIP3    H117385   4.342   7.134   2.104
 5821TIP3    H217386   4.470   7.084   2.166
 5822TIP3   OH217387   4.189   8.239   1.755
 5822TIP3    H117388   4.233   8.170   1.804
 5822TIP3    H217389   4.116   8.266   1.812
 5823TIP3   OH217390   4.422   7.870   0.652
 5823TIP3    H117391   4.411   7.820   0.571
 5823TIP3    H217392   4.421   7.962   0.623
 5824TIP3   OH217393   4.066   7.545   0.962
 5824TIP3    H117394   4.011   7.606   1.011
 5824TIP3    H217395   4.075   7.585   0.875
 5825TIP3   OH217396   5.260   7.203   1.804
 5825TIP3    H117397   5.342   7.242   1.833
 5825TIP3    H217398   5.255   7.120   1.853
 5826TIP3   OH217399   5.021   6.994   1.005
 5826TIP3    H117400   5.033   7.026   0.915
 5826TIP3    H217401   5.110   6.983   1.039
 5827TIP3   OH217402   4.622   8.124   0.574
 5827TIP3    H117403   4.558   8.105   0.643
 5827TIP3    H217404   4.662   8.207   0.601
 5828TIP3   OH217405   4.785   7.101   1.147
 5828TIP3    H117406   4.852   7.168   1.132
 5828TIP3    H217407   4.804   7.068   1.235
 5829TIP3   OH217408   5.096   7.423   1.850
 5829TIP3    H117409   5.127   7.466   1.930
 5829TIP3    H217410   5.150   7.344   1.843
 5830TIP3   OH217411   4.959   6.818   1.210
 5830TIP3    H117412   4.937   6.884   1.276
 5830TIP3    H217413   4.993   6.869   1.135
 5831TIP3   OH217414   4.370   8.139   0.709
 5831TIP3    H117415   4.364   8.221   0.660
 5831TIP3    H217416   4.346   8.163   0.799
 5832TIP3   OH217417   4.468   6.835   1.066
 5832TIP3    H117418   4.454   6.927   1.043
 5832TIP3    H217419   4.562   6.822   1.056
 5833TIP3   OH217420   5.719   7.324   1.852
 5833TIP3    H117421   5.626   7.344   1.853
 5833TIP3    H217422   5.730   7.263   1.780
 5834TIP3   OH217423   5.390   7.485   1.258
 5834TIP3    H117424   5.305   7.441   1.255
 5834TIP3    H217425   5.429   7.454   1.340
 5835TIP3   OH217426   4.138   7.843   0.720
 5835TIP3    H117427   4.138   7.867   0.627
 5835TIP3    H217428   4.110   7.752   0.721
 5836TIP3   OH217429   3.987   7.111   0.950
 5836TIP3    H117430   4.008   7.203   0.939
 5836TIP3    H217431   3.900   7.101   0.910
 5837TIP3   OH217432   8.285   0.159   1.211
 5837TIP3    H117433   8.263   0.147   1.119
 5837TIP3    H217434   8.370   0.202   1.211
 5838TIP3   OH217435   4.453   6.753   1.675
 5838TIP3    H117436   4.420   6.719   1.592
 5838TIP3    H217437   4.455   6.677   1.734
 5839TIP3   OH217438   4.008   8.007   1.136
 5839TIP3    H117439   3.968   8.037   1.218
 5839TIP3    H217440   3.941   8.021   1.070
 5840TIP3   OH217441   7.159   0.069   2.095
 5840TIP3    H117442   7.211   0.111   2.163
 5840TIP3    H217443   7.102   0.009   2.143
 5841TIP3   OH217444   7.585   0.071   2.202
 5841TIP3    H117445   7.670   0.029   2.211
 5841TIP3    H217446   7.545   0.030   2.126
 5842TIP3   OH217447   5.274   8.373   1.903
 5842TIP3    H117448   5.252   8.320   1.980
 5842TIP3    H217449   5.327   8.445   1.939
 5843TIP3   OH217450   4.270   7.928   2.330
 5843TIP3    H117451   4.290   7.835   2.336
 5843TIP3    H217452   4.182   7.932   2.291
 5844TIP3   OH217453   4.342   7.661   0.493
 5844TIP3    H117454   4.343   7.592   0.559
 5844TIP3    H217455   4.257   7.651   0.450
 5845TIP3   OH217456   4.889   8.028   2.113
 5845TIP3    H117457   4.840   8.049   2.034
 5845TIP3    H217458   4.921   7.939   2.099
 5846TIP3   OH217459   5.350   8.059   1.727
 5846TIP3    H117460   5.413   8.123   1.694
 5846TIP3    H217461   5.267   8.106   1.727
 5847TIP3   OH217462   4.385   7.675   2.337
 5847TIP3    H117463   4.463   7.667   2.282
 5847TIP3    H217464   4.419   7.701   2.423
 5848TIP3   OH217465   4.353   7.462   0.682
 5848TIP3    H117466   4.310   7.398   0.739
 5848TIP3    H217467   4.421   7.412   0.636
 5849TIP3   OH217468   4.748   7.579   1.999
 5849TIP3    H117469   4.660   7.616   2.004
 5849TIP3    H217470   4.780   7.604   1.912
 5850TIP3   OH217471   4.547   7.314   0.567
 5850TIP3    H117472   4.563   7.246   0.502
 5850TIP3    H217473   4.600   7.388   0.538
 5851TIP3   OH217474   5.233   7.953   2.071
 5851TIP3    H117475   5.311   7.925   2.023
 5851TIP3    H217476   5.234   7.900   2.151
 5852TIP3   OH217477   4.846   7.348   2.109
 5852TIP3    H117478   4.849   7.276   2.046
 5852TIP3    H217479   4.814   7.423   2.059
 5853TIP3   OH217480   4.854   7.146   1.911
 5853TIP3    H117481   4.881   7.184   1.827
 5853TIP3    H217482   4.763   7.120   1.898
 5854TIP3   OH217483   4.870   7.665   1.770
 5854TIP3    H117484   4.958   7.699   1.757
 5854TIP3    H217485   4.813   7.727   1.724
 5855TIP3   OH217486   5.450   7.626   2.152
 5855TIP3    H117487   5.474   7.534   2.165
 5855TIP3    H217488   5.528   7.665   2.111
 5856TIP3   OH217489   5.467   7.897   1.913
 5856TIP3    H117490   5.421   7.955   1.852
 5856TIP3    H217491   5.559   7.902   1.886
 5857TIP3   OH217492   4.735   7.441   2.350
 5857TIP3    H117493   4.665   7.380   2.373
 5857TIP3    H217494   4.762   7.414   2.262
 5858TIP3   OH217495   4.977   6.917   2.011
 5858TIP3    H117496   4.937   6.998   1.978
 5858TIP3    H217497   4.910   6.850   1.997
 5859TIP3   OH217498   5.101   7.387   2.212
 5859TIP3    H117499   5.089   7.374   2.306
 5859TIP3    H217500   5.015   7.366   2.174
 5860TIP3   OH217501   5.347   7.346   2.086
 5860TIP3    H117502   5.268   7.343   2.140
 5860TIP3    H217503   5.417   7.316   2.145
 5861TIP3   OH217504   5.582   7.308   2.233
 5861TIP3    H117505   5.597   7.214   2.238
 5861TIP3    H217506   5.579   7.338   2.324
 5862TIP3   OH217507   4.558   7.241   2.426
 5862TIP3    H117508   4.563   7.155   2.384
 5862TIP3    H217509   4.597   7.227   2.513
 5863TIP3   OH217510   5.043   6.893   2.275
 5863TIP3    H117511   5.111   6.826   2.268
 5863TIP3    H217512   5.012   6.906   2.186
 5864TIP3   OH217513   5.137   7.109   2.417
 5864TIP3    H117514   5.106   7.036   2.364
 5864TIP3    H217515   5.064   7.171   2.418
 5865TIP3   OH217516   3.852   7.795   0.800
 5865TIP3    H117517   3.908   7.859   0.755
 5865TIP3    H217518   3.835   7.728   0.734
 5866TIP3   OH217519   3.901   8.129   1.355
 5866TIP3    H117520   3.898   8.073   1.433
 5866TIP3    H217521   3.936   8.212   1.387
 5867TIP3   OH217522   8.545   0.237   1.167
 5867TIP3    H117523   8.633   0.267   1.192
 5867TIP3    H217524   8.522   0.292   1.092
 5868TIP3   OH217525   8.622   0.126   1.509
 5868TIP3    H117526   8.610   0.075   1.429
 5868TIP3    H217527   8.717   0.133   1.520
 5869TIP3   OH217528   5.680   8.285   1.995
 5869TIP3    H117529   5.609   8.291   2.059
 5869TIP3    H217530   5.731   8.365   2.010
 5870TIP3   OH217531   5.653   7.615   0.797
 5870TIP3    H117532   5.570   7.661   0.814
 5870TIP3    H217533   5.721   7.680   0.818
 5871TIP3   OH217534   5.570   7.994   1.180
 5871TIP3    H117535   5.596   7.908   1.148
 5871TIP3    H217536   5.596   8.055   1.111
 5872TIP3   OH217537   5.498   8.289   1.571
 5872TIP3    H117538   5.551   8.368   1.567
 5872TIP3    H217539   5.448   8.289   1.489
 5873TIP3   OH217540   5.585   7.496   1.056
 5873TIP3    H117541   5.591   7.445   0.976
 5873TIP3    H217542   5.499   7.476   1.092
 5874TIP3   OH217543   4.080   7.597   1.711
 5874TIP3    H117544   4.070   7.562   1.622
 5874TIP3    H217545   4.173   7.588   1.730
 5875TIP3   OH217546   5.726   7.919   1.831
 5875TIP3    H117547   5.790   7.850   1.810
 5875TIP3    H217548   5.708   7.960   1.746
 5876TIP3   OH217549   5.896   7.708   1.828
 5876TIP3    H117550   5.824   7.663   1.873
 5876TIP3    H217551   5.973   7.656   1.850
 5877TIP3   OH217552   5.385   7.268   0.759
 5877TIP3    H117553   5.387   7.187   0.707
 5877TIP3    H217554   5.473   7.273   0.798
 5878TIP3   OH217555   5.571   7.396   1.460
 5878TIP3    H117556   5.639   7.413   1.394
 5878TIP3    H217557   5.597   7.448   1.536
 5879TIP3   OH217558   5.672   7.577   1.638
 5879TIP3    H117559   5.589   7.611   1.674
 5879TIP3    H217560   5.714   7.654   1.600
 5880TIP3   OH217561   4.295   7.271   2.349
 5880TIP3    H117562   4.388   7.274   2.372
 5880TIP3    H217563   4.263   7.190   2.389
 5881TIP3   OH217564   6.144   7.156   2.120
 5881TIP3    H117565   6.210   7.103   2.076
 5881TIP3    H217566   6.102   7.206   2.050
 5882TIP3   OH217567   5.493   7.042   0.947
 5882TIP3    H117568   5.583   7.061   0.975
 5882TIP3    H217569   5.497   6.952   0.915
 5883TIP3   OH217570   4.281   6.977   1.694
 5883TIP3    H117571   4.338   6.901   1.700
 5883TIP3    H217572   4.341   7.052   1.688
 5884TIP3   OH217573   4.054   7.242   1.766
 5884TIP3    H117574   4.102   7.237   1.684
 5884TIP3    H217575   4.087   7.320   1.809
 5885TIP3   OH217576   5.988   7.271   1.930
 5885TIP3    H117577   5.906   7.314   1.954
 5885TIP3    H217578   5.962   7.200   1.871
 5886TIP3   OH217579   4.031   6.767   1.302
 5886TIP3    H117580   3.941   6.755   1.334
 5886TIP3    H217581   4.020   6.807   1.216
 5887TIP3   OH217582   4.235   6.794   2.065
 5887TIP3    H117583   4.207   6.808   2.155
 5887TIP3    H217584   4.183   6.856   2.013
 5888TIP3   OH217585   4.322   8.194   2.165
 5888TIP3    H117586   4.230   8.219   2.151
 5888TIP3    H217587   4.334   8.200   2.260
 5889TIP3   OH217588   4.461   8.293   1.710
 5889TIP3    H117589   4.366   8.297   1.714
 5889TIP3    H217590   4.482   8.314   1.619
 5890TIP3   OH217591   7.928   0.150   1.810
 5890TIP3    H117592   7.947   0.128   1.901
 5890TIP3    H217593   7.955   0.242   1.801
 5891TIP3   OH217594   5.892   7.033   1.818
 5891TIP3    H117595   5.808   7.034   1.774
 5891TIP3    H217596   5.921   6.942   1.813
 5892TIP3   OH217597   8.021   0.123   1.447
 5892TIP3    H117598   7.952   0.059   1.464
 5892TIP3    H217599   8.055   0.145   1.534
 5893TIP3   OH217600   4.061   8.312   1.521
 5893TIP3    H117601   4.108   8.303   1.604
 5893TIP3    H217602   4.129   8.305   1.454
 5894TIP3   OH217603   4.274   8.238   1.371
 5894TIP3    H117604   4.283   8.151   1.411
 5894TIP3    H217605   4.360   8.277   1.380
 5895TIP3   OH217606   4.538   8.295   1.439
 5895TIP3    H117607   4.569   8.205   1.430
 5895TIP3    H217608   4.617   8.347   1.453
 5896TIP3   OH217609   5.112   6.984   1.494
 5896TIP3    H117610   5.069   6.918   1.549
 5896TIP3    H217611   5.179   6.936   1.446
 5897TIP3   OH217612   5.557   6.906   1.464
 5897TIP3    H117613   5.611   6.906   1.385
 5897TIP3    H217614   5.471   6.878   1.434
 5898TIP3   OH217615   5.699   6.897   1.226
 5898TIP3    H117616   5.791   6.872   1.217
 5898TIP3    H217617   5.695   6.987   1.193
 5899TIP3   OH217618   4.353   6.643   1.442
 5899TIP3    H117619   4.266   6.614   1.470
 5899TIP3    H217620   4.380   6.580   1.376
 5900TIP3   OH217621   4.166   6.560   1.166
 5900TIP3    H117622   4.189   6.604   1.084
 5900TIP3    H217623   4.119   6.626   1.216
 5901TIP3   OH217624   4.803   6.691   1.405
 5901TIP3    H117625   4.860   6.707   1.330
 5901TIP3    H217626   4.750   6.770   1.413
 5902TIP3   OH217627   5.309   6.853   1.363
 5902TIP3    H117628   5.291   6.864   1.270
 5902TIP3    H217629   5.298   6.759   1.379
 5903TIP3   OH217630   5.378   6.735   0.962
 5903TIP3    H117631   5.292   6.736   0.920
 5903TIP3    H217632   5.376   6.659   1.020
 5904TIP3   OH217633   3.794   8.022   0.973
 5904TIP3    H117634   3.769   7.946   0.920
 5904TIP3    H217635   3.716   8.043   1.024
 5905TIP3   OH217636   4.256   6.702   0.948
 5905TIP3    H117637   4.265   6.724   0.855
 5905TIP3    H217638   4.333   6.741   0.989
 5906TIP3   OH217639   4.747   6.850   1.018
 5906TIP3    H117640   4.810   6.792   1.061
 5906TIP3    H217641   4.770   6.937   1.051
 5907TIP3   OH217642   4.568   6.990   2.316
 5907TIP3    H117643   4.529   6.913   2.358
 5907TIP3    H217644   4.661   6.984   2.337
 5908TIP3   OH217645   4.817   6.956   2.448
 5908TIP3    H117646   4.895   6.928   2.399
 5908TIP3    H217647   4.800   6.884   2.509
 5909TIP3   OH217648   4.022   8.157   0.476
 5909TIP3    H117649   3.973   8.238   0.487
 5909TIP3    H217650   4.107   8.184   0.443
 5910TIP3   OH217651   5.648   7.039   2.238
 5910TIP3    H117652   5.665   7.010   2.327
 5910TIP3    H217653   5.733   7.032   2.194
 5911TIP3   OH217654   8.517   0.213   1.748
 5911TIP3    H117655   8.568   0.181   1.674
 5911TIP3    H217656   8.531   0.308   1.747
 5912TIP3   OH217657   6.197   7.838   1.325
 5912TIP3    H117658   6.234   7.852   1.413
 5912TIP3    H217659   6.207   7.923   1.282
 5913TIP3   OH217660   6.112   8.289   1.011
 5913TIP3    H117661   6.115   8.205   0.966
 5913TIP3    H217662   6.198   8.328   0.996
 5914TIP3   OH217663   5.813   7.445   0.667
 5914TIP3    H117664   5.858   7.524   0.637
 5914TIP3    H217665   5.750   7.475   0.731
 5915TIP3   OH217666   5.907   7.751   0.838
 5915TIP3    H117667   5.912   7.701   0.920
 5915TIP3    H217668   5.991   7.734   0.795
 5916TIP3   OH217669   6.403   7.382   0.826
 5916TIP3    H117670   6.400   7.456   0.765
 5916TIP3    H217671   6.367   7.308   0.776
 5917TIP3   OH217672   5.960   7.579   1.042
 5917TIP3    H117673   6.011   7.591   1.122
 5917TIP3    H217674   6.024   7.559   0.974
 5918TIP3   OH217675   6.291   7.200   1.415
 5918TIP3    H117676   6.347   7.264   1.372
 5918TIP3    H217677   6.247   7.249   1.485
 5919TIP3   OH217678   6.502   8.087   1.183
 5919TIP3    H117679   6.489   8.103   1.276
 5919TIP3    H217680   6.530   8.172   1.148
 5920TIP3   OH217681   6.190   7.370   1.070
 5920TIP3    H117682   6.205   7.448   1.124
 5920TIP3    H217683   6.274   7.325   1.068
 5921TIP3   OH217684   6.292   8.299   1.282
 5921TIP3    H117685   6.228   8.369   1.273
 5921TIP3    H217686   6.318   8.301   1.374
 5922TIP3   OH217687   7.451   7.376   1.156
 5922TIP3    H117688   7.397   7.454   1.153
 5922TIP3    H217689   7.533   7.401   1.114
 5923TIP3   OH217690   6.634   6.939   1.027
 5923TIP3    H117691   6.643   6.847   1.051
 5923TIP3    H217692   6.643   6.986   1.110
 5924TIP3   OH217693   6.416   7.844   1.079
 5924TIP3    H117694   6.426   7.873   0.988
 5924TIP3    H217695   6.458   7.913   1.130
 5925TIP3   OH217696   0.650   0.037   1.390
 5925TIP3    H117697   0.661   0.129   1.414
 5925TIP3    H217698   0.577   0.006   1.443
 5926TIP3   OH217699   6.286   7.944   1.569
 5926TIP3    H117700   6.299   8.008   1.638
 5926TIP3    H217701   6.198   7.910   1.584
 5927TIP3   OH217702   0.403   0.245   1.412
 5927TIP3    H117703   0.323   0.236   1.359
 5927TIP3    H217704   0.403   0.167   1.468
 5928TIP3   OH217705   5.955   8.086   1.516
 5928TIP3    H117706   5.907   8.075   1.435
 5928TIP3    H217707   5.979   7.998   1.543
 5929TIP3   OH217708   5.680   8.147   0.972
 5929TIP3    H117709   5.776   8.144   0.968
 5929TIP3    H217710   5.657   8.237   0.951
 5930TIP3   OH217711   6.050   8.337   1.464
 5930TIP3    H117712   6.135   8.338   1.507
 5930TIP3    H217713   6.016   8.249   1.478
 5931TIP3   OH217714   6.625   7.117   1.244
 5931TIP3    H117715   6.534   7.088   1.252
 5931TIP3    H217716   6.624   7.208   1.274
 5932TIP3   OH217717   7.034   7.268   1.476
 5932TIP3    H117718   7.072   7.265   1.564
 5932TIP3    H217719   6.951   7.221   1.484
 5933TIP3   OH217720   7.318   7.570   1.326
 5933TIP3    H117721   7.269   7.589   1.406
 5933TIP3    H217722   7.324   7.655   1.281
 5934TIP3   OH217723   6.454   7.628   1.284
 5934TIP3    H117724   6.397   7.634   1.361
 5934TIP3    H217725   6.444   7.711   1.239
 5935TIP3   OH217726   6.986   7.852   1.602
 5935TIP3    H117727   6.969   7.768   1.644
 5935TIP3    H217728   7.018   7.908   1.673
 5936TIP3   OH217729   6.301   7.617   1.516
 5936TIP3    H117730   6.299   7.666   1.599
 5936TIP3    H217731   6.265   7.531   1.538
 5937TIP3   OH217732   5.736   7.113   1.068
 5937TIP3    H117733   5.770   7.194   1.108
 5937TIP3    H217734   5.784   7.106   0.985
 5938TIP3   OH217735   7.114   7.879   1.174
 5938TIP3    H117736   7.102   7.823   1.097
 5938TIP3    H217737   7.027   7.884   1.213
 5939TIP3   OH217738   6.029   7.291   0.709
 5939TIP3    H117739   5.954   7.345   0.684
 5939TIP3    H217740   6.030   7.220   0.644
 5940TIP3   OH217741   7.240   7.520   1.011
 5940TIP3    H117742   7.197   7.461   1.073
 5940TIP3    H217743   7.251   7.467   0.932
 5941TIP3   OH217744   6.303   8.104   1.786
 5941TIP3    H117745   6.370   8.172   1.793
 5941TIP3    H217746   6.224   8.145   1.820
 5942TIP3   OH217747   6.302   7.166   0.705
 5942TIP3    H117748   6.242   7.098   0.734
 5942TIP3    H217749   6.313   7.151   0.611
 5943TIP3   OH217750   6.733   7.539   1.284
 5943TIP3    H117751   6.661   7.594   1.252
 5943TIP3    H217752   6.809   7.597   1.283
 5944TIP3   OH217753   6.091   8.059   0.867
 5944TIP3    H117754   6.124   8.026   0.784
 5944TIP3    H217755   6.105   7.986   0.928
 5945TIP3   OH217756   6.040   7.844   1.624
 5945TIP3    H117757   6.069   7.829   1.714
 5945TIP3    H217758   5.955   7.801   1.619
 5946TIP3   OH217759   6.731   7.969   1.629
 5946TIP3    H117760   6.655   7.917   1.603
 5946TIP3    H217761   6.807   7.916   1.605
 5947TIP3   OH217762   6.199   7.377   1.607
 5947TIP3    H117763   6.104   7.390   1.612
 5947TIP3    H217764   6.219   7.321   1.683
 5948TIP3   OH217765   8.813   0.196   1.214
 5948TIP3    H117766   8.817   0.102   1.193
 5948TIP3    H217767   8.831   0.200   1.308
 5949TIP3   OH217768   7.126   7.372   1.214
 5949TIP3    H117769   7.200   7.366   1.274
 5949TIP3    H217770   7.053   7.335   1.263
 5950TIP3   OH217771   6.894   7.840   1.342
 5950TIP3    H117772   6.921   7.869   1.430
 5950TIP3    H217773   6.932   7.753   1.333
 5951TIP3   OH217774   6.390   6.991   1.275
 5951TIP3    H117775   6.345   6.971   1.192
 5951TIP3    H217776   6.331   7.052   1.320
 5952TIP3   OH217777  -0.028   0.378   1.772
 5952TIP3    H117778   0.062   0.406   1.758
 5952TIP3    H217779  -0.029   0.286   1.745
 5953TIP3   OH217780   6.054   8.190   1.891
 5953TIP3    H117781   6.015   8.129   1.954
 5953TIP3    H217782   5.985   8.205   1.827
 5954TIP3   OH217783   6.668   8.252   1.626
 5954TIP3    H117784   6.680   8.305   1.547
 5954TIP3    H217785   6.656   8.163   1.594
 5955TIP3   OH217786   6.202   7.855   1.858
 5955TIP3    H117787   6.261   7.920   1.819
 5955TIP3    H217788   6.183   7.890   1.946
 5956TIP3   OH217789   6.528   7.812   1.536
 5956TIP3    H117790   6.442   7.850   1.548
 5956TIP3    H217791   6.550   7.829   1.444
 5957TIP3   OH217792   6.648   7.582   1.622
 5957TIP3    H117793   6.637   7.500   1.573
 5957TIP3    H217794   6.602   7.648   1.570
 5958TIP3   OH217795   6.653   7.354   1.462
 5958TIP3    H117796   6.701   7.415   1.406
 5958TIP3    H217797   6.566   7.348   1.422
 5959TIP3   OH217798   6.627   7.868   1.292
 5959TIP3    H117799   6.721   7.855   1.303
 5959TIP3    H217800   6.619   7.955   1.253
 5960TIP3   OH217801   7.282   7.841   1.746
 5960TIP3    H117802   7.285   7.760   1.695
 5960TIP3    H217803   7.314   7.909   1.686
 5961TIP3   OH217804   6.526   7.685   1.850
 5961TIP3    H117805   6.456   7.622   1.866
 5961TIP3    H217806   6.558   7.664   1.762
 5962TIP3   OH217807   6.781   7.121   1.517
 5962TIP3    H117808   6.740   7.205   1.497
 5962TIP3    H217809   6.710   7.057   1.508
 5963TIP3   OH217810   6.904   7.615   1.713
 5963TIP3    H117811   6.889   7.606   1.807
 5963TIP3    H217812   6.819   7.598   1.673
 5964TIP3   OH217813   7.134   7.560   1.566
 5964TIP3    H117814   7.057   7.565   1.623
 5964TIP3    H217815   7.207   7.545   1.625
 5965TIP3   OH217816   7.347   7.539   1.735
 5965TIP3    H117817   7.393   7.455   1.736
 5965TIP3    H217818   7.353   7.571   1.825
 5966TIP3   OH217819   6.354   7.479   1.913
 5966TIP3    H117820   6.356   7.391   1.875
 5966TIP3    H217821   6.393   7.468   2.000
 5967TIP3   OH217822   6.830   7.135   1.785
 5967TIP3    H117823   6.897   7.068   1.793
 5967TIP3    H217824   6.805   7.134   1.693
 5968TIP3   OH217825   6.921   7.350   1.930
 5968TIP3    H117826   6.890   7.280   1.873
 5968TIP3    H217827   6.852   7.416   1.927
 5969TIP3   OH217828   5.883   7.944   1.057
 5969TIP3    H117829   5.886   7.915   0.966
 5969TIP3    H217830   5.846   7.869   1.104
 5970TIP3   OH217831   6.086   7.519   1.864
 5970TIP3    H117832   6.180   7.525   1.880
 5970TIP3    H217833   6.061   7.433   1.900
 5971TIP3   OH217834   6.028   7.283   1.272
 5971TIP3    H117835   6.060   7.196   1.295
 5971TIP3    H217836   6.083   7.311   1.199
 5972TIP3   OH217837   5.924   7.526   1.345
 5972TIP3    H117838   5.941   7.436   1.318
 5972TIP3    H217839   5.829   7.535   1.338
 5973TIP3   OH217840   5.816   7.049   0.814
 5973TIP3    H117841   5.775   7.090   0.738
 5973TIP3    H217842   5.907   7.036   0.788
 5974TIP3   OH217843   6.070   7.090   1.609
 5974TIP3    H117844   6.015   7.068   1.684
 5974TIP3    H217845   6.008   7.123   1.544
 5975TIP3   OH217846   0.184   0.171   1.704
 5975TIP3    H117847   0.109   0.119   1.733
 5975TIP3    H217848   0.251   0.106   1.682
 5976TIP3   OH217849   0.358   0.359   1.077
 5976TIP3    H117850   0.268   0.341   1.051
 5976TIP3    H217851   0.405   0.277   1.059
 5977TIP3   OH217852   7.729   7.278   1.303
 5977TIP3    H117853   7.654   7.226   1.273
 5977TIP3    H217854   7.804   7.241   1.256
 5978TIP3   OH217855   8.758   0.243   0.867
 5978TIP3    H117856   8.691   0.179   0.889
 5978TIP3    H217857   8.825   0.193   0.820
 5979TIP3   OH217858   6.884   7.272   0.765
 5979TIP3    H117859   6.802   7.314   0.793
 5979TIP3    H217860   6.936   7.266   0.846
 5980TIP3   OH217861   6.082   6.996   0.782
 5980TIP3    H117862   6.074   7.042   0.865
 5980TIP3    H217863   6.090   6.904   0.807
 5981TIP3   OH217864   6.567   7.060   0.801
 5981TIP3    H117865   6.611   7.009   0.733
 5981TIP3    H217866   6.584   7.011   0.882
 5982TIP3   OH217867   6.361   7.211   1.831
 5982TIP3    H117868   6.332   7.141   1.889
 5982TIP3    H217869   6.455   7.219   1.848
 5983TIP3   OH217870   6.613   7.209   1.944
 5983TIP3    H117871   6.689   7.182   1.892
 5983TIP3    H217872   6.603   7.140   2.009
 5984TIP3   OH217873   7.489   7.305   1.741
 5984TIP3    H117874   7.509   7.277   1.830
 5984TIP3    H217875   7.573   7.300   1.695
 5985TIP3   OH217876   1.472   0.852   5.887
 5985TIP3    H117877   1.545   0.816   5.938
 5985TIP3    H217878   1.429   0.913   5.947
 5986TIP3   OH217879   8.358   8.324   6.442
 5986TIP3    H117880   8.270   8.333   6.404
 5986TIP3    H217881   8.401   8.260   6.385
 5987TIP3   OH217882   1.734   0.685   5.883
 5987TIP3    H117883   1.723   0.648   5.970
 5987TIP3    H217884   1.794   0.759   5.896
 5988TIP3   OH217885   2.077   0.582   6.355
 5988TIP3    H117886   2.073   0.506   6.297
 5988TIP3    H217887   2.070   0.657   6.295
 5989TIP3   OH217888   2.259   0.205   6.199
 5989TIP3    H117889   2.196   0.277   6.198
 5989TIP3    H217890   2.308   0.215   6.117
 5990TIP3   OH217891   1.696   0.646   6.151
 5990TIP3    H117892   1.660   0.734   6.159
 5990TIP3    H217893   1.701   0.613   6.240
 5991TIP3   OH217894   1.487   0.658   5.684
 5991TIP3    H117895   1.453   0.721   5.747
 5991TIP3    H217896   1.410   0.615   5.649
 5992TIP3   OH217897   1.915   0.528   5.056
 5992TIP3    H117898   1.908   0.616   5.018
 5992TIP3    H217899   2.004   0.500   5.034
 5993TIP3   OH217900   2.322   0.922   6.408
 5993TIP3    H117901   2.328   0.827   6.412
 5993TIP3    H217902   2.243   0.944   6.457
 5994TIP3   OH217903   1.233   0.828   5.510
 5994TIP3    H117904   1.184   0.793   5.436
 5994TIP3    H217905   1.193   0.913   5.527
 5995TIP3   OH217906   1.431   0.739   5.141
 5995TIP3    H117907   1.487   0.673   5.100
 5995TIP3    H217908   1.466   0.751   5.229
 5996TIP3   OH217909   1.481   0.792   5.408
 5996TIP3    H117910   1.392   0.800   5.443
 5996TIP3    H217911   1.529   0.746   5.477
 5997TIP3   OH217912   1.670   0.061   5.239
 5997TIP3    H117913   1.623  -0.016   5.209
 5997TIP3    H217914   1.750   0.063   5.186
 5998TIP3   OH217915   2.045   1.263   6.497
 5998TIP3    H117916   2.041   1.283   6.404
 5998TIP3    H217917   2.124   1.308   6.528
 5999TIP3   OH217918   2.055   0.389   6.158
 5999TIP3    H117919   2.091   0.435   6.083
 5999TIP3    H217920   1.989   0.330   6.121
 6000TIP3   OH217921   1.670   0.735   6.440
 6000TIP3    H117922   1.576   0.747   6.445
 6000TIP3    H217923   1.703   0.759   6.527
 6001TIP3   OH217924   8.077   8.152   5.336
 6001TIP3    H117925   7.994   8.107   5.349
 6001TIP3    H217926   8.054   8.235   5.295
 6002TIP3   OH217927   2.342   0.646   6.415
 6002TIP3    H117928   2.251   0.619   6.427
 6002TIP3    H217929   2.369   0.605   6.333
 6003TIP3   OH217930   1.800   0.551   5.304
 6003TIP3    H117931   1.801   0.463   5.342
 6003TIP3    H217932   1.842   0.541   5.218
 6004TIP3   OH217933   1.595   0.320   5.167
 6004TIP3    H117934   1.641   0.351   5.245
 6004TIP3    H217935   1.585   0.225   5.181
 6005TIP3   OH217936   1.842   0.949   6.346
 6005TIP3    H117937   1.770   0.886   6.350
 6005TIP3    H217938   1.823   1.002   6.269
 6006TIP3   OH217939   1.902   0.790   4.980
 6006TIP3    H117940   1.913   0.842   4.900
 6006TIP3    H217941   1.838   0.837   5.032
 6007TIP3   OH217942   1.782   0.284   5.376
 6007TIP3    H117943   1.743   0.199   5.357
 6007TIP3    H217944   1.876   0.266   5.386
 6008TIP3   OH217945   1.883   0.915   5.901
 6008TIP3    H117946   1.841   0.966   5.832
 6008TIP3    H217947   1.975   0.938   5.896
 6009TIP3   OH217948   1.100   0.515   5.102
 6009TIP3    H117949   1.053   0.435   5.126
 6009TIP3    H217950   1.185   0.484   5.069
 6010TIP3   OH217951   1.773   0.785   6.693
 6010TIP3    H117952   1.824   0.706   6.679
 6010TIP3    H217953   1.838   0.850   6.720
 6011TIP3   OH217954   1.568   0.549   5.002
 6011TIP3    H117955   1.599   0.474   5.052
 6011TIP3    H217956   1.619   0.547   4.921
 6012TIP3   OH217957   1.894   0.571   6.558
 6012TIP3    H117958   1.970   0.578   6.500
 6012TIP3    H217959   1.818   0.584   6.500
 6013TIP3   OH217960   1.878   0.053   5.062
 6013TIP3    H117961   1.894  -0.034   5.025
 6013TIP3    H217962   1.906   0.114   4.993
 6014TIP3   OH217963   2.016   0.362   6.695
 6014TIP3    H117964   1.964   0.429   6.651
 6014TIP3    H217965   2.094   0.352   6.641
 6015TIP3   OH217966   0.968   0.875   5.371
 6015TIP3    H117967   1.035   0.839   5.313
 6015TIP3    H217968   0.888   0.831   5.345
 6016TIP3   OH217969   2.133   1.013   5.901
 6016TIP3    H117970   2.167   1.049   5.983
 6016TIP3    H217971   2.201   1.034   5.836
 6017TIP3   OH217972   2.166   1.036   6.191
 6017TIP3    H117973   2.128   0.949   6.181
 6017TIP3    H217974   2.240   1.023   6.251
 6018TIP3   OH217975   2.226   0.724   6.735
 6018TIP3    H117976   2.155   0.728   6.798
 6018TIP3    H217977   2.272   0.808   6.745
 6019TIP3   OH217978   2.053   0.233   5.388
 6019TIP3    H117979   2.115   0.299   5.357
 6019TIP3    H217980   2.092   0.199   5.468
 6020TIP3   OH217981   2.167   0.115   5.607
 6020TIP3    H117982   2.115   0.067   5.671
 6020TIP3    H217983   2.243   0.147   5.656
 6021TIP3   OH217984   2.180   0.499   5.943
 6021TIP3    H117985   2.250   0.434   5.940
 6021TIP3    H217986   2.217   0.576   5.900
 6022TIP3   OH217987   2.021   0.798   6.190
 6022TIP3    H117988   1.957   0.842   6.245
 6022TIP3    H217989   1.977   0.786   6.106
 6023TIP3   OH217990   2.087   0.008   5.231
 6023TIP3    H117991   2.009   0.015   5.176
 6023TIP3    H217992   2.081   0.082   5.291
 6024TIP3   OH217993   7.941   7.889   5.161
 6024TIP3    H117994   7.888   7.938   5.223
 6024TIP3    H217995   7.887   7.884   5.082
 6025TIP3   OH217996   7.963   8.347   5.784
 6025TIP3    H117997   7.929   8.259   5.765
 6025TIP3    H217998   7.990   8.342   5.876
 6026TIP3   OH217999   2.264   0.344   6.561
 6026TIP3    H118000   2.299   0.262   6.595
 6026TIP3    H218001   2.315   0.362   6.482
 6027TIP3   OH218002   2.391   0.120   6.649
 6027TIP3    H118003   2.375   0.053   6.582
 6027TIP3    H218004   2.486   0.121   6.659
 6028TIP3   OH218005   8.055   8.315   6.041
 6028TIP3    H118006   8.148   8.328   6.023
 6028TIP3    H218007   8.050   8.301   6.136
 6029TIP3   OH218008   2.178  -0.018   6.327
 6029TIP3    H118009   2.100   0.014   6.372
 6029TIP3    H218010   2.210   0.058   6.277
 6030TIP3   OH218011   1.738   0.803   5.592
 6030TIP3    H118012   1.777   0.808   5.505
 6030TIP3    H218013   1.745   0.892   5.627
 6031TIP3   OH218014   1.444   0.970   6.592
 6031TIP3    H118015   1.474   0.949   6.680
 6031TIP3    H218016   1.515   1.022   6.554
 6032TIP3   OH218017   1.645   1.120   6.475
 6032TIP3    H118018   1.721   1.072   6.443
 6032TIP3    H218019   1.682   1.190   6.529
 6033TIP3   OH218020   1.378   1.030   6.094
 6033TIP3    H118021   1.284   1.034   6.073
 6033TIP3    H218022   1.387   1.091   6.167
 6034TIP3   OH218023   1.609   0.901   6.152
 6034TIP3    H118024   1.522   0.941   6.148
 6034TIP3    H218025   1.669   0.974   6.134
 6035TIP3   OH218026   1.805   1.085   6.106
 6035TIP3    H118027   1.806   1.175   6.074
 6035TIP3    H218028   1.844   1.034   6.036
 6036TIP3   OH218029   1.170   0.743   5.241
 6036TIP3    H118030   1.254   0.758   5.198
 6036TIP3    H218031   1.135   0.664   5.199
 6037TIP3   OH218032   1.840   0.821   5.339
 6037TIP3    H118033   1.831   0.727   5.320
 6037TIP3    H218034   1.808   0.865   5.261
 6038TIP3   OH218035   2.071   0.989   6.511
 6038TIP3    H118036   1.995   0.964   6.457
 6038TIP3    H218037   2.067   1.084   6.515
 6039TIP3   OH218038   3.338   0.381   5.253
 6039TIP3    H118039   3.308   0.468   5.226
 6039TIP3    H218040   3.267   0.322   5.226
 6040TIP3   OH218041   3.334   0.377   5.663
 6040TIP3    H118042   3.386   0.347   5.738
 6040TIP3    H218043   3.285   0.300   5.636
 6041TIP3   OH218044   2.650   0.277   6.047
 6041TIP3    H118045   2.671   0.198   6.096
 6041TIP3    H218046   2.714   0.278   5.975
 6042TIP3   OH218047   3.617   0.679   5.345
 6042TIP3    H118048   3.594   0.616   5.414
 6042TIP3    H218049   3.637   0.760   5.392
 6043TIP3   OH218050   2.613   0.650   5.713
 6043TIP3    H118051   2.601   0.555   5.705
 6043TIP3    H218052   2.708   0.662   5.708
 6044TIP3   OH218053   8.254   8.300   5.498
 6044TIP3    H118054   8.198   8.370   5.531
 6044TIP3    H218055   8.194   8.241   5.452
 6045TIP3   OH218056   2.406   0.189   5.730
 6045TIP3    H118057   2.455   0.107   5.744
 6045TIP3    H218058   2.472   0.251   5.700
 6046TIP3   OH218059   3.280   1.097   5.362
 6046TIP3    H118060   3.304   1.033   5.295
 6046TIP3    H218061   3.290   1.050   5.445
 6047TIP3   OH218062   3.142   0.589   5.690
 6047TIP3    H118063   3.187   0.511   5.659
 6047TIP3    H218064   3.212   0.650   5.714
 6048TIP3   OH218065   3.584   0.056   5.705
 6048TIP3    H118066   3.650  -0.013   5.698
 6048TIP3    H218067   3.526   0.042   5.630
 6049TIP3   OH218068   0.629   8.272   5.332
 6049TIP3    H118069   0.708   8.229   5.364
 6049TIP3    H218070   0.654   8.307   5.247
 6050TIP3   OH218071   8.485   8.350   5.784
 6050TIP3    H118072   8.571   8.341   5.826
 6050TIP3    H218073   8.489   8.295   5.707
 6051TIP3   OH218074   2.947   0.156   5.628
 6051TIP3    H118075   3.042   0.142   5.629
 6051TIP3    H218076   2.911   0.073   5.596
 6052TIP3   OH218077   4.216   0.258   5.779
 6052TIP3    H118078   4.132   0.303   5.777
 6052TIP3    H218079   4.202   0.182   5.836
 6053TIP3   OH218080   3.246   0.598   5.108
 6053TIP3    H118081   3.208   0.567   5.025
 6053TIP3    H218082   3.191   0.672   5.132
 6054TIP3   OH218083   3.007   0.500   5.917
 6054TIP3    H118084   2.948   0.569   5.945
 6054TIP3    H218085   3.051   0.535   5.839
 6055TIP3   OH218086   8.730   8.301   5.891
 6055TIP3    H118087   8.783   8.340   5.961
 6055TIP3    H218088   8.789   8.240   5.848
 6056TIP3   OH218089   2.836   0.709   5.997
 6056TIP3    H118090   2.824   0.798   5.963
 6056TIP3    H218091   2.755   0.692   6.046
 6057TIP3   OH218092   2.226   0.418   5.271
 6057TIP3    H118093   2.193   0.432   5.182
 6057TIP3    H218094   2.249   0.505   5.303
 6058TIP3   OH218095   3.651   0.924   5.486
 6058TIP3    H118096   3.563   0.918   5.522
 6058TIP3    H218097   3.652   1.008   5.440
 6059TIP3   OH218098   3.361   0.951   5.139
 6059TIP3    H118099   3.413   0.871   5.129
 6059TIP3    H218100   3.419   1.021   5.111
 6060TIP3   OH218101   3.499   0.720   5.098
 6060TIP3    H118102   3.424   0.661   5.099
 6060TIP3    H218103   3.549   0.697   5.177
 6061TIP3   OH218104   3.891   0.811   5.828
 6061TIP3    H118105   3.865   0.743   5.766
 6061TIP3    H218106   3.880   0.893   5.780
 6062TIP3   OH218107   3.166   0.226   5.096
 6062TIP3    H118108   3.084   0.270   5.077
 6062TIP3    H218109   3.213   0.225   5.014
 6063TIP3   OH218110   3.125   0.033   4.796
 6063TIP3    H118111   3.192   0.082   4.843
 6063TIP3    H218112   3.175  -0.032   4.746
 6064TIP3   OH218113   4.055   0.508   5.689
 6064TIP3    H118114   3.973   0.555   5.678
 6064TIP3    H218115   4.099   0.516   5.604
 6065TIP3   OH218116   3.515   0.325   5.052
 6065TIP3    H118117   3.460   0.349   5.127
 6065TIP3    H218118   3.600   0.305   5.090
 6066TIP3   OH218119   3.707   0.384   5.951
 6066TIP3    H118120   3.690   0.465   6.000
 6066TIP3    H218121   3.623   0.360   5.914
 6067TIP3   OH218122   2.764   0.288   5.464
 6067TIP3    H118123   2.731   0.223   5.402
 6067TIP3    H218124   2.831   0.242   5.514
 6068TIP3   OH218125   2.883   0.702   5.620
 6068TIP3    H118126   2.866   0.687   5.527
 6068TIP3    H218127   2.969   0.663   5.636
 6069TIP3   OH218128   2.830   0.298   5.839
 6069TIP3    H118129   2.874   0.238   5.779
 6069TIP3    H218130   2.899   0.356   5.871
 6070TIP3   OH218131   3.406   0.923   5.604
 6070TIP3    H118132   3.396   1.001   5.659
 6070TIP3    H218133   3.392   0.849   5.663
 6071TIP3   OH218134   3.037   0.812   6.159
 6071TIP3    H118135   2.976   0.869   6.204
 6071TIP3    H218136   2.982   0.758   6.101
 6072TIP3   OH218137   3.350   0.177   4.889
 6072TIP3    H118138   3.410   0.237   4.934
 6072TIP3    H218139   3.384   0.174   4.799
 6073TIP3   OH218140   2.786   0.375   6.283
 6073TIP3    H118141   2.779   0.467   6.310
 6073TIP3    H218142   2.737   0.371   6.201
 6074TIP3   OH218143   3.109   0.837   5.144
 6074TIP3    H118144   3.192   0.884   5.152
 6074TIP3    H218145   3.052   0.897   5.097
 6075TIP3   OH218146   2.826   0.971   6.242
 6075TIP3    H118147   2.803   0.982   6.150
 6075TIP3    H218148   2.742   0.960   6.286
 6076TIP3   OH218149   2.636   0.122   5.274
 6076TIP3    H118150   2.550   0.153   5.246
 6076TIP3    H218151   2.618   0.037   5.315
 6077TIP3   OH218152   3.695   0.759   4.503
 6077TIP3    H118153   3.688   0.853   4.485
 6077TIP3    H218154   3.787   0.739   4.485
 6078TIP3   OH218155   2.427   0.503   6.193
 6078TIP3    H118156   2.405   0.457   6.112
 6078TIP3    H218157   2.449   0.433   6.255
 6079TIP3   OH218158   2.333   0.706   5.825
 6079TIP3    H118159   2.419   0.679   5.792
 6079TIP3    H218160   2.353   0.776   5.887
 6080TIP3   OH218161   4.122   1.198   5.898
 6080TIP3    H118162   4.129   1.103   5.904
 6080TIP3    H218163   4.041   1.219   5.946
 6081TIP3   OH218164   3.217   0.969   6.020
 6081TIP3    H118165   3.209   1.059   6.053
 6081TIP3    H218166   3.153   0.919   6.071
 6082TIP3   OH218167   3.003   1.056   4.977
 6082TIP3    H118168   2.958   1.037   4.895
 6082TIP3    H218169   2.966   1.139   5.007
 6083TIP3   OH218170   2.435   0.915   5.359
 6083TIP3    H118171   2.482   0.907   5.442
 6083TIP3    H218172   2.391   0.831   5.348
 6084TIP3   OH218173   3.206   0.993   4.604
 6084TIP3    H118174   3.255   0.919   4.568
 6084TIP3    H218175   3.240   1.004   4.693
 6085TIP3   OH218176   3.257   1.033   4.874
 6085TIP3    H118177   3.171   1.035   4.915
 6085TIP3    H218178   3.314   0.996   4.942
 6086TIP3   OH218179   3.964   0.341   6.123
 6086TIP3    H118180   3.932   0.411   6.066
 6086TIP3    H218181   3.898   0.272   6.115
 6087TIP3   OH218182   2.608   0.712   6.159
 6087TIP3    H118183   2.659   0.705   6.240
 6087TIP3    H218184   2.542   0.643   6.166
 6088TIP3   OH218185   3.780   0.141   6.086
 6088TIP3    H118186   3.713   0.084   6.124
 6088TIP3    H218187   3.731   0.199   6.028
 6089TIP3   OH218188   3.437   0.134   4.632
 6089TIP3    H118189   3.385   0.150   4.554
 6089TIP3    H218190   3.519   0.181   4.617
 6090TIP3   OH218191   8.751   8.336   5.508
 6090TIP3    H118192   8.670   8.292   5.534
 6090TIP3    H218193   8.767   8.305   5.419
 6091TIP3   OH218194   3.286   0.023   5.237
 6091TIP3    H118195   3.237   0.094   5.195
 6091TIP3    H218196   3.340  -0.014   5.166
 6092TIP3   OH218197   3.492   0.269   6.339
 6092TIP3    H118198   3.455   0.223   6.415
 6092TIP3    H218199   3.584   0.282   6.362
 6093TIP3   OH218200   3.433   0.044   5.472
 6093TIP3    H118201   3.371   0.064   5.401
 6093TIP3    H218202   3.489  -0.025   5.436
 6094TIP3   OH218203   2.717   0.092   6.243
 6094TIP3    H118204   2.760   0.167   6.285
 6094TIP3    H218205   2.789   0.043   6.203
 6095TIP3   OH218206   8.342   8.045   5.307
 6095TIP3    H118207   8.361   8.074   5.218
 6095TIP3    H218208   8.250   8.070   5.321
 6096TIP3   OH218209   3.479   0.253   5.864
 6096TIP3    H118210   3.519   0.186   5.809
 6096TIP3    H218211   3.466   0.210   5.949
 6097TIP3   OH218212   8.504   8.207   5.542
 6097TIP3    H118213   8.416   8.243   5.526
 6097TIP3    H218214   8.505   8.123   5.495
 6098TIP3   OH218215   8.778   8.236   5.252
 6098TIP3    H118216   8.872   8.219   5.253
 6098TIP3    H218217   8.747   8.194   5.171
 6099TIP3   OH218218   8.666   8.164   4.999
 6099TIP3    H118219   8.573   8.183   5.013
 6099TIP3    H218220   8.699   8.239   4.951
 6100TIP3   OH218221   3.831   1.521   5.988
 6100TIP3    H118222   3.828   1.537   5.894
 6100TIP3    H218223   3.910   1.565   6.018
 6101TIP3   OH218224   2.763   0.632   6.394
 6101TIP3    H118225   2.845   0.649   6.440
 6101TIP3    H218226   2.696   0.639   6.462
 6102TIP3   OH218227   3.226   0.113   5.649
 6102TIP3    H118228   3.294   0.080   5.591
 6102TIP3    H218229   3.236   0.061   5.729
 6103TIP3   OH218230   2.931   0.363   5.039
 6103TIP3    H118231   2.861   0.299   5.025
 6103TIP3    H218232   2.910   0.402   5.124
 6104TIP3   OH218233   3.811   0.625   5.643
 6104TIP3    H118234   3.841   0.675   5.567
 6104TIP3    H218235   3.730   0.583   5.614
 6105TIP3   OH218236   0.437   8.117   4.843
 6105TIP3    H118237   0.361   8.071   4.877
 6105TIP3    H218238   0.454   8.186   4.907
 6106TIP3   OH218239   3.357   0.705   6.041
 6106TIP3    H118240   3.338   0.627   6.093
 6106TIP3    H218241   3.305   0.775   6.081
 6107TIP3   OH218242   0.470   8.334   5.011
 6107TIP3    H118243   0.561   8.344   5.038
 6107TIP3    H218244   0.449   8.416   4.967
 6108TIP3   OH218245   2.616   0.371   5.682
 6108TIP3    H118246   2.656   0.351   5.597
 6108TIP3    H218247   2.683   0.347   5.746
 6109TIP3   OH218248   3.094   0.515   4.885
 6109TIP3    H118249   3.048   0.599   4.881
 6109TIP3    H218250   3.036   0.459   4.937
 6110TIP3   OH218251   2.487   0.316   6.384
 6110TIP3    H118252   2.559   0.327   6.446
 6110TIP3    H218253   2.500   0.230   6.346
 6111TIP3   OH218254   3.253   0.442   6.349
 6111TIP3    H118255   3.182   0.392   6.308
 6111TIP3    H218256   3.332   0.407   6.309
 6112TIP3   OH218257   3.492   0.982   5.946
 6112TIP3    H118258   3.398   0.965   5.950
 6112TIP3    H218259   3.514   1.013   6.034
 6113TIP3   OH218260   3.751   0.108   4.863
 6113TIP3    H118261   3.738   0.050   4.788
 6113TIP3    H218262   3.801   0.182   4.828
 6114TIP3   OH218263   4.139   0.923   5.913
 6114TIP3    H118264   4.048   0.896   5.924
 6114TIP3    H218265   4.166   0.883   5.830
 6115TIP3   OH218266   3.627   0.838   4.775
 6115TIP3    H118267   3.595   0.773   4.838
 6115TIP3    H218268   3.639   0.789   4.694
 6116TIP3   OH218269   3.577   0.491   5.553
 6116TIP3    H118270   3.487   0.471   5.578
 6116TIP3    H218271   3.610   0.411   5.513
 6117TIP3   OH218272   2.756   0.710   5.367
 6117TIP3    H118273   2.757   0.787   5.309
 6117TIP3    H218274   2.664   0.692   5.382
 6118TIP3   OH218275   2.286   0.010   5.040
 6118TIP3    H118276   2.340   0.082   5.072
 6118TIP3    H218277   2.219  -0.002   5.107
 6119TIP3   OH218278   2.848   0.468   5.271
 6119TIP3    H118279   2.831   0.557   5.304
 6119TIP3    H218280   2.822   0.411   5.343
 6120TIP3   OH218281   3.038   1.030   5.813
 6120TIP3    H118282   3.073   1.104   5.763
 6120TIP3    H218283   3.111   1.000   5.866
 6121TIP3   OH218284   2.671   0.931   5.214
 6121TIP3    H118285   2.584   0.941   5.253
 6121TIP3    H218286   2.709   1.019   5.218
 6122TIP3   OH218287   3.387   0.701   5.771
 6122TIP3    H118288   3.378   0.704   5.866
 6122TIP3    H218289   3.463   0.644   5.756
 6123TIP3   OH218290   3.381   0.566   4.637
 6123TIP3    H118291   3.433   0.544   4.714
 6123TIP3    H218292   3.297   0.523   4.650
 6124TIP3   OH218293   3.646   1.188   5.832
 6124TIP3    H118294   3.578   1.124   5.855
 6124TIP3    H218295   3.608   1.239   5.761
 6125TIP3   OH218296   3.689   1.034   4.460
 6125TIP3    H118297   3.691   1.088   4.381
 6125TIP3    H218298   3.624   1.076   4.516
 6126TIP3   OH218299   3.552   0.497   4.837
 6126TIP3    H118300   3.534   0.446   4.916
 6126TIP3    H218301   3.647   0.509   4.837
 6127TIP3   OH218302   2.453   0.921   5.983
 6127TIP3    H118303   2.509   0.865   6.036
 6127TIP3    H218304   2.470   1.010   6.016
 6128TIP3   OH218305   2.735   0.547   4.679
 6128TIP3    H118306   2.747   0.456   4.651
 6128TIP3    H218307   2.722   0.541   4.773
 6129TIP3   OH218308   2.680   0.554   4.951
 6129TIP3    H118309   2.752   0.526   5.008
 6129TIP3    H218310   2.681   0.649   4.957
 6130TIP3   OH218311   2.404   0.234   5.152
 6130TIP3    H118312   2.349   0.285   5.212
 6130TIP3    H218313   2.431   0.298   5.086
 6131TIP3   OH218314   2.946   0.741   4.879
 6131TIP3    H118315   2.863   0.765   4.919
 6131TIP3    H218316   2.969   0.816   4.824
 6132TIP3   OH218317   0.150   8.200   5.276
 6132TIP3    H118318   0.205   8.277   5.264
 6132TIP3    H218319   0.194   8.149   5.344
 6133TIP3   OH218320   3.455   0.131   6.106
 6133TIP3    H118321   3.466   0.185   6.184
 6133TIP3    H218322   3.377   0.079   6.124
 6134TIP3   OH218323   2.698   0.826   4.963
 6134TIP3    H118324   2.678   0.897   4.901
 6134TIP3    H218325   2.687   0.866   5.049
 6135TIP3   OH218326   3.655   0.240   5.458
 6135TIP3    H118327   3.583   0.180   5.476
 6135TIP3    H218328   3.727   0.207   5.511
 6136TIP3   OH218329   2.431   0.428   4.942
 6136TIP3    H118330   2.500   0.494   4.954
 6136TIP3    H218331   2.471   0.362   4.885
 6137TIP3   OH218332   8.347   8.152   5.037
 6137TIP3    H118333   8.313   8.240   5.049
 6137TIP3    H218334   8.270   8.098   5.017
 6138TIP3   OH218335   3.673   1.189   5.399
 6138TIP3    H118336   3.631   1.240   5.330
 6138TIP3    H218337   3.767   1.203   5.386
 6139TIP3   OH218338   2.264   0.690   5.339
 6139TIP3    H118339   2.224   0.728   5.417
 6139TIP3    H218340   2.219   0.733   5.265
 6140TIP3   OH218341   2.472   1.229   6.397
 6140TIP3    H118342   2.553   1.238   6.447
 6140TIP3    H218343   2.463   1.135   6.380
 6141TIP3   OH218344   2.929   1.131   6.443
 6141TIP3    H118345   3.021   1.107   6.452
 6141TIP3    H218346   2.898   1.079   6.368
 6142TIP3   OH218347   2.891   0.741   4.561
 6142TIP3    H118348   2.844   0.673   4.609
 6142TIP3    H218349   2.964   0.696   4.519
 6143TIP3   OH218350   3.549   1.074   6.200
 6143TIP3    H118351   3.564   1.003   6.262
 6143TIP3    H218352   3.623   1.133   6.212
 6144TIP3   OH218353   3.331   0.784   4.480
 6144TIP3    H118354   3.364   0.715   4.539
 6144TIP3    H218355   3.388   0.778   4.403
 6145TIP3   OH218356   2.561   0.625   6.586
 6145TIP3    H118357   2.576   0.530   6.594
 6145TIP3    H218358   2.477   0.631   6.539
 6146TIP3   OH218359   2.579   0.242   4.812
 6146TIP3    H118360   2.631   0.216   4.888
 6146TIP3    H218361   2.644   0.257   4.743
 6147TIP3   OH218362   3.180   0.711   6.371
 6147TIP3    H118363   3.139   0.730   6.287
 6147TIP3    H218364   3.220   0.624   6.359
 6148TIP3   OH218365   3.125   0.454   4.621
 6148TIP3    H118366   3.105   0.467   4.713
 6148TIP3    H218367   3.099   0.363   4.603
 6149TIP3   OH218368   3.653   0.744   5.963
 6149TIP3    H118369   3.727   0.784   5.918
 6149TIP3    H218370   3.583   0.809   5.957
 6150TIP3   OH218371   2.686   0.364   6.569
 6150TIP3    H118372   2.763   0.352   6.515
 6150TIP3    H218373   2.720   0.384   6.656
 6151TIP3   OH218374   2.740   0.168   5.021
 6151TIP3    H118375   2.720   0.143   5.112
 6151TIP3    H218376   2.786   0.092   4.985
 6152TIP3   OH218377   3.047   0.280   6.259
 6152TIP3    H118378   2.960   0.320   6.267
 6152TIP3    H218379   3.036   0.211   6.194
 6153TIP3   OH218380   8.792   8.369   4.861
 6153TIP3    H118381   8.765   8.383   4.771
 6153TIP3    H218382   8.887   8.380   4.859
 6154TIP3   OH218383   3.541   0.628   6.365
 6154TIP3    H118384   3.605   0.597   6.300
 6154TIP3    H218385   3.546   0.563   6.435
 6155TIP3   OH218386   3.646   0.281   4.529
 6155TIP3    H118387   3.680   0.233   4.454
 6155TIP3    H218388   3.617   0.364   4.493
 6156TIP3   OH218389   3.150   0.051   6.375
 6156TIP3    H118390   3.115  -0.007   6.307
 6156TIP3    H218391   3.130   0.139   6.344
 6157TIP3   OH218392   3.253   0.420   6.041
 6157TIP3    H118393   3.289   0.359   5.977
 6157TIP3    H218394   3.162   0.433   6.014
 6158TIP3   OH218395   3.754   0.307   6.434
 6158TIP3    H118396   3.799   0.239   6.484
 6158TIP3    H218397   3.823   0.365   6.403
 6159TIP3   OH218398   3.748   0.600   6.171
 6159TIP3    H118399   3.694   0.656   6.115
 6159TIP3    H218400   3.834   0.599   6.129
 6160TIP3   OH218401   3.021   0.134   6.608
 6160TIP3    H118402   2.948   0.078   6.632
 6160TIP3    H218403   3.055   0.095   6.527
 6161TIP3   OH218404   3.360   0.120   6.540
 6161TIP3    H118405   3.301   0.151   6.609
 6161TIP3    H218406   3.303   0.076   6.478
 6162TIP3   OH218407   2.693   1.030   4.776
 6162TIP3    H118408   2.783   1.013   4.749
 6162TIP3    H218409   2.654   1.076   4.702
 6163TIP3   OH218410   2.164   0.429   5.001
 6163TIP3    H118411   2.255   0.440   4.976
 6163TIP3    H218412   2.138   0.345   4.963
 6164TIP3   OH218413   2.058   0.982   5.415
 6164TIP3    H118414   1.994   0.924   5.372
 6164TIP3    H218415   2.106   0.925   5.475
 6165TIP3   OH218416   2.207   0.826   5.591
 6165TIP3    H118417   2.220   0.758   5.657
 6165TIP3    H218418   2.254   0.902   5.625
 6166TIP3   OH218419   3.944   1.243   5.396
 6166TIP3    H118420   3.958   1.265   5.488
 6166TIP3    H218421   3.996   1.307   5.348
 6167TIP3   OH218422   3.961   1.272   5.673
 6167TIP3    H118423   3.914   1.188   5.673
 6167TIP3    H218424   4.030   1.260   5.739
 6168TIP3   OH218425   4.013   0.963   6.219
 6168TIP3    H118426   3.946   0.968   6.287
 6168TIP3    H218427   4.061   1.046   6.227
 6169TIP3   OH218428   3.829   0.519   4.846
 6169TIP3    H118429   3.890   0.588   4.819
 6169TIP3    H218430   3.865   0.486   4.928
 6170TIP3   OH218431   3.938   0.391   5.061
 6170TIP3    H118432   3.870   0.352   5.117
 6170TIP3    H218433   4.007   0.418   5.122
 6171TIP3   OH218434   3.999   0.764   5.490
 6171TIP3    H118435   4.054   0.697   5.451
 6171TIP3    H218436   4.004   0.838   5.429
 6172TIP3   OH218437   3.820   1.033   5.682
 6172TIP3    H118438   3.752   1.077   5.733
 6172TIP3    H218439   3.773   0.991   5.610
 6173TIP3   OH218440   3.864   0.299   4.688
 6173TIP3    H118441   3.783   0.298   4.637
 6173TIP3    H218442   3.857   0.378   4.742
 6174TIP3   OH218443   3.785  -0.019   4.614
 6174TIP3    H118444   3.803   0.063   4.567
 6174TIP3    H218445   3.867  -0.040   4.657
 6175TIP3   OH218446   3.740   0.247   5.196
 6175TIP3    H118447   3.731   0.153   5.180
 6175TIP3    H218448   3.707   0.259   5.286
 6176TIP3   OH218449   2.390   0.317   5.974
 6176TIP3    H118450   2.380   0.270   5.891
 6176TIP3    H218451   2.483   0.307   5.996
 6177TIP3   OH218452   3.970   0.614   6.011
 6177TIP3    H118453   4.066   0.615   6.007
 6177TIP3    H218454   3.943   0.683   5.950
 6178TIP3   OH218455   4.187   0.499   6.175
 6178TIP3    H118456   4.110   0.444   6.158
 6178TIP3    H218457   4.257   0.458   6.124
 6179TIP3   OH218458   0.733   8.368   5.092
 6179TIP3    H118459   0.791   8.292   5.087
 6179TIP3    H218460   0.755   8.420   5.015
 6180TIP3   OH218461   3.906   0.176   5.568
 6180TIP3    H118462   3.996   0.199   5.546
 6180TIP3    H218463   3.897   0.196   5.661
 6181TIP3   OH218464   3.930   0.301   5.812
 6181TIP3    H118465   3.851   0.323   5.861
 6181TIP3    H218466   3.960   0.384   5.776
 6182TIP3   OH218467   8.577   8.398   6.628
 6182TIP3    H118468   8.536   8.379   6.544
 6182TIP3    H218469   8.581   8.313   6.673
 6183TIP3   OH218470   8.325   8.356   6.011
 6183TIP3    H118471   8.367   8.347   5.925
 6183TIP3    H218472   8.397   8.363   6.073
 6184TIP3   OH218473   3.506   1.151   5.035
 6184TIP3    H118474   3.566   1.143   4.960
 6184TIP3    H218475   3.543   1.221   5.088
 6185TIP3   OH218476   2.597   0.952   6.402
 6185TIP3    H118477   2.504   0.929   6.400
 6185TIP3    H218478   2.622   0.946   6.494
 6186TIP3   OH218479   2.810   0.987   5.961
 6186TIP3    H118480   2.760   1.063   5.931
 6186TIP3    H218481   2.895   0.996   5.917
 6187TIP3   OH218482   3.205   1.231   6.110
 6187TIP3    H118483   3.244   1.221   6.196
 6187TIP3    H218484   3.269   1.282   6.060
 6188TIP3   OH218485   3.399   1.379   5.982
 6188TIP3    H118486   3.460   1.325   5.932
 6188TIP3    H218487   3.454   1.437   6.033
 6189TIP3   OH218488   2.470   1.217   6.017
 6189TIP3    H118489   2.380   1.241   5.993
 6189TIP3    H218490   2.497   1.286   6.078
 6190TIP3   OH218491   2.700   1.220   5.862
 6190TIP3    H118492   2.616   1.223   5.908
 6190TIP3    H218493   2.678   1.247   5.773
 6191TIP3   OH218494   3.113   1.243   5.654
 6191TIP3    H118495   3.041   1.256   5.592
 6191TIP3    H218496   3.124   1.329   5.696
 6192TIP3   OH218497   3.377   1.179   5.703
 6192TIP3    H118498   3.285   1.200   5.684
 6192TIP3    H218499   3.427   1.247   5.658
 6193TIP3   OH218500   3.580   1.346   5.606
 6193TIP3    H118501   3.577   1.434   5.568
 6193TIP3    H218502   3.610   1.290   5.535
 6194TIP3   OH218503   2.372   1.013   5.730
 6194TIP3    H118504   2.398   0.990   5.819
 6194TIP3    H218505   2.445   0.982   5.676
 6195TIP3   OH218506   2.578   0.897   5.594
 6195TIP3    H118507   2.590   0.812   5.636
 6195TIP3    H218508   2.666   0.937   5.597
 6196TIP3   OH218509   2.847   0.980   5.616
 6196TIP3    H118510   2.865   0.887   5.603
 6196TIP3    H218511   2.905   1.006   5.687
 6197TIP3   OH218512   2.139   0.816   5.128
 6197TIP3    H118513   2.061   0.785   5.083
 6197TIP3    H218514   2.154   0.904   5.093
 6198TIP3   OH218515   2.951   0.964   4.707
 6198TIP3    H118516   3.034   0.993   4.669
 6198TIP3    H218517   2.921   0.894   4.649
 6199TIP3   OH218518   3.665   1.108   4.808
 6199TIP3    H118519   3.658   1.013   4.803
 6199TIP3    H218520   3.617   1.140   4.732
 6200TIP3   OH218521   2.258   0.798   4.763
 6200TIP3    H118522   2.264   0.827   4.854
 6200TIP3    H218523   2.342   0.756   4.745
 6201TIP3   OH218524   3.867   1.247   5.994
 6201TIP3    H118525   3.793   1.215   5.943
 6201TIP3    H218526   3.852   1.342   6.002
 6202TIP3   OH218527   5.134   0.641   4.753
 6202TIP3    H118528   5.101   0.721   4.712
 6202TIP3    H218529   5.055   0.595   4.782
 6203TIP3   OH218530   5.102   0.657   5.117
 6203TIP3    H118531   5.155   0.657   5.196
 6203TIP3    H218532   5.066   0.569   5.111
 6204TIP3   OH218533   4.431   0.523   5.496
 6204TIP3    H118534   4.465   0.487   5.578
 6204TIP3    H218535   4.509   0.538   5.442
 6205TIP3   OH218536   5.416   0.952   4.826
 6205TIP3    H118537   5.390   0.892   4.896
 6205TIP3    H218538   5.440   1.033   4.871
 6206TIP3   OH218539   4.427   0.916   5.190
 6206TIP3    H118540   4.406   0.823   5.198
 6206TIP3    H218541   4.522   0.918   5.182
 6207TIP3   OH218542   4.101   0.221   4.916
 6207TIP3    H118543   4.044   0.290   4.949
 6207TIP3    H218544   4.060   0.140   4.944
 6208TIP3   OH218545   4.182   0.450   5.193
 6208TIP3    H118546   4.238   0.376   5.216
 6208TIP3    H218547   4.243   0.520   5.169
 6209TIP3   OH218548   5.077   1.356   4.855
 6209TIP3    H118549   5.097   1.294   4.786
 6209TIP3    H218550   5.087   1.307   4.936
 6210TIP3   OH218551   4.940   0.873   5.167
 6210TIP3    H118552   4.980   0.795   5.129
 6210TIP3    H218553   5.013   0.924   5.202
 6211TIP3   OH218554   5.371   0.430   5.190
 6211TIP3    H118555   5.391   0.355   5.246
 6211TIP3    H218556   5.307   0.396   5.127
 6212TIP3   OH218557   5.411   0.263   4.813
 6212TIP3    H118558   5.467   0.275   4.737
 6212TIP3    H218559   5.367   0.179   4.798
 6213TIP3   OH218560   4.348   0.236   5.272
 6213TIP3    H118561   4.410   0.174   5.311
 6213TIP3    H218562   4.368   0.234   5.178
 6214TIP3   OH218563   4.740   0.448   5.089
 6214TIP3    H118564   4.835   0.440   5.096
 6214TIP3    H218565   4.712   0.361   5.059
 6215TIP3   OH218566   6.067   0.562   5.304
 6215TIP3    H118567   5.986   0.527   5.266
 6215TIP3    H218568   6.129   0.490   5.298
 6216TIP3   OH218569   5.038   0.845   4.600
 6216TIP3    H118570   5.002   0.818   4.516
 6216TIP3    H218571   4.988   0.923   4.624
 6217TIP3   OH218572   4.798   0.777   5.384
 6217TIP3    H118573   4.741   0.845   5.419
 6217TIP3    H218574   4.844   0.819   5.312
 6218TIP3   OH218575   1.500   8.377   5.354
 6218TIP3    H118576   1.490   8.368   5.449
 6218TIP3    H218577   1.587   8.341   5.336
 6219TIP3   OH218578   4.631   0.973   5.481
 6219TIP3    H118579   4.616   1.062   5.450
 6219TIP3    H218580   4.554   0.953   5.534
 6220TIP3   OH218581   4.013   0.694   4.733
 6220TIP3    H118582   3.979   0.712   4.645
 6220TIP3    H218583   4.036   0.781   4.767
 6221TIP3   OH218584   5.450   1.186   4.977
 6221TIP3    H118585   5.362   1.174   5.014
 6221TIP3    H218586   5.445   1.270   4.932
 6222TIP3   OH218587   5.152   1.216   4.627
 6222TIP3    H118588   5.204   1.137   4.616
 6222TIP3    H218589   5.211   1.287   4.599
 6223TIP3   OH218590   5.287   0.985   4.587
 6223TIP3    H118591   5.220   0.916   4.587
 6223TIP3    H218592   5.343   0.965   4.662
 6224TIP3   OH218593   5.679   1.077   5.309
 6224TIP3    H118594   5.654   1.009   5.247
 6224TIP3    H218595   5.668   1.159   5.261
 6225TIP3   OH218596   4.925   0.453   4.529
 6225TIP3    H118597   4.859   0.522   4.530
 6225TIP3    H218598   4.997   0.490   4.478
 6226TIP3   OH218599   4.886   0.322   4.281
 6226TIP3    H118600   4.909   0.366   4.363
 6226TIP3    H218601   4.970   0.300   4.241
 6227TIP3   OH218602   5.829   0.734   5.140
 6227TIP3    H118603   5.754   0.793   5.140
 6227TIP3    H218604   5.884   0.766   5.068
 6228TIP3   OH218605   5.315   0.622   4.548
 6228TIP3    H118606   5.260   0.627   4.626
 6228TIP3    H218607   5.403   0.603   4.582
 6229TIP3   OH218608   5.518   0.680   5.471
 6229TIP3    H118609   5.511   0.735   5.548
 6229TIP3    H218610   5.433   0.687   5.428
 6230TIP3   OH218611   4.533   0.563   4.948
 6230TIP3    H118612   4.502   0.500   4.883
 6230TIP3    H218613   4.610   0.522   4.987
 6231TIP3   OH218614   4.688   0.966   5.094
 6231TIP3    H118615   4.673   0.951   5.001
 6231TIP3    H218616   4.777   0.935   5.110
 6232TIP3   OH218617   4.644   0.562   5.321
 6232TIP3    H118618   4.681   0.525   5.241
 6232TIP3    H218619   4.697   0.640   5.338
 6233TIP3   OH218620   5.208   1.162   5.102
 6233TIP3    H118621   5.195   1.243   5.152
 6233TIP3    H218622   5.200   1.092   5.167
 6234TIP3   OH218623   4.829   1.073   5.648
 6234TIP3    H118624   4.768   1.130   5.696
 6234TIP3    H218625   4.773   1.019   5.592
 6235TIP3   OH218626   5.135   0.512   4.371
 6235TIP3    H118627   5.201   0.557   4.425
 6235TIP3    H218628   5.176   0.506   4.285
 6236TIP3   OH218629   4.587   0.655   5.776
 6236TIP3    H118630   4.599   0.744   5.809
 6236TIP3    H218631   4.493   0.640   5.782
 6237TIP3   OH218632   4.908   1.088   4.633
 6237TIP3    H118633   4.989   1.139   4.640
 6237TIP3    H218634   4.849   1.143   4.582
 6238TIP3   OH218635   4.620   1.230   5.733
 6238TIP3    H118636   4.592   1.239   5.642
 6238TIP3    H218637   4.539   1.213   5.782
 6239TIP3   OH218638   4.427   0.388   4.758
 6239TIP3    H118639   4.347   0.430   4.727
 6239TIP3    H218640   4.396   0.313   4.809
 6240TIP3   OH218641   5.492   1.017   3.986
 6240TIP3    H118642   5.487   1.111   3.968
 6240TIP3    H218643   5.583   0.994   3.970
 6241TIP3   OH218644   4.210   0.793   5.684
 6241TIP3    H118645   4.139   0.773   5.624
 6241TIP3    H218646   4.238   0.708   5.717
 6242TIP3   OH218647   4.053   0.992   5.335
 6242TIP3    H118648   4.143   1.012   5.360
 6242TIP3    H218649   4.002   1.068   5.362
 6243TIP3   OH218650   5.931   1.454   5.378
 6243TIP3    H118651   5.938   1.359   5.378
 6243TIP3    H218652   5.844   1.472   5.414
 6244TIP3   OH218653   5.013   1.217   5.506
 6244TIP3    H118654   5.011   1.306   5.541
 6244TIP3    H218655   4.949   1.170   5.559
 6245TIP3   OH218656   4.797   1.307   4.461
 6245TIP3    H118657   4.757   1.286   4.376
 6245TIP3    H218658   4.760   1.392   4.485
 6246TIP3   OH218659   4.236   1.175   4.842
 6246TIP3    H118660   4.279   1.165   4.927
 6246TIP3    H218661   4.184   1.095   4.832
 6247TIP3   OH218662   5.001   1.246   4.092
 6247TIP3    H118663   5.053   1.175   4.054
 6247TIP3    H218664   5.037   1.259   4.179
 6248TIP3   OH218665   5.053   1.288   4.361
 6248TIP3    H118666   4.967   1.290   4.403
 6248TIP3    H218667   5.110   1.249   4.427
 6249TIP3   OH218668   5.777   0.615   5.555
 6249TIP3    H118669   5.699   0.649   5.511
 6249TIP3    H218670   5.794   0.531   5.512
 6250TIP3   OH218671   4.412   0.977   5.649
 6250TIP3    H118672   4.461   0.971   5.731
 6250TIP3    H218673   4.342   0.913   5.659
 6251TIP3   OH218674   5.481   0.340   5.629
 6251TIP3    H118675   5.526   0.408   5.678
 6251TIP3    H218676   5.518   0.344   5.541
 6252TIP3   OH218677   5.246   0.462   4.125
 6252TIP3    H118678   5.196   0.471   4.044
 6252TIP3    H218679   5.332   0.497   4.103
 6253TIP3   OH218680   4.790   0.409   5.508
 6253TIP3    H118681   4.725   0.338   5.513
 6253TIP3    H218682   4.747   0.477   5.456
 6254TIP3   OH218683   4.631   0.212   5.009
 6254TIP3    H118684   4.536   0.222   5.009
 6254TIP3    H218685   4.651   0.172   4.925
 6255TIP3   OH218686   5.096   0.343   4.719
 6255TIP3    H118687   5.035   0.383   4.656
 6255TIP3    H218688   5.177   0.331   4.669
 6256TIP3   OH218689   5.315   0.633   5.741
 6256TIP3    H118690   5.289   0.557   5.690
 6256TIP3    H218691   5.337   0.597   5.828
 6257TIP3   OH218692   5.221   0.382   4.959
 6257TIP3    H118693   5.158   0.401   4.890
 6257TIP3    H218694   5.290   0.331   4.916
 6258TIP3   OH218695   4.538   0.385   5.712
 6258TIP3    H118696   4.574   0.461   5.756
 6258TIP3    H218697   4.515   0.325   5.782
 6259TIP3   OH218698   1.056   8.318   4.745
 6259TIP3    H118699   1.125   8.364   4.697
 6259TIP3    H218700   1.068   8.345   4.836
 6260TIP3   OH218701   5.283   0.651   5.325
 6260TIP3    H118702   5.332   0.592   5.267
 6260TIP3    H218703   5.244   0.592   5.390
 6261TIP3   OH218704   4.359   0.209   4.997
 6261TIP3    H118705   4.268   0.221   4.968
 6261TIP3    H218706   4.374   0.115   4.990
 6262TIP3   OH218707   4.618   0.117   4.748
 6262TIP3    H118708   4.693   0.149   4.698
 6262TIP3    H218709   4.549   0.105   4.683
 6263TIP3   OH218710   4.471   0.110   4.499
 6263TIP3    H118711   4.393   0.104   4.444
 6263TIP3    H218712   4.535   0.154   4.444
 6264TIP3   OH218713   5.636   1.753   5.473
 6264TIP3    H118714   5.606   1.815   5.406
 6264TIP3    H218715   5.587   1.777   5.551
 6265TIP3   OH218716   4.572   0.909   5.887
 6265TIP3    H118717   4.652   0.922   5.938
 6265TIP3    H218718   4.502   0.912   5.953
 6266TIP3   OH218719   5.004   0.394   5.128
 6266TIP3    H118720   5.081   0.362   5.080
 6266TIP3    H218721   5.006   0.346   5.211
 6267TIP3   OH218722   4.999   0.298   5.385
 6267TIP3    H118723   4.925   0.340   5.428
 6267TIP3    H218724   5.074   0.353   5.408
 6268TIP3   OH218725   4.710   0.628   4.523
 6268TIP3    H118726   4.637   0.567   4.509
 6268TIP3    H218727   4.694   0.663   4.611
 6269TIP3   OH218728   5.603   0.889   5.127
 6269TIP3    H118729   5.637   0.937   5.052
 6269TIP3    H218730   5.517   0.857   5.099
 6270TIP3   OH218731   2.232   8.277   4.381
 6270TIP3    H118732   2.165   8.219   4.417
 6270TIP3    H218733   2.293   8.292   4.454
 6271TIP3   OH218734   5.139   0.936   5.562
 6271TIP3    H118735   5.198   0.932   5.638
 6271TIP3    H218736   5.103   1.025   5.565
 6272TIP3   OH218737   5.292   0.295   4.531
 6272TIP3    H118738   5.219   0.252   4.487
 6272TIP3    H218739   5.330   0.352   4.464
 6273TIP3   OH218740   4.402   0.630   5.180
 6273TIP3    H118741   4.441   0.616   5.093
 6273TIP3    H218742   4.471   0.604   5.241
 6274TIP3   OH218743   4.884   0.774   4.377
 6274TIP3    H118744   4.842   0.860   4.373
 6274TIP3    H218745   4.822   0.720   4.425
 6275TIP3   OH218746   4.323   0.583   5.836
 6275TIP3    H118747   4.361   0.572   5.923
 6275TIP3    H218748   4.275   0.502   5.820
 6276TIP3   OH218749   5.064   0.721   5.834
 6276TIP3    H118750   5.004   0.665   5.784
 6276TIP3    H218751   5.150   0.701   5.798
 6277TIP3   OH218752   5.276   1.238   5.417
 6277TIP3    H118753   5.182   1.223   5.423
 6277TIP3    H218754   5.300   1.273   5.503
 6278TIP3   OH218755   5.569   0.358   4.336
 6278TIP3    H118756   5.594   0.297   4.266
 6278TIP3    H218757   5.604   0.442   4.307
 6279TIP3   OH218758   5.934   1.182   5.392
 6279TIP3    H118759   5.842   1.159   5.407
 6279TIP3    H218760   5.957   1.136   5.311
 6280TIP3   OH218761   5.408   1.085   4.253
 6280TIP3    H118762   5.382   1.013   4.310
 6280TIP3    H218763   5.430   1.043   4.170
 6281TIP3   OH218764   5.361   0.779   5.036
 6281TIP3    H118765   5.268   0.757   5.047
 6281TIP3    H218766   5.399   0.702   4.994
 6282TIP3   OH218767   4.552   0.974   4.845
 6282TIP3    H118768   4.547   1.050   4.788
 6282TIP3    H218769   4.464   0.965   4.881
 6283TIP3   OH218770   4.100   0.292   4.546
 6283TIP3    H118771   4.149   0.369   4.576
 6283TIP3    H218772   4.020   0.292   4.599
 6284TIP3   OH218773   4.647   0.731   4.762
 6284TIP3    H118774   4.627   0.822   4.785
 6284TIP3    H218775   4.606   0.679   4.831
 6285TIP3   OH218776   4.834   1.289   5.302
 6285TIP3    H118777   4.872   1.362   5.253
 6285TIP3    H218778   4.906   1.257   5.356
 6286TIP3   OH218779   4.467   1.198   4.696
 6286TIP3    H118780   4.381   1.198   4.738
 6286TIP3    H218781   4.496   1.289   4.701
 6287TIP3   OH218782   5.186   0.942   5.284
 6287TIP3    H118783   5.174   0.941   5.379
 6287TIP3    H218784   5.252   0.875   5.267
 6288TIP3   OH218785   5.181   0.822   4.116
 6288TIP3    H118786   5.231   0.810   4.197
 6288TIP3    H218787   5.096   0.783   4.134
 6289TIP3   OH218788   5.433   1.448   5.316
 6289TIP3    H118789   5.365   1.382   5.330
 6289TIP3    H218790   5.400   1.503   5.245
 6290TIP3   OH218791   5.491   1.291   3.949
 6290TIP3    H118792   5.509   1.351   3.877
 6290TIP3    H218793   5.421   1.334   3.999
 6291TIP3   OH218794   5.346   0.789   4.330
 6291TIP3    H118795   5.328   0.743   4.411
 6291TIP3    H218796   5.442   0.795   4.327
 6292TIP3   OH218797   4.265   1.163   5.467
 6292TIP3    H118798   4.317   1.099   5.515
 6292TIP3    H218799   4.278   1.245   5.514
 6293TIP3   OH218800   4.530   0.799   4.160
 6293TIP3    H118801   4.538   0.708   4.133
 6293TIP3    H218802   4.516   0.795   4.255
 6294TIP3   OH218803   4.477   0.813   4.431
 6294TIP3    H118804   4.553   0.785   4.483
 6294TIP3    H218805   4.477   0.909   4.440
 6295TIP3   OH218806   4.211   0.521   4.647
 6295TIP3    H118807   4.146   0.569   4.698
 6295TIP3    H218808   4.232   0.579   4.574
 6296TIP3   OH218809   4.742   1.002   4.369
 6296TIP3    H118810   4.658   1.028   4.407
 6296TIP3    H218811   4.764   1.074   4.309
 6297TIP3   OH218812   5.007   0.083   4.749
 6297TIP3    H118813   5.058   0.163   4.762
 6297TIP3    H218814   4.966   0.067   4.834
 6298TIP3   OH218815   5.219   0.430   5.471
 6298TIP3    H118816   5.200   0.418   5.564
 6298TIP3    H218817   5.287   0.366   5.452
 6299TIP3   OH218818   4.494   1.087   4.448
 6299TIP3    H118819   4.473   1.158   4.387
 6299TIP3    H218820   4.483   1.126   4.535
 6300TIP3   OH218821   5.450   0.548   4.920
 6300TIP3    H118822   5.365   0.505   4.929
 6300TIP3    H218823   5.510   0.490   4.968
 6301TIP3   OH218824   4.230   0.689   4.425
 6301TIP3    H118825   4.303   0.750   4.434
 6301TIP3    H218826   4.260   0.624   4.362
 6302TIP3   OH218827   4.159   0.027   4.523
 6302TIP3    H118828   4.159   0.119   4.547
 6302TIP3    H218829   4.120   0.025   4.436
 6303TIP3   OH218830   5.474   1.448   4.889
 6303TIP3    H118831   5.435   1.503   4.821
 6303TIP3    H218832   5.568   1.456   4.877
 6304TIP3   OH218833   4.057   0.962   4.812
 6304TIP3    H118834   4.008   0.995   4.888
 6304TIP3    H218835   4.012   0.999   4.736
 6305TIP3   OH218836   4.258   1.479   5.885
 6305TIP3    H118837   4.341   1.478   5.932
 6305TIP3    H218838   4.231   1.387   5.880
 6306TIP3   OH218839   4.726   1.398   5.924
 6306TIP3    H118840   4.817   1.371   5.935
 6306TIP3    H218841   4.693   1.342   5.854
 6307TIP3   OH218842   4.686   0.997   4.050
 6307TIP3    H118843   4.639   0.927   4.094
 6307TIP3    H218844   4.761   0.954   4.008
 6308TIP3   OH218845   5.328   1.336   5.665
 6308TIP3    H118846   5.338   1.268   5.731
 6308TIP3    H218847   5.405   1.392   5.676
 6309TIP3   OH218848   5.131   1.043   3.964
 6309TIP3    H118849   5.164   0.973   4.021
 6309TIP3    H218850   5.187   1.038   3.886
 6310TIP3   OH218851   4.364   0.892   6.072
 6310TIP3    H118852   4.383   0.798   6.074
 6310TIP3    H218853   4.279   0.899   6.028
 6311TIP3   OH218854   4.349   0.493   4.277
 6311TIP3    H118855   4.399   0.469   4.355
 6311TIP3    H218856   4.414   0.506   4.209
 6312TIP3   OH218857   4.984   0.986   5.859
 6312TIP3    H118858   4.938   1.001   5.776
 6312TIP3    H218859   5.026   0.901   5.848
 6313TIP3   OH218860   4.919   0.728   4.110
 6313TIP3    H118861   4.902   0.736   4.204
 6313TIP3    H218862   4.893   0.639   4.088
 6314TIP3   OH218863   5.445   1.022   5.464
 6314TIP3    H118864   5.524   1.044   5.415
 6314TIP3    H218865   5.381   1.089   5.438
 6315TIP3   OH218866   4.487   0.634   6.071
 6315TIP3    H118867   4.569   0.589   6.050
 6315TIP3    H218868   4.498   0.663   6.162
 6316TIP3   OH218869   4.516   0.435   4.493
 6316TIP3    H118870   4.496   0.404   4.582
 6316TIP3    H218871   4.557   0.360   4.451
 6317TIP3   OH218872   4.842   0.542   5.771
 6317TIP3    H118873   4.757   0.586   5.769
 6317TIP3    H218874   4.874   0.547   5.681
 6318TIP3   OH218875   4.628   0.244   4.322
 6318TIP3    H118876   4.605   0.244   4.229
 6318TIP3    H218877   4.721   0.267   4.324
 6319TIP3   OH218878   5.311   0.902   5.836
 6319TIP3    H118879   5.363   0.838   5.787
 6319TIP3    H218880   5.300   0.863   5.923
 6320TIP3   OH218881   5.474   0.556   4.008
 6320TIP3    H118882   5.501   0.495   3.939
 6320TIP3    H218883   5.443   0.633   3.961
 6321TIP3   OH218884   4.937   0.246   5.771
 6321TIP3    H118885   4.986   0.196   5.706
 6321TIP3    H218886   4.931   0.334   5.734
 6322TIP3   OH218887   4.988   0.663   5.554
 6322TIP3    H118888   5.055   0.732   5.551
 6322TIP3    H218889   4.919   0.695   5.495
 6323TIP3   OH218890   5.580   0.670   5.986
 6323TIP3    H118891   5.589   0.608   5.914
 6323TIP3    H218892   5.631   0.746   5.958
 6324TIP3   OH218893   5.557   0.875   5.664
 6324TIP3    H118894   5.498   0.933   5.616
 6324TIP3    H218895   5.641   0.883   5.619
 6325TIP3   OH218896   4.742   0.505   6.042
 6325TIP3    H118897   4.738   0.410   6.035
 6325TIP3    H218898   4.794   0.533   5.967
 6326TIP3   OH218899   5.131   0.268   5.975
 6326TIP3    H118900   5.081   0.275   6.057
 6326TIP3    H218901   5.065   0.247   5.909
 6327TIP3   OH218902   4.494   1.300   4.268
 6327TIP3    H118903   4.582   1.276   4.241
 6327TIP3    H218904   4.454   1.337   4.189
 6328TIP3   OH218905   3.956   0.684   4.444
 6328TIP3    H118906   4.052   0.694   4.440
 6328TIP3    H218907   3.940   0.598   4.406
 6329TIP3   OH218908   3.863   1.275   4.902
 6329TIP3    H118909   3.799   1.219   4.857
 6329TIP3    H218910   3.907   1.215   4.963
 6330TIP3   OH218911   4.003   1.103   5.069
 6330TIP3    H118912   3.990   1.031   5.131
 6330TIP3    H218913   4.059   1.165   5.116
 6331TIP3   OH218914   5.745   1.495   4.876
 6331TIP3    H118915   5.765   1.524   4.965
 6331TIP3    H218916   5.804   1.546   4.820
 6332TIP3   OH218917   5.763   1.536   5.152
 6332TIP3    H118918   5.716   1.453   5.154
 6332TIP3    H218919   5.835   1.524   5.214
 6333TIP3   OH218920   5.799   1.231   5.702
 6333TIP3    H118921   5.729   1.229   5.768
 6333TIP3    H218922   5.849   1.310   5.723
 6334TIP3   OH218923   5.620   0.801   4.337
 6334TIP3    H118924   5.684   0.863   4.302
 6334TIP3    H218925   5.662   0.763   4.414
 6335TIP3   OH218926   5.751   0.666   4.533
 6335TIP3    H118927   5.684   0.627   4.589
 6335TIP3    H218928   5.824   0.684   4.591
 6336TIP3   OH218929   5.797   1.016   4.972
 6336TIP3    H118930   5.852   0.949   4.932
 6336TIP3    H218931   5.803   1.091   4.913
 6337TIP3   OH218932   5.617   1.302   5.166
 6337TIP3    H118933   5.548   1.345   5.217
 6337TIP3    H218934   5.571   1.259   5.094
 6338TIP3   OH218935   5.671   0.575   4.193
 6338TIP3    H118936   5.601   0.570   4.128
 6338TIP3    H218937   5.654   0.657   4.239
 6339TIP3   OH218938   5.673   0.260   4.083
 6339TIP3    H118939   5.622   0.302   4.013
 6339TIP3    H218940   5.661   0.166   4.068
 6340TIP3   OH218941   5.551   0.539   4.668
 6340TIP3    H118942   5.546   0.446   4.646
 6340TIP3    H218943   5.515   0.544   4.756
 6341TIP3   OH218944   4.169   0.556   5.444
 6341TIP3    H118945   4.159   0.520   5.356
 6341TIP3    H218946   4.263   0.553   5.461
 6342TIP3   OH218947   5.773   0.919   5.508
 6342TIP3    H118948   5.861   0.892   5.484
 6342TIP3    H218949   5.743   0.974   5.436
 6343TIP3   OH218950   5.991   0.776   5.612
 6343TIP3    H118951   5.908   0.730   5.595
 6343TIP3    H218952   6.058   0.709   5.602
 6344TIP3   OH218953   5.581   0.276   4.600
 6344TIP3    H118954   5.616   0.187   4.604
 6344TIP3    H218955   5.581   0.298   4.507
 6345TIP3   OH218956   5.872   0.393   5.203
 6345TIP3    H118957   5.893   0.408   5.110
 6345TIP3    H218958   5.787   0.435   5.215
 6346TIP3   OH218959   5.669   0.560   5.277
 6346TIP3    H118960   5.610   0.614   5.330
 6346TIP3    H218961   5.724   0.624   5.231
 6347TIP3   OH218962   4.455   0.138   6.167
 6347TIP3    H118963   4.527   0.080   6.140
 6347TIP3    H218964   4.378   0.081   6.168
 6348TIP3   OH218965   4.173   0.217   5.503
 6348TIP3    H118966   4.232   0.254   5.437
 6348TIP3    H218967   4.211   0.244   5.586
 6349TIP3   OH218968   5.296   1.421   4.525
 6349TIP3    H118969   5.347   1.401   4.447
 6349TIP3    H218970   5.349   1.484   4.573
 6350TIP3   OH218971   4.401   1.200   5.902
 6350TIP3    H118972   4.306   1.189   5.895
 6350TIP3    H218973   4.419   1.190   5.996
 6351TIP3   OH218974   4.604   1.249   5.450
 6351TIP3    H118975   4.554   1.325   5.419
 6351TIP3    H218976   4.690   1.258   5.407
 6352TIP3   OH218977   5.012   1.485   5.590
 6352TIP3    H118978   5.046   1.478   5.679
 6352TIP3    H218979   5.081   1.531   5.542
 6353TIP3   OH218980   5.220   1.628   5.472
 6353TIP3    H118981   5.287   1.571   5.433
 6353TIP3    H218982   5.269   1.683   5.534
 6354TIP3   OH218983   4.266   1.508   5.489
 6354TIP3    H118984   4.173   1.519   5.469
 6354TIP3    H218985   4.284   1.569   5.560
 6355TIP3   OH218986   4.500   1.484   5.348
 6355TIP3    H118987   4.418   1.491   5.396
 6355TIP3    H218988   4.477   1.507   5.258
 6356TIP3   OH218989   4.908   1.503   5.140
 6356TIP3    H118990   4.834   1.517   5.081
 6356TIP3    H218991   4.918   1.587   5.185
 6357TIP3   OH218992   5.170   1.426   5.178
 6357TIP3    H118993   5.079   1.451   5.161
 6357TIP3    H218994   5.222   1.496   5.139
 6358TIP3   OH218995   5.367   1.604   5.089
 6358TIP3    H118996   5.370   1.692   5.052
 6358TIP3    H218997   5.404   1.547   5.021
 6359TIP3   OH218998   4.183   1.267   5.218
 6359TIP3    H118999   4.204   1.239   5.307
 6359TIP3    H219000   4.256   1.233   5.165
 6360TIP3   OH219001   4.384   1.156   5.072
 6360TIP3    H119002   4.392   1.072   5.117
 6360TIP3    H219003   4.471   1.196   5.079
 6361TIP3   OH219004   4.649   1.242   5.100
 6361TIP3    H119005   4.666   1.149   5.086
 6361TIP3    H219006   4.704   1.266   5.175
 6362TIP3   OH219007   3.938   1.067   4.587
 6362TIP3    H119008   3.853   1.037   4.553
 6362TIP3    H219009   3.943   1.158   4.560
 6363TIP3   OH219010   4.746   1.221   4.192
 6363TIP3    H119011   4.830   1.247   4.155
 6363TIP3    H219012   4.715   1.151   4.135
 6364TIP3   OH219013   5.442   1.354   4.298
 6364TIP3    H119014   5.436   1.259   4.289
 6364TIP3    H219015   5.403   1.388   4.217
 6365TIP3   OH219016   4.050   1.050   4.251
 6365TIP3    H119017   4.049   1.056   4.346
 6365TIP3    H219018   4.133   1.007   4.230
 6366TIP3   OH219019   5.675   1.488   5.462
 6366TIP3    H119020   5.594   1.458   5.421
 6366TIP3    H219021   5.664   1.582   5.470
 6367TIP3   OH219022   6.912   0.876   4.248
 6367TIP3    H119023   6.890   0.966   4.224
 6367TIP3    H219024   6.845   0.823   4.205
 6368TIP3   OH219025   6.912   0.920   4.606
 6368TIP3    H119026   6.958   0.916   4.690
 6368TIP3    H219027   6.867   0.836   4.600
 6369TIP3   OH219028   6.232   0.775   4.979
 6369TIP3    H119029   6.262   0.735   5.061
 6369TIP3    H219030   6.311   0.789   4.928
 6370TIP3   OH219031   7.206   1.199   4.317
 6370TIP3    H119032   7.188   1.140   4.390
 6370TIP3    H219033   7.230   1.282   4.359
 6371TIP3   OH219034   6.220   1.176   4.684
 6371TIP3    H119035   6.200   1.082   4.688
 6371TIP3    H219036   6.315   1.181   4.673
 6372TIP3   OH219037   5.907   0.484   4.390
 6372TIP3    H119038   5.846   0.553   4.417
 6372TIP3    H219039   5.857   0.403   4.400
 6373TIP3   OH219040   5.991   0.706   4.672
 6373TIP3    H119041   6.046   0.629   4.689
 6373TIP3    H219042   6.054   0.774   4.647
 6374TIP3   OH219043   6.869   1.614   4.334
 6374TIP3    H119044   6.894   1.551   4.267
 6374TIP3    H219045   6.877   1.566   4.417
 6375TIP3   OH219046   6.735   1.128   4.653
 6375TIP3    H119047   6.779   1.053   4.612
 6375TIP3    H219048   6.807   1.181   4.688
 6376TIP3   OH219049   7.097   0.660   4.680
 6376TIP3    H119050   7.186   0.625   4.676
 6376TIP3    H219051   7.065   0.654   4.589
 6377TIP3   OH219052   7.244   0.531   4.276
 6377TIP3    H119053   7.303   0.456   4.272
 6377TIP3    H219054   7.156   0.492   4.274
 6378TIP3   OH219055   6.156   0.485   4.745
 6378TIP3    H119056   6.209   0.413   4.779
 6378TIP3    H219057   6.170   0.483   4.651
 6379TIP3   OH219058   6.534   0.719   4.568
 6379TIP3    H119059   6.629   0.713   4.575
 6379TIP3    H219060   6.505   0.632   4.542
 6380TIP3   OH219061   7.856   0.809   4.730
 6380TIP3    H119062   7.785   0.869   4.708
 6380TIP3    H219063   7.816   0.746   4.791
 6381TIP3   OH219064   6.836   1.094   4.094
 6381TIP3    H119065   6.801   1.069   4.008
 6381TIP3    H219066   6.786   1.172   4.118
 6382TIP3   OH219067   6.604   1.031   4.877
 6382TIP3    H119068   6.543   1.098   4.910
 6382TIP3    H219069   6.646   1.072   4.802
 6383TIP3   OH219070   6.282   0.253   4.833
 6383TIP3    H119071   6.262   0.226   4.922
 6383TIP3    H219072   6.364   0.209   4.812
 6384TIP3   OH219073   6.428   1.226   4.970
 6384TIP3    H119074   6.415   1.315   4.937
 6384TIP3    H219075   6.349   1.206   5.020
 6385TIP3   OH219076   5.813   0.954   4.215
 6385TIP3    H119077   5.782   0.971   4.126
 6385TIP3    H219078   5.836   1.040   4.249
 6386TIP3   OH219079   7.244   1.439   4.458
 6386TIP3    H119080   7.157   1.431   4.497
 6386TIP3    H219081   7.242   1.524   4.413
 6387TIP3   OH219082   6.952   1.465   4.115
 6387TIP3    H119083   7.004   1.385   4.102
 6387TIP3    H219084   7.010   1.536   4.086
 6388TIP3   OH219085   7.083   1.230   4.073
 6388TIP3    H119086   7.011   1.167   4.079
 6388TIP3    H219087   7.136   1.212   4.151
 6389TIP3   OH219088   7.474   1.333   4.792
 6389TIP3    H119089   7.456   1.265   4.727
 6389TIP3    H219090   7.462   1.415   4.746
 6390TIP3   OH219091   6.760   0.725   4.052
 6390TIP3    H119092   6.681   0.778   4.044
 6390TIP3    H219093   6.819   0.758   3.984
 6391TIP3   OH219094   6.694   0.595   3.783
 6391TIP3    H119095   6.713   0.645   3.863
 6391TIP3    H219096   6.779   0.561   3.755
 6392TIP3   OH219097   7.673   1.026   4.624
 6392TIP3    H119098   7.592   1.076   4.617
 6392TIP3    H219099   7.714   1.035   4.538
 6393TIP3   OH219100   7.109   0.880   4.046
 6393TIP3    H119101   7.053   0.883   4.123
 6393TIP3    H219102   7.195   0.854   4.078
 6394TIP3   OH219103   7.328   0.960   4.893
 6394TIP3    H119104   7.332   1.054   4.912
 6394TIP3    H219105   7.236   0.944   4.871
 6395TIP3   OH219106   6.327   0.830   4.429
 6395TIP3    H119107   6.296   0.764   4.366
 6395TIP3    H219108   6.405   0.790   4.468
 6396TIP3   OH219109   6.480   1.221   4.585
 6396TIP3    H119110   6.462   1.207   4.492
 6396TIP3    H219111   6.569   1.189   4.598
 6397TIP3   OH219112   6.449   0.815   4.812
 6397TIP3    H119113   6.482   0.783   4.728
 6397TIP3    H219114   6.501   0.893   4.830
 6398TIP3   OH219115   7.006   1.423   4.589
 6398TIP3    H119116   6.992   1.504   4.637
 6398TIP3    H219117   6.993   1.354   4.654
 6399TIP3   OH219118   6.628   1.326   5.136
 6399TIP3    H119119   6.567   1.385   5.180
 6399TIP3    H219120   6.572   1.272   5.079
 6400TIP3   OH219121   6.944   0.764   3.856
 6400TIP3    H119122   7.009   0.817   3.903
 6400TIP3    H219123   6.975   0.765   3.765
 6401TIP3   OH219124   6.374   0.918   5.254
 6401TIP3    H119125   6.385   1.007   5.289
 6401TIP3    H219126   6.279   0.902   5.258
 6402TIP3   OH219127   6.708   1.338   4.122
 6402TIP3    H119128   6.787   1.390   4.128
 6402TIP3    H219129   6.646   1.393   4.074
 6403TIP3   OH219130   6.422   1.487   5.216
 6403TIP3    H119131   6.393   1.495   5.126
 6403TIP3    H219132   6.343   1.468   5.266
 6404TIP3   OH219133   6.227   0.649   4.245
 6404TIP3    H119134   6.144   0.686   4.214
 6404TIP3    H219135   6.200   0.571   4.295
 6405TIP3   OH219136   7.290   1.272   3.470
 6405TIP3    H119137   7.283   1.366   3.455
 6405TIP3    H219138   7.382   1.252   3.450
 6406TIP3   OH219139   6.005   1.043   5.169
 6406TIP3    H119140   5.936   1.023   5.106
 6406TIP3    H219141   6.033   0.958   5.203
 6407TIP3   OH219142   5.864   1.236   4.814
 6407TIP3    H119143   5.959   1.245   4.820
 6407TIP3    H219144   5.830   1.316   4.852
 6408TIP3   OH219145   7.720   1.709   4.876
 6408TIP3    H119146   7.729   1.614   4.881
 6408TIP3    H219147   7.639   1.729   4.923
 6409TIP3   OH219148   6.815   1.472   4.998
 6409TIP3    H119149   6.808   1.562   5.027
 6409TIP3    H219150   6.747   1.425   5.047
 6410TIP3   OH219151   6.596   1.568   3.951
 6410TIP3    H119152   6.551   1.550   3.869
 6410TIP3    H219153   6.559   1.651   3.981
 6411TIP3   OH219154   6.031   1.432   4.329
 6411TIP3    H119155   6.076   1.423   4.413
 6411TIP3    H219156   5.982   1.350   4.320
 6412TIP3   OH219157   6.797   1.504   3.577
 6412TIP3    H119158   6.850   1.432   3.541
 6412TIP3    H219159   6.832   1.517   3.666
 6413TIP3   OH219160   6.849   1.545   3.847
 6413TIP3    H119161   6.764   1.547   3.889
 6413TIP3    H219162   6.908   1.511   3.914
 6414TIP3   OH219163   7.564   0.858   5.044
 6414TIP3    H119164   7.503   0.919   5.002
 6414TIP3    H219165   7.591   0.799   4.974
 6415TIP3   OH219166   6.205   1.234   5.135
 6415TIP3    H119167   6.254   1.228   5.217
 6415TIP3    H219168   6.136   1.168   5.144
 6416TIP3   OH219169   7.331   0.542   5.120
 6416TIP3    H119170   7.352   0.618   5.174
 6416TIP3    H219171   7.343   0.573   5.030
 6417TIP3   OH219172   7.040   0.709   3.601
 6417TIP3    H119173   6.991   0.704   3.520
 6417TIP3    H219174   7.125   0.744   3.576
 6418TIP3   OH219175   6.607   0.648   4.979
 6418TIP3    H119176   6.542   0.578   4.988
 6418TIP3    H219177   6.560   0.718   4.934
 6419TIP3   OH219178   6.430   0.479   4.496
 6419TIP3    H119179   6.335   0.488   4.487
 6419TIP3    H219180   6.456   0.429   4.418
 6420TIP3   OH219181   6.957   0.569   4.172
 6420TIP3    H119182   6.886   0.617   4.131
 6420TIP3    H219183   7.025   0.566   4.105
 6421TIP3   OH219184   7.121   0.878   5.293
 6421TIP3    H119185   7.119   0.786   5.268
 6421TIP3    H219186   7.210   0.893   5.324
 6422TIP3   OH219187   7.000   0.673   4.419
 6422TIP3    H119188   6.975   0.760   4.388
 6422TIP3    H219189   6.994   0.617   4.341
 6423TIP3   OH219190   6.342   0.648   5.201
 6423TIP3    H119191   6.377   0.731   5.233
 6423TIP3    H219192   6.317   0.600   5.280
 6424TIP3   OH219193   5.952   0.146   4.231
 6424TIP3    H119194   5.952   0.205   4.156
 6424TIP3    H219195   5.907   0.195   4.300
 6425TIP3   OH219196   7.073   0.884   4.828
 6425TIP3    H119197   7.092   0.808   4.772
 6425TIP3    H219198   7.041   0.846   4.910
 6426TIP3   OH219199   6.161   0.468   4.470
 6426TIP3    H119200   6.070   0.478   4.442
 6426TIP3    H219201   6.178   0.374   4.464
 6427TIP3   OH219202   6.391   0.370   4.236
 6427TIP3    H119203   6.462   0.420   4.195
 6427TIP3    H219204   6.328   0.355   4.166
 6428TIP3   OH219205   6.267   0.356   3.978
 6428TIP3    H119206   6.190   0.356   3.921
 6428TIP3    H219207   6.333   0.405   3.929
 6429TIP3   OH219208   7.422   2.031   4.963
 6429TIP3    H119209   7.419   2.047   4.869
 6429TIP3    H219210   7.502   2.075   4.993
 6430TIP3   OH219211   6.367   1.167   5.373
 6430TIP3    H119212   6.446   1.183   5.424
 6430TIP3    H219213   6.295   1.173   5.437
 6431TIP3   OH219214   6.796   0.667   4.603
 6431TIP3    H119215   6.864   0.640   4.541
 6431TIP3    H219216   6.809   0.610   4.679
 6432TIP3   OH219217   6.816   0.542   4.846
 6432TIP3    H119218   6.730   0.569   4.876
 6432TIP3    H219219   6.877   0.600   4.891
 6433TIP3   OH219220   6.527   0.866   4.016
 6433TIP3    H119221   6.452   0.811   3.996
 6433TIP3    H219222   6.504   0.911   4.097
 6434TIP3   OH219223   7.415   1.138   4.609
 6434TIP3    H119224   7.444   1.188   4.532
 6434TIP3    H219225   7.330   1.103   4.584
 6435TIP3   OH219226   6.999   0.139   3.861
 6435TIP3    H119227   6.921   0.090   3.888
 6435TIP3    H219228   7.046   0.156   3.943
 6436TIP3   OH219229   6.952   1.217   5.045
 6436TIP3    H119230   6.989   1.204   5.132
 6436TIP3    H219231   6.906   1.300   5.051
 6437TIP3   OH219232   7.125   0.562   3.954
 6437TIP3    H119233   7.208   0.584   3.911
 6437TIP3    H219234   7.058   0.604   3.900
 6438TIP3   OH219235   6.206   0.891   4.667
 6438TIP3    H119236   6.243   0.879   4.580
 6438TIP3    H219237   6.275   0.862   4.727
 6439TIP3   OH219238   6.685   1.027   3.863
 6439TIP3    H119239   6.641   1.112   3.860
 6439TIP3    H219240   6.625   0.971   3.913
 6440TIP3   OH219241   6.109   0.834   5.316
 6440TIP3    H119242   6.142   0.843   5.406
 6440TIP3    H219243   6.083   0.743   5.310
 6441TIP3   OH219244   6.868   0.977   5.312
 6441TIP3    H119245   6.825   0.953   5.230
 6441TIP3    H219246   6.959   0.950   5.301
 6442TIP3   OH219247   7.085   1.487   4.916
 6442TIP3    H119248   6.990   1.476   4.923
 6442TIP3    H219249   7.111   1.527   4.998
 6443TIP3   OH219250   7.366   0.614   3.826
 6443TIP3    H119251   7.388   0.559   3.751
 6443TIP3    H219252   7.403   0.699   3.805
 6444TIP3   OH219253   7.723   1.431   4.883
 6444TIP3    H119254   7.629   1.414   4.887
 6444TIP3    H219255   7.751   1.391   4.801
 6445TIP3   OH219256   7.209   1.342   3.739
 6445TIP3    H119257   7.181   1.273   3.799
 6445TIP3    H219258   7.227   1.297   3.657
 6446TIP3   OH219259   7.169   1.022   4.529
 6446TIP3    H119260   7.077   1.002   4.543
 6446TIP3    H219261   7.206   0.941   4.494
 6447TIP3   OH219262   6.349   1.230   4.336
 6447TIP3    H119263   6.343   1.306   4.278
 6447TIP3    H219264   6.259   1.213   4.364
 6448TIP3   OH219265   5.897   0.545   4.034
 6448TIP3    H119266   5.949   0.620   4.062
 6448TIP3    H219267   5.823   0.543   4.095
 6449TIP3   OH219268   6.439   0.991   4.236
 6449TIP3    H119269   6.425   1.082   4.264
 6449TIP3    H219270   6.399   0.938   4.305
 6450TIP3   OH219271   6.633   1.542   4.790
 6450TIP3    H119272   6.668   1.616   4.741
 6450TIP3    H219273   6.707   1.510   4.841
 6451TIP3   OH219274   6.263   1.447   4.183
 6451TIP3    H119275   6.177   1.454   4.223
 6451TIP3    H219276   6.300   1.536   4.189
 6452TIP3   OH219277   6.978   1.205   4.769
 6452TIP3    H119278   6.968   1.204   4.864
 6452TIP3    H219279   7.053   1.148   4.752
 6453TIP3   OH219280   6.981   1.077   3.604
 6453TIP3    H119281   7.030   1.061   3.685
 6453TIP3    H219282   6.895   1.037   3.619
 6454TIP3   OH219283   7.233   1.708   4.803
 6454TIP3    H119284   7.164   1.643   4.817
 6454TIP3    H219285   7.201   1.761   4.731
 6455TIP3   OH219286   7.287   1.548   3.439
 6455TIP3    H119287   7.313   1.612   3.373
 6455TIP3    H219288   7.215   1.589   3.486
 6456TIP3   OH219289   7.148   1.031   3.816
 6456TIP3    H119290   7.127   0.998   3.904
 6456TIP3    H219291   7.243   1.039   3.815
 6457TIP3   OH219292   6.057   1.438   4.954
 6457TIP3    H119293   6.108   1.378   5.007
 6457TIP3    H219294   6.074   1.524   4.991
 6458TIP3   OH219295   6.328   1.056   3.648
 6458TIP3    H119296   6.336   0.964   3.621
 6458TIP3    H219297   6.313   1.052   3.742
 6459TIP3   OH219298   6.273   1.069   3.919
 6459TIP3    H119299   6.338   1.042   3.985
 6459TIP3    H219300   6.272   1.164   3.925
 6460TIP3   OH219301   6.010   0.776   4.133
 6460TIP3    H119302   5.944   0.823   4.184
 6460TIP3    H219303   6.029   0.834   4.059
 6461TIP3   OH219304   6.541   1.256   3.857
 6461TIP3    H119305   6.456   1.279   3.893
 6461TIP3    H219306   6.564   1.330   3.799
 6462TIP3   OH219307   6.814   0.342   4.238
 6462TIP3    H119308   6.865   0.423   4.228
 6462TIP3    H219309   6.757   0.359   4.314
 6463TIP3   OH219310   6.991   0.688   5.001
 6463TIP3    H119311   7.006   0.676   5.095
 6463TIP3    H219312   7.053   0.627   4.959
 6464TIP3   OH219313   6.291   1.341   3.933
 6464TIP3    H119314   6.270   1.412   3.872
 6464TIP3    H219315   6.279   1.380   4.020
 6465TIP3   OH219316   7.265   0.781   4.434
 6465TIP3    H119317   7.195   0.721   4.409
 6465TIP3    H219318   7.315   0.733   4.500
 6466TIP3   OH219319   6.025   0.945   3.910
 6466TIP3    H119320   6.098   1.006   3.918
 6466TIP3    H219321   6.056   0.879   3.849
 6467TIP3   OH219322   5.937   0.277   3.998
 6467TIP3    H119323   5.952   0.372   4.003
 6467TIP3    H219324   5.842   0.268   4.006
 6468TIP3   OH219325   7.263   1.702   4.371
 6468TIP3    H119326   7.222   1.754   4.302
 6468TIP3    H219327   7.357   1.719   4.361
 6469TIP3   OH219328   5.857   1.215   4.305
 6469TIP3    H119329   5.813   1.247   4.384
 6469TIP3    H219330   5.810   1.256   4.233
 6470TIP3   OH219331   6.059   1.723   5.356
 6470TIP3    H119332   6.143   1.722   5.403
 6470TIP3    H219333   6.034   1.631   5.351
 6471TIP3   OH219334   6.523   1.658   5.405
 6471TIP3    H119335   6.614   1.631   5.419
 6471TIP3    H219336   6.492   1.602   5.334
 6472TIP3   OH219337   6.483   1.253   3.535
 6472TIP3    H119338   6.436   1.184   3.580
 6472TIP3    H219339   6.557   1.209   3.494
 6473TIP3   OH219340   7.145   1.599   5.159
 6473TIP3    H119341   7.156   1.534   5.228
 6473TIP3    H219342   7.218   1.660   5.171
 6474TIP3   OH219343   6.928   1.298   3.453
 6474TIP3    H119344   6.962   1.229   3.510
 6474TIP3    H219345   6.984   1.293   3.375
 6475TIP3   OH219346   6.155   1.156   5.554
 6475TIP3    H119347   6.172   1.062   5.559
 6475TIP3    H219348   6.071   1.163   5.508
 6476TIP3   OH219349   6.150   0.752   3.765
 6476TIP3    H119350   6.199   0.726   3.843
 6476TIP3    H219351   6.217   0.764   3.698
 6477TIP3   OH219352   6.773   1.235   5.350
 6477TIP3    H119353   6.729   1.253   5.267
 6477TIP3    H219354   6.816   1.150   5.337
 6478TIP3   OH219355   6.721   0.975   3.595
 6478TIP3    H119356   6.700   0.985   3.688
 6478TIP3    H219357   6.694   0.887   3.573
 6479TIP3   OH219358   7.247   1.251   4.931
 6479TIP3    H119359   7.321   1.293   4.888
 6479TIP3    H219360   7.176   1.315   4.926
 6480TIP3   OH219361   6.277   0.895   5.536
 6480TIP3    H119362   6.363   0.864   5.508
 6480TIP3    H219363   6.289   0.924   5.626
 6481TIP3   OH219364   6.316   0.693   3.983
 6481TIP3    H119365   6.294   0.668   4.073
 6481TIP3    H219366   6.357   0.615   3.945
 6482TIP3   OH219367   6.616   0.789   5.257
 6482TIP3    H119368   6.537   0.842   5.250
 6482TIP3    H219369   6.671   0.819   5.185
 6483TIP3   OH219370   6.434   0.504   3.820
 6483TIP3    H119371   6.416   0.506   3.726
 6483TIP3    H219372   6.524   0.535   3.827
 6484TIP3   OH219373   7.107   1.177   5.309
 6484TIP3    H119374   7.185   1.142   5.266
 6484TIP3    H219375   7.093   1.118   5.383
 6485TIP3   OH219376   7.273   0.800   3.490
 6485TIP3    H119377   7.301   0.744   3.417
 6485TIP3    H219378   7.243   0.881   3.448
 6486TIP3   OH219379   6.757   0.530   5.262
 6486TIP3    H119380   6.787   0.474   5.190
 6486TIP3    H219381   6.718   0.606   5.219
 6487TIP3   OH219382   6.772   0.902   5.064
 6487TIP3    H119383   6.828   0.845   5.011
 6487TIP3    H219384   6.722   0.952   5.000
 6488TIP3   OH219385   7.359   0.928   5.443
 6488TIP3    H119386   7.394   0.861   5.385
 6488TIP3    H219387   7.414   1.005   5.428
 6489TIP3   OH219388   7.346   1.139   5.161
 6489TIP3    H119389   7.287   1.182   5.098
 6489TIP3    H219390   7.428   1.129   5.113
 6490TIP3   OH219391   6.540   0.775   5.522
 6490TIP3    H119392   6.537   0.679   5.524
 6490TIP3    H219393   6.587   0.796   5.442
 6491TIP3   OH219394   6.936   0.545   5.467
 6491TIP3    H119395   6.887   0.544   5.550
 6491TIP3    H219396   6.869   0.532   5.400
 6492TIP3   OH219397   6.287   1.549   3.751
 6492TIP3    H119398   6.377   1.529   3.723
 6492TIP3    H219399   6.249   1.593   3.675
 6493TIP3   OH219400   5.753   0.941   3.931
 6493TIP3    H119401   5.848   0.952   3.926
 6493TIP3    H219402   5.736   0.856   3.891
 6494TIP3   OH219403   5.651   1.510   4.389
 6494TIP3    H119404   5.587   1.454   4.345
 6494TIP3    H219405   5.697   1.451   4.448
 6495TIP3   OH219406   5.798   1.348   4.557
 6495TIP3    H119407   5.791   1.279   4.623
 6495TIP3    H219408   5.851   1.416   4.599
 6496TIP3   OH219409   7.527   1.774   4.365
 6496TIP3    H119410   7.557   1.793   4.454
 6496TIP3    H219411   7.595   1.808   4.308
 6497TIP3   OH219412   7.561   1.790   4.649
 6497TIP3    H119413   7.516   1.706   4.643
 6497TIP3    H219414   7.631   1.776   4.712
 6498TIP3   OH219415   7.608   1.479   5.188
 6498TIP3    H119416   7.537   1.486   5.251
 6498TIP3    H219417   7.658   1.560   5.199
 6499TIP3   OH219418   7.422   1.043   3.832
 6499TIP3    H119419   7.484   1.108   3.799
 6499TIP3    H219420   7.469   1.001   3.905
 6500TIP3   OH219421   7.558   0.887   4.017
 6500TIP3    H119422   7.486   0.856   4.074
 6500TIP3    H219423   7.627   0.913   4.078
 6501TIP3   OH219424   7.597   1.273   4.449
 6501TIP3    H119425   7.657   1.211   4.408
 6501TIP3    H219426   7.603   1.352   4.395
 6502TIP3   OH219427   7.411   1.556   4.651
 6502TIP3    H119428   7.343   1.602   4.700
 6502TIP3    H219429   7.365   1.516   4.577
 6503TIP3   OH219430   7.471   0.826   3.676
 6503TIP3    H119431   7.399   0.819   3.614
 6503TIP3    H219432   7.453   0.906   3.725
 6504TIP3   OH219433   7.455   0.518   3.581
 6504TIP3    H119434   7.419   0.565   3.506
 6504TIP3    H219435   7.437   0.426   3.563
 6505TIP3   OH219436   7.343   0.788   4.165
 6505TIP3    H119437   7.342   0.693   4.154
 6505TIP3    H219438   7.324   0.801   4.258
 6506TIP3   OH219439   5.972   0.811   4.922
 6506TIP3    H119440   5.966   0.782   4.831
 6506TIP3    H219441   6.066   0.812   4.941
 6507TIP3   OH219442   7.551   1.148   4.979
 6507TIP3    H119443   7.647   1.153   4.987
 6507TIP3    H219444   7.528   1.216   4.916
 6508TIP3   OH219445   7.777   1.034   5.101
 6508TIP3    H119446   7.699   0.985   5.073
 6508TIP3    H219447   7.851   0.983   5.068
 6509TIP3   OH219448   7.455   0.530   4.073
 6509TIP3    H119449   7.449   0.434   4.072
 6509TIP3    H219450   7.418   0.557   3.989
 6510TIP3   OH219451   7.633   0.625   4.630
 6510TIP3    H119452   7.670   0.672   4.555
 6510TIP3    H219453   7.600   0.694   4.687
 6511TIP3   OH219454   7.536   0.845   4.760
 6511TIP3    H119455   7.460   0.893   4.790
 6511TIP3    H219456   7.584   0.907   4.706
 6512TIP3   OH219457   6.230   0.319   5.689
 6512TIP3    H119458   6.300   0.277   5.639
 6512TIP3    H219459   6.215   0.402   5.644
 6513TIP3   OH219460   5.995   0.502   4.973
 6513TIP3    H119461   6.054   0.516   4.899
 6513TIP3    H219462   5.967   0.590   4.998
 6514TIP3   OH219463   7.093   1.666   4.007
 6514TIP3    H119464   7.151   1.655   3.931
 6514TIP3    H219465   7.134   1.735   4.058
 6515TIP3   OH219466   6.209   1.451   5.387
 6515TIP3    H119467   6.114   1.440   5.382
 6515TIP3    H219468   6.228   1.444   5.481
 6516TIP3   OH219469   6.402   1.502   4.935
 6516TIP3    H119470   6.353   1.578   4.904
 6516TIP3    H219471   6.488   1.511   4.892
 6517TIP3   OH219472   6.807   1.737   5.075
 6517TIP3    H119473   6.844   1.730   5.163
 6517TIP3    H219474   6.870   1.790   5.027
 6518TIP3   OH219475   6.998   1.891   4.949
 6518TIP3    H119476   7.063   1.837   4.904
 6518TIP3    H219477   7.049   1.950   5.004
 6519TIP3   OH219478   6.064   1.736   4.981
 6519TIP3    H119479   5.975   1.759   4.954
 6519TIP3    H219480   6.087   1.801   5.047
 6520TIP3   OH219481   6.297   1.736   4.833
 6520TIP3    H119482   6.213   1.738   4.880
 6520TIP3    H219483   6.274   1.760   4.743
 6521TIP3   OH219484   6.706   1.755   4.629
 6521TIP3    H119485   6.635   1.767   4.566
 6521TIP3    H219486   6.718   1.841   4.669
 6522TIP3   OH219487   6.970   1.685   4.670
 6522TIP3    H119488   6.878   1.707   4.653
 6522TIP3    H219489   7.020   1.753   4.627
 6523TIP3   OH219490   7.170   1.860   4.576
 6523TIP3    H119491   7.171   1.948   4.538
 6523TIP3    H219492   7.201   1.803   4.506
 6524TIP3   OH219493   5.974   1.526   4.703
 6524TIP3    H119494   6.000   1.502   4.792
 6524TIP3    H219495   6.045   1.495   4.648
 6525TIP3   OH219496   6.177   1.416   4.562
 6525TIP3    H119497   6.187   1.332   4.607
 6525TIP3    H219498   6.264   1.455   4.566
 6526TIP3   OH219499   6.445   1.498   4.588
 6526TIP3    H119500   6.460   1.405   4.574
 6526TIP3    H219501   6.501   1.521   4.662
 6527TIP3   OH219502   5.732   1.326   4.089
 6527TIP3    H119503   5.650   1.291   4.053
 6527TIP3    H219504   5.737   1.415   4.055
 6528TIP3   OH219505   6.543   1.476   3.680
 6528TIP3    H119506   6.626   1.504   3.642
 6528TIP3    H219507   6.513   1.406   3.623
 6529TIP3   OH219508   7.244   1.612   3.779
 6529TIP3    H119509   7.236   1.517   3.770
 6529TIP3    H219510   7.201   1.646   3.701
 6530TIP3   OH219511   5.847   1.313   3.735
 6530TIP3    H119512   5.850   1.325   3.830
 6530TIP3    H219513   5.929   1.267   3.714
 6531TIP3   OH219514   7.459   1.758   4.964
 6531TIP3    H119515   7.384   1.728   4.912
 6531TIP3    H219516   7.447   1.852   4.971
 6532TIP3   OH219517   8.054   1.067   4.462
 6532TIP3    H119518   8.070   1.003   4.531
 6532TIP3    H219519   8.094   1.148   4.495
 6533TIP3   OH219520   7.979   1.403   4.178
 6533TIP3    H119521   7.965   1.308   4.177
 6533TIP3    H219522   8.073   1.413   4.161
 6534TIP3   OH219523   7.764   0.751   3.878
 6534TIP3    H119524   7.690   0.804   3.907
 6534TIP3    H219525   7.726   0.665   3.858
 6535TIP3   OH219526   7.794   0.940   4.153
 6535TIP3    H119527   7.856   0.874   4.184
 6535TIP3    H219528   7.849   1.013   4.124
 6536TIP3   OH219529   7.987   0.771   4.254
 6536TIP3    H119530   8.064   0.783   4.310
 6536TIP3    H219531   8.011   0.701   4.194
 6537TIP3   OH219532   8.365   1.284   4.372
 6537TIP3    H119533   8.302   1.347   4.406
 6537TIP3    H219534   8.450   1.327   4.383
 6538TIP3   OH219535   8.244   0.603   4.227
 6538TIP3    H119536   8.239   0.656   4.307
 6538TIP3    H219537   8.216   0.516   4.255
 6539TIP3   OH219538   8.220   1.490   4.482
 6539TIP3    H119539   8.215   1.580   4.450
 6539TIP3    H219540   8.137   1.476   4.528
 6540TIP3   OH219541   7.605   1.206   3.701
 6540TIP3    H119542   7.571   1.226   3.614
 6540TIP3    H219543   7.627   1.291   3.739
 6541TIP3   OH219544   8.153   0.987   3.951
 6541TIP3    H119545   8.093   0.958   3.883
 6541TIP3    H219546   8.213   0.913   3.962
 6542TIP3   OH219547   8.231   1.433   4.068
 6542TIP3    H119548   8.215   1.446   3.975
 6542TIP3    H219549   8.326   1.439   4.078
 6543TIP3   OH219550   8.340   1.041   4.250
 6543TIP3    H119551   8.301   1.066   4.166
 6543TIP3    H219552   8.345   1.123   4.299
 6544TIP3   OH219553   8.439   1.591   4.648
 6544TIP3    H119554   8.381   1.660   4.681
 6544TIP3    H219555   8.380   1.532   4.601
 6545TIP3   OH219556   8.158   1.220   4.685
 6545TIP3    H119557   8.164   1.301   4.735
 6545TIP3    H219558   8.079   1.177   4.719
 6546TIP3   OH219559   8.235   1.768   4.700
 6546TIP3    H119560   8.206   1.769   4.609
 6546TIP3    H219561   8.154   1.753   4.750
 6547TIP3   OH219562   7.979   0.886   3.751
 6547TIP3    H119563   7.920   0.946   3.705
 6547TIP3    H219564   7.921   0.825   3.795
 6548TIP3   OH219565   7.797   1.300   4.657
 6548TIP3    H119566   7.731   1.280   4.591
 6548TIP3    H219567   7.827   1.214   4.687
 6549TIP3   OH219568   7.694   1.484   4.294
 6549TIP3    H119569   7.784   1.463   4.268
 6549TIP3    H219570   7.702   1.560   4.351
 6550TIP3   OH219571   8.296   1.790   3.440
 6550TIP3    H119572   8.243   1.794   3.360
 6550TIP3    H219573   8.312   1.882   3.462
 6551TIP3   OH219574   7.825   1.681   3.817
 6551TIP3    H119575   7.866   1.672   3.902
 6551TIP3    H219576   7.774   1.601   3.806
 6552TIP3   OH219577   7.978   1.505   4.620
 6552TIP3    H119578   8.025   1.508   4.703
 6552TIP3    H219579   7.915   1.434   4.630
 6553TIP3   OH219580   8.450   0.845   4.412
 6553TIP3    H119581   8.368   0.803   4.437
 6553TIP3    H219582   8.424   0.919   4.357
 6554TIP3   OH219583   8.206   0.628   3.931
 6554TIP3    H119584   8.121   0.595   3.961
 6554TIP3    H219585   8.200   0.625   3.835
 6555TIP3   OH219586   8.151   0.900   4.668
 6555TIP3    H119587   8.227   0.951   4.695
 6555TIP3    H219588   8.136   0.839   4.740
 6556TIP3   OH219589   7.877   0.491   3.741
 6556TIP3    H119590   7.845   0.499   3.651
 6556TIP3    H219591   7.799   0.469   3.792
 6557TIP3   OH219592   7.969   0.511   3.997
 6557TIP3    H119593   7.932   0.524   3.909
 6557TIP3    H219594   8.011   0.425   3.993
 6558TIP3   OH219595   8.043   0.597   3.415
 6558TIP3    H119596   7.968   0.601   3.356
 6558TIP3    H219597   8.060   0.688   3.439
 6559TIP3   OH219598   8.134   1.439   4.852
 6559TIP3    H119599   8.200   1.497   4.889
 6559TIP3    H219600   8.074   1.421   4.924
 6560TIP3   OH219601   8.014   1.118   4.159
 6560TIP3    H119602   8.067   1.081   4.088
 6560TIP3    H219603   8.058   1.090   4.239
 6561TIP3   OH219604   7.934   1.092   4.796
 6561TIP3    H119605   7.973   1.103   4.882
 6561TIP3    H219606   7.926   0.997   4.786
 6562TIP3   OH219607   8.116   1.473   3.816
 6562TIP3    H119608   8.110   1.556   3.768
 6562TIP3    H219609   8.031   1.464   3.859
 6563TIP3   OH219610   7.689   0.794   3.511
 6563TIP3    H119611   7.741   0.871   3.534
 6563TIP3    H219612   7.615   0.796   3.572
 6564TIP3   OH219613   8.156   1.231   3.680
 6564TIP3    H119614   8.156   1.317   3.722
 6564TIP3    H219615   8.167   1.169   3.753
 6565TIP3   OH219616   8.408   1.845   4.254
 6565TIP3    H119617   8.425   1.939   4.263
 6565TIP3    H219618   8.496   1.806   4.247
 6566TIP3   OH219619   8.060   1.704   3.677
 6566TIP3    H119620   7.972   1.711   3.714
 6566TIP3    H219621   8.089   1.795   3.666
 6567TIP3   OH219622   7.839   1.696   4.447
 6567TIP3    H119623   7.890   1.637   4.502
 6567TIP3    H219624   7.851   1.782   4.487
 6568TIP3   OH219625   8.081   1.349   3.150
 6568TIP3    H119626   8.136   1.284   3.107
 6568TIP3    H219627   8.090   1.331   3.243
 6569TIP3   OH219628   8.075   1.306   3.424
 6569TIP3    H119629   8.112   1.276   3.507
 6569TIP3    H219630   8.076   1.402   3.431
 6570TIP3   OH219631   7.800   1.033   3.605
 6570TIP3    H119632   7.734   1.080   3.656
 6570TIP3    H219633   7.818   1.090   3.530
 6571TIP3   OH219634   8.068   1.578   3.433
 6571TIP3    H119635   8.105   1.643   3.373
 6571TIP3    H219636   8.062   1.624   3.517
 6572TIP3   OH219637   7.824   1.197   3.383
 6572TIP3    H119638   7.900   1.253   3.399
 6572TIP3    H219639   7.854   1.134   3.318
 6573TIP3   OH219640   7.721   0.522   3.517
 6573TIP3    H119641   7.728   0.617   3.508
 6573TIP3    H219642   7.632   0.508   3.549
 6574TIP3   OH219643   7.648   1.466   3.795
 6574TIP3    H119644   7.606   1.501   3.873
 6574TIP3    H219645   7.603   1.508   3.722
 6575TIP3   OH219646   7.853   1.993   4.865
 6575TIP3    H119647   7.934   1.996   4.915
 6575TIP3    H219648   7.837   1.899   4.852
 6576TIP3   OH219649   8.325   1.953   4.898
 6576TIP3    H119650   8.373   1.927   4.976
 6576TIP3    H219651   8.308   1.870   4.851
 6577TIP3   OH219652   7.937   1.396   5.049
 6577TIP3    H119653   7.958   1.303   5.041
 6577TIP3    H219654   7.855   1.406   5.001
 6578TIP3   OH219655   7.933   1.001   3.225
 6578TIP3    H119656   7.986   0.950   3.286
 6578TIP3    H219657   7.989   1.014   3.149
 6579TIP3   OH219658   8.076   1.148   5.026
 6579TIP3    H119659   8.155   1.097   5.007
 6579TIP3    H219660   8.091   1.184   5.113
 6580TIP3   OH219661   8.081   0.877   3.466
 6580TIP3    H119662   8.044   0.880   3.554
 6580TIP3    H219663   8.156   0.936   3.470
 6581TIP3   OH219664   8.375   1.051   4.714
 6581TIP3    H119665   8.320   1.127   4.693
 6581TIP3    H219666   8.452   1.060   4.659
 6582TIP3   OH219667   8.315   1.008   4.979
 6582TIP3    H119668   8.336   0.915   4.990
 6582TIP3    H219669   8.347   1.030   4.892
 6583TIP3   OH219670   8.109   1.780   3.228
 6583TIP3    H119671   8.108   1.853   3.165
 6583TIP3    H219672   8.047   1.716   3.192
 6584TIP3   OH219673   7.551   1.196   3.409
 6584TIP3    H119674   7.646   1.206   3.404
 6584TIP3    H219675   7.534   1.108   3.375
 6585TIP3   OH219676   7.449   1.765   3.877
 6585TIP3    H119677   7.384   1.711   3.832
 6585TIP3    H219678   7.491   1.705   3.939
 6586TIP3   OH219679   7.594   1.601   4.047
 6586TIP3    H119680   7.588   1.533   4.114
 6586TIP3    H219681   7.643   1.672   4.089
 6587TIP3   OH219682   7.788   1.090   4.385
 6587TIP3    H119683   7.776   1.033   4.310
 6587TIP3    H219684   7.882   1.089   4.403
 6588TIP3   OH219685   8.065   0.628   5.167
 6588TIP3    H119686   8.138   0.583   5.126
 6588TIP3    H219687   7.989   0.573   5.147
 6589TIP3   OH219688   7.785   0.778   4.454
 6589TIP3    H119689   7.842   0.763   4.379
 6589TIP3    H219690   7.844   0.801   4.525
 6590TIP3   OH219691   8.015   1.729   4.863
 6590TIP3    H119692   7.929   1.704   4.896
 6590TIP3    H219693   8.075   1.704   4.933
 6591TIP3   OH219694   8.202   1.758   4.420
 6591TIP3    H119695   8.137   1.819   4.386
 6591TIP3    H219696   8.283   1.780   4.375
 6592TIP3   OH219697   7.843   1.991   4.483
 6592TIP3    H119698   7.754   2.018   4.461
 6592TIP3    H219699   7.873   2.057   4.546
 6593TIP3   OH219700   8.054   1.961   4.311
 6593TIP3    H119701   7.974   1.971   4.363
 6593TIP3    H219702   8.033   2.000   4.226
 6594TIP3   OH219703   8.486   2.142   3.994
 6594TIP3    H119704   8.391   2.137   4.001
 6594TIP3    H219705   8.517   2.126   4.083
 6595TIP3   OH219706   7.767   1.781   4.191
 6595TIP3    H119707   7.793   1.760   4.281
 6595TIP3    H219708   7.837   1.746   4.137
 6596TIP3   OH219709   7.965   1.653   4.052
 6596TIP3    H119710   7.974   1.572   4.101
 6596TIP3    H219711   8.051   1.695   4.058
 6597TIP3   OH219712   8.221   1.782   4.055
 6597TIP3    H119713   8.283   1.734   4.000
 6597TIP3    H219714   8.270   1.805   4.133
 6598TIP3   OH219715   7.531   1.578   3.573
 6598TIP3    H119716   7.447   1.545   3.543
 6598TIP3    H219717   7.535   1.668   3.540
 6599TIP3   OH219718   7.637   1.570   3.228
 6599TIP3    H119719   7.638   1.580   3.323
 6599TIP3    H219720   7.723   1.535   3.206
 6600TIP3   OH219721   1.189   1.920   5.409
 6600TIP3    H119722   1.160   2.010   5.393
 6600TIP3    H219723   1.119   1.865   5.373
 6601TIP3   OH219724   1.206   1.946   5.809
 6601TIP3    H119725   1.245   1.918   5.892
 6601TIP3    H219726   1.168   1.866   5.772
 6602TIP3   OH219727   0.519   1.871   6.160
 6602TIP3    H119728   0.544   1.785   6.193
 6602TIP3    H219729   0.565   1.880   6.077
 6603TIP3   OH219730   1.464   2.229   5.489
 6603TIP3    H119731   1.454   2.166   5.560
 6603TIP3    H219732   1.482   2.312   5.533
 6604TIP3   OH219733   0.490   2.208   5.874
 6604TIP3    H119734   0.486   2.112   5.878
 6604TIP3    H219735   0.581   2.227   5.855
 6605TIP3   OH219736   0.273   1.771   5.865
 6605TIP3    H119737   0.242   1.687   5.897
 6605TIP3    H219738   0.236   1.778   5.777
 6606TIP3   OH219739   1.117   2.653   5.508
 6606TIP3    H119740   1.142   2.591   5.440
 6606TIP3    H219741   1.122   2.603   5.590
 6607TIP3   OH219742   0.993   2.152   5.833
 6607TIP3    H119743   1.042   2.080   5.792
 6607TIP3    H219744   1.061   2.210   5.868
 6608TIP3   OH219745   2.035   1.462   5.843
 6608TIP3    H119746   2.047   1.546   5.887
 6608TIP3    H219747   2.072   1.474   5.756
 6609TIP3   OH219748   1.366   1.627   5.853
 6609TIP3    H119749   1.408   1.546   5.883
 6609TIP3    H219750   1.366   1.620   5.757
 6610TIP3   OH219751   0.729   1.227   5.849
 6610TIP3    H119752   0.705   1.315   5.878
 6610TIP3    H219753   0.647   1.178   5.851
 6611TIP3   OH219754   1.468   1.396   5.452
 6611TIP3    H119755   1.531   1.389   5.523
 6611TIP3    H219756   1.517   1.433   5.379
 6612TIP3   OH219757   0.825   1.700   5.756
 6612TIP3    H119758   0.918   1.682   5.763
 6612TIP3    H219759   0.786   1.617   5.729
 6613TIP3   OH219760   2.076   1.678   6.017
 6613TIP3    H119761   2.000   1.733   5.999
 6613TIP3    H219762   2.122   1.722   6.088
 6614TIP3   OH219763   1.053   2.130   5.293
 6614TIP3    H119764   1.033   2.116   5.201
 6614TIP3    H219765   1.015   2.216   5.313
 6615TIP3   OH219766   0.826   2.069   6.041
 6615TIP3    H119767   0.769   2.137   6.077
 6615TIP3    H219768   0.871   2.111   5.968
 6616TIP3   OH219769   1.622   1.408   5.679
 6616TIP3    H119770   1.571   1.394   5.759
 6616TIP3    H219771   1.677   1.484   5.698
 6617TIP3   OH219772   0.639   1.446   5.988
 6617TIP3    H119773   0.701   1.512   6.020
 6617TIP3    H219774   0.569   1.444   6.053
 6618TIP3   OH219775   0.665   2.269   6.159
 6618TIP3    H119776   0.655   2.359   6.126
 6618TIP3    H219777   0.583   2.251   6.205
 6619TIP3   OH219778   0.082   1.965   5.399
 6619TIP3    H119779   0.026   1.971   5.321
 6619TIP3    H219780   0.102   2.056   5.421
 6620TIP3   OH219781   1.491   2.474   5.633
 6620TIP3    H119782   1.404   2.468   5.671
 6620TIP3    H219783   1.492   2.557   5.585
 6621TIP3   OH219784   1.839   1.335   5.998
 6621TIP3    H119785   1.758   1.384   5.977
 6621TIP3    H219786   1.904   1.371   5.937
 6622TIP3   OH219787   1.117   1.022   6.006
 6622TIP3    H119788   1.081   0.944   5.963
 6622TIP3    H219789   1.064   1.033   6.085
 6623TIP3   OH219790   1.201   2.501   5.293
 6623TIP3    H119791   1.252   2.421   5.278
 6623TIP3    H219792   1.259   2.572   5.264
 6624TIP3   OH219793   1.355   2.284   5.240
 6624TIP3    H119794   1.367   2.210   5.181
 6624TIP3    H219795   1.396   2.257   5.322
 6625TIP3   OH219796   1.721   2.372   5.981
 6625TIP3    H119797   1.710   2.297   5.922
 6625TIP3    H219798   1.706   2.448   5.926
 6626TIP3   OH219799   1.016   1.774   5.247
 6626TIP3    H119800   0.934   1.822   5.235
 6626TIP3    H219801   1.062   1.783   5.164
 6627TIP3   OH219802   0.984   1.577   4.970
 6627TIP3    H119803   1.049   1.634   5.011
 6627TIP3    H219804   1.035   1.517   4.916
 6628TIP3   OH219805   1.909   2.023   5.855
 6628TIP3    H119806   1.827   2.073   5.852
 6628TIP3    H219807   1.948   2.037   5.769
 6629TIP3   OH219808   1.375   1.864   5.213
 6629TIP3    H119809   1.320   1.889   5.288
 6629TIP3    H219810   1.460   1.842   5.252
 6630TIP3   OH219811   1.599   1.885   6.153
 6630TIP3    H119812   1.602   1.969   6.197
 6630TIP3    H219813   1.518   1.886   6.103
 6631TIP3   OH219814   0.606   1.829   5.625
 6631TIP3    H119815   0.572   1.771   5.557
 6631TIP3    H219816   0.687   1.787   5.654
 6632TIP3   OH219817   0.740   2.263   5.760
 6632TIP3    H119818   0.716   2.250   5.668
 6632TIP3    H219819   0.828   2.227   5.767
 6633TIP3   OH219820   0.755   1.804   6.005
 6633TIP3    H119821   0.769   1.784   5.912
 6633TIP3    H219822   0.776   1.897   6.012
 6634TIP3   OH219823   1.253   2.471   5.766
 6634TIP3    H119824   1.241   2.553   5.813
 6634TIP3    H219825   1.236   2.403   5.831
 6635TIP3   OH219826   0.868   2.372   6.319
 6635TIP3    H119827   0.810   2.433   6.364
 6635TIP3    H219828   0.810   2.321   6.263
 6636TIP3   OH219829   1.211   1.724   5.042
 6636TIP3    H119830   1.270   1.783   5.089
 6636TIP3    H219831   1.239   1.729   4.951
 6637TIP3   OH219832   0.650   1.934   6.405
 6637TIP3    H119833   0.640   2.013   6.458
 6637TIP3    H219834   0.597   1.950   6.328
 6638TIP3   OH219835   0.950   2.390   5.306
 6638TIP3    H119836   1.036   2.431   5.307
 6638TIP3    H219837   0.895   2.450   5.255
 6639TIP3   OH219838   0.667   2.546   6.404
 6639TIP3    H119839   0.651   2.554   6.310
 6639TIP3    H219840   0.580   2.531   6.442
 6640TIP3   OH219841   1.728   0.950   5.118
 6640TIP3    H119842   1.652   0.976   5.170
 6640TIP3    H219843   1.743   1.023   5.058
 6641TIP3   OH219844   0.483   1.667   5.424
 6641TIP3    H119845   0.411   1.723   5.394
 6641TIP3    H219846   0.465   1.582   5.385
 6642TIP3   OH219847   1.542   2.323   4.653
 6642TIP3    H119848   1.538   2.416   4.631
 6642TIP3    H219849   1.632   2.297   4.634
 6643TIP3   OH219850   0.250   2.080   6.338
 6643TIP3    H119851   0.248   2.035   6.254
 6643TIP3    H219852   0.161   2.068   6.373
 6644TIP3   OH219853   0.234   2.290   5.969
 6644TIP3    H119854   0.315   2.248   5.942
 6644TIP3    H219855   0.260   2.346   6.043
 6645TIP3   OH219856   1.954   2.720   6.051
 6645TIP3    H119857   1.957   2.626   6.066
 6645TIP3    H219858   1.874   2.749   6.095
 6646TIP3   OH219859   1.064   2.507   6.179
 6646TIP3    H119860   1.057   2.599   6.205
 6646TIP3    H219861   0.992   2.464   6.226
 6647TIP3   OH219862   0.849   2.603   5.134
 6647TIP3    H119863   0.807   2.588   5.050
 6647TIP3    H219864   0.817   2.689   5.162
 6648TIP3   OH219865   0.269   2.477   5.514
 6648TIP3    H119866   0.315   2.466   5.597
 6648TIP3    H219867   0.223   2.394   5.501
 6649TIP3   OH219868   1.046   2.546   4.754
 6649TIP3    H119869   1.096   2.473   4.719
 6649TIP3    H219870   1.082   2.561   4.842
 6650TIP3   OH219871   1.101   2.588   5.023
 6650TIP3    H119872   1.017   2.587   5.070
 6650TIP3    H219873   1.165   2.559   5.089
 6651TIP3   OH219874   1.844   1.851   6.336
 6651TIP3    H119875   1.763   1.858   6.285
 6651TIP3    H219876   1.866   1.758   6.333
 6652TIP3   OH219877   0.449   2.268   6.355
 6652TIP3    H119878   0.513   2.230   6.415
 6652TIP3    H219879   0.379   2.202   6.349
 6653TIP3   OH219880   1.414   1.181   6.327
 6653TIP3    H119881   1.492   1.162   6.379
 6653TIP3    H219882   1.343   1.185   6.391
 6654TIP3   OH219883   1.604   1.615   6.222
 6654TIP3    H119884   1.568   1.610   6.311
 6654TIP3    H219885   1.593   1.707   6.197
 6655TIP3   OH219886   1.295   1.706   4.781
 6655TIP3    H119887   1.246   1.710   4.700
 6655TIP3    H219888   1.377   1.751   4.763
 6656TIP3   OH219889   0.985   1.150   5.124
 6656TIP3    H119890   0.912   1.161   5.185
 6656TIP3    H219891   0.973   1.063   5.087
 6657TIP3   OH219892   0.796   1.601   6.176
 6657TIP3    H119893   0.735   1.618   6.248
 6657TIP3    H219894   0.788   1.677   6.120
 6658TIP3   OH219895   0.692   1.480   5.669
 6658TIP3    H119896   0.600   1.497   5.691
 6658TIP3    H219897   0.689   1.448   5.578
 6659TIP3   OH219898   1.154   1.573   5.371
 6659TIP3    H119899   1.102   1.645   5.334
 6659TIP3    H219900   1.212   1.547   5.299
 6660TIP3   OH219901   1.338   1.843   6.455
 6660TIP3    H119902   1.309   1.776   6.516
 6660TIP3    H219903   1.431   1.856   6.475
 6661TIP3   OH219904   1.333   1.596   5.586
 6661TIP3    H119905   1.261   1.619   5.528
 6661TIP3    H219906   1.374   1.520   5.544
 6662TIP3   OH219907   0.599   1.668   6.354
 6662TIP3    H119908   0.620   1.755   6.389
 6662TIP3    H219909   0.527   1.637   6.409
 6663TIP3   OH219910   0.667   1.180   5.133
 6663TIP3    H119911   0.642   1.156   5.222
 6663TIP3    H219912   0.591   1.227   5.098
 6664TIP3   OH219913   1.344   1.832   6.032
 6664TIP3    H119914   1.360   1.762   5.969
 6664TIP3    H219915   1.305   1.788   6.108
 6665TIP3   OH219916   0.977   1.373   5.721
 6665TIP3    H119917   0.951   1.402   5.634
 6665TIP3    H219918   1.022   1.449   5.759
 6666TIP3   OH219919   0.688   1.384   5.416
 6666TIP3    H119920   0.775   1.367   5.380
 6666TIP3    H219921   0.637   1.413   5.341
 6667TIP3   OH219922   1.461   1.371   5.900
 6667TIP3    H119923   1.452   1.378   5.995
 6667TIP3    H219924   1.386   1.318   5.874
 6668TIP3   OH219925   0.532   1.448   5.202
 6668TIP3    H119926   0.465   1.397   5.155
 6668TIP3    H219927   0.593   1.475   5.133
 6669TIP3   OH219928   1.670   3.071   6.134
 6669TIP3    H119929   1.663   3.089   6.040
 6669TIP3    H219930   1.749   3.117   6.161
 6670TIP3   OH219931   0.625   2.172   6.548
 6670TIP3    H119932   0.706   2.192   6.594
 6670TIP3    H219933   0.557   2.174   6.617
 6671TIP3   OH219934   1.086   1.607   5.816
 6671TIP3    H119935   1.181   1.617   5.804
 6671TIP3    H219936   1.074   1.599   5.910
 6672TIP3   OH219937   1.067   1.581   6.085
 6672TIP3    H119938   0.984   1.618   6.118
 6672TIP3    H219939   1.134   1.624   6.137
 6673TIP3   OH219940   0.782   1.914   5.201
 6673TIP3    H119941   0.704   1.864   5.174
 6673TIP3    H219942   0.756   1.955   5.284
 6674TIP3   OH219943   1.680   2.167   5.802
 6674TIP3    H119944   1.720   2.216   5.730
 6674TIP3    H219945   1.600   2.129   5.765
 6675TIP3   OH219946   1.246   1.229   5.096
 6675TIP3    H119947   1.151   1.216   5.099
 6675TIP3    H219948   1.256   1.324   5.099
 6676TIP3   OH219949   1.185   2.243   6.222
 6676TIP3    H119950   1.241   2.240   6.299
 6676TIP3    H219951   1.148   2.331   6.222
 6677TIP3   OH219952   1.319   1.493   5.160
 6677TIP3    H119953   1.414   1.501   5.169
 6677TIP3    H219954   1.293   1.568   5.107
 6678TIP3   OH219955   0.501   1.932   5.860
 6678TIP3    H119956   0.541   1.907   5.777
 6678TIP3    H219957   0.422   1.877   5.866
 6679TIP3   OH219958   0.937   2.069   5.040
 6679TIP3    H119959   0.891   2.152   5.035
 6679TIP3    H219960   0.881   2.013   5.095
 6680TIP3   OH219961   1.106   1.999   6.497
 6680TIP3    H119962   1.037   1.940   6.466
 6680TIP3    H219963   1.188   1.959   6.466
 6681TIP3   OH219964   1.333   2.528   6.104
 6681TIP3    H119965   1.238   2.518   6.108
 6681TIP3    H219966   1.356   2.573   6.185
 6682TIP3   OH219967   1.720   1.582   4.989
 6682TIP3    H119968   1.660   1.538   4.929
 6682TIP3    H219969   1.729   1.670   4.953
 6683TIP3   OH219970   1.968   2.435   6.076
 6683TIP3    H119971   1.874   2.426   6.063
 6683TIP3    H219972   2.007   2.414   5.991
 6684TIP3   OH219973   1.458   2.394   4.912
 6684TIP3    H119974   1.429   2.320   4.964
 6684TIP3    H219975   1.481   2.357   4.827
 6685TIP3   OH219976   1.454   2.037   5.697
 6685TIP3    H119977   1.364   2.019   5.724
 6685TIP3    H219978   1.485   1.955   5.660
 6686TIP3   OH219979   0.596   2.266   5.517
 6686TIP3    H119980   0.598   2.340   5.456
 6686TIP3    H219981   0.505   2.262   5.547
 6687TIP3   OH219982   0.152   1.569   5.231
 6687TIP3    H119983   0.202   1.649   5.250
 6687TIP3    H219984   0.074   1.575   5.286
 6688TIP3   OH219985   0.678   2.018   5.428
 6688TIP3    H119986   0.660   2.108   5.454
 6688TIP3    H219987   0.651   1.965   5.503
 6689TIP3   OH219988   0.883   2.585   5.967
 6689TIP3    H119989   0.915   2.660   5.918
 6689TIP3    H219990   0.960   2.553   6.015
 6690TIP3   OH219991   0.507   2.487   5.365
 6690TIP3    H119992   0.420   2.496   5.406
 6690TIP3    H219993   0.544   2.575   5.369
 6691TIP3   OH219994   1.225   2.256   5.948
 6691TIP3    H119995   1.214   2.249   6.043
 6691TIP3    H219996   1.310   2.215   5.931
 6692TIP3   OH219997   1.233   2.133   4.820
 6692TIP3    H119998   1.272   2.116   4.906
 6692TIP3    H219999   1.147   2.091   4.824
 6693TIP3   OH220000   1.483   2.750   5.979
 6693TIP3    H120001   1.409   2.690   5.990
 6693TIP3    H220002   1.459   2.805   5.905
 6694TIP3   OH220003   1.542   2.595   4.618
 6694TIP3    H120004   1.574   2.659   4.554
 6694TIP3    H220005   1.468   2.639   4.660
 6695TIP3   OH220006   1.402   2.081   5.043
 6695TIP3    H120007   1.386   2.006   5.099
 6695TIP3    H220008   1.495   2.075   5.021
 6696TIP3   OH220009   0.341   2.449   6.164
 6696TIP3    H120010   0.380   2.399   6.235
 6696TIP3    H220011   0.349   2.541   6.191
 6697TIP3   OH220012   0.583   2.103   4.824
 6697TIP3    H120013   0.593   2.012   4.796
 6697TIP3    H220014   0.570   2.098   4.919
 6698TIP3   OH220015   0.524   2.113   5.095
 6698TIP3    H120016   0.590   2.089   5.161
 6698TIP3    H220017   0.519   2.208   5.100
 6699TIP3   OH220018   0.278   1.805   5.304
 6699TIP3    H120019   0.211   1.851   5.354
 6699TIP3    H220020   0.294   1.861   5.228
 6700TIP3   OH220021   1.429   1.407   6.166
 6700TIP3    H120022   1.497   1.468   6.195
 6700TIP3    H220023   1.429   1.338   6.233
 6701TIP3   OH220024   1.316   1.188   5.357
 6701TIP3    H120025   1.291   1.203   5.266
 6701TIP3    H220026   1.363   1.267   5.382
 6702TIP3   OH220027   0.789   2.295   5.032
 6702TIP3    H120028   0.705   2.321   5.071
 6702TIP3    H220029   0.815   2.370   4.978
 6703TIP3   OH220030   1.011   1.354   5.444
 6703TIP3    H120031   1.044   1.436   5.407
 6703TIP3    H220032   1.088   1.313   5.486
 6704TIP3   OH220033   1.268   1.673   6.247
 6704TIP3    H120034   1.284   1.734   6.318
 6704TIP3    H220035   1.320   1.596   6.268
 6705TIP3   OH220036   1.164   1.106   5.564
 6705TIP3    H120037   1.213   1.147   5.635
 6705TIP3    H220038   1.214   1.126   5.485
 6706TIP3   OH220039   0.540   2.385   5.112
 6706TIP3    H120040   0.519   2.456   5.051
 6706TIP3    H220041   0.526   2.422   5.199
 6707TIP3   OH220042   0.596   1.119   5.397
 6707TIP3    H120043   0.592   1.211   5.424
 6707TIP3    H220044   0.689   1.097   5.400
 6708TIP3   OH220045   1.876   1.590   6.229
 6708TIP3    H120046   1.781   1.581   6.219
 6708TIP3    H220047   1.909   1.598   6.140
 6709TIP3   OH220048   1.544   1.780   5.611
 6709TIP3    H120049   1.469   1.720   5.609
 6709TIP3    H220050   1.609   1.735   5.665
 6710TIP3   OH220051   0.282   1.976   5.082
 6710TIP3    H120052   0.351   2.041   5.092
 6710TIP3    H220053   0.314   1.917   5.014
 6711TIP3   OH220054   1.515   2.737   5.545
 6711TIP3    H120055   1.473   2.790   5.477
 6711TIP3    H220056   1.609   2.751   5.532
 6712TIP3   OH220057   0.131   2.239   5.443
 6712TIP3    H120058   0.042   2.252   5.476
 6712TIP3    H220059   0.130   2.275   5.355
 6713TIP3   OH220060   0.340   2.761   6.582
 6713TIP3    H120061   0.409   2.770   6.649
 6713TIP3    H220062   0.347   2.670   6.553
 6714TIP3   OH220063   0.770   2.716   6.595
 6714TIP3    H120064   0.860   2.687   6.608
 6714TIP3    H220065   0.736   2.660   6.526
 6715TIP3   OH220066   0.733   2.304   4.713
 6715TIP3    H120067   0.687   2.234   4.759
 6715TIP3    H220068   0.808   2.261   4.671
 6716TIP3   OH220069   1.386   2.641   6.348
 6716TIP3    H120070   1.401   2.569   6.410
 6716TIP3    H220071   1.462   2.699   6.360
 6717TIP3   OH220072   1.173   2.334   4.638
 6717TIP3    H120073   1.213   2.272   4.699
 6717TIP3    H220074   1.229   2.329   4.560
 6718TIP3   OH220075   0.414   2.174   6.731
 6718TIP3    H120076   0.448   2.086   6.744
 6718TIP3    H220077   0.320   2.161   6.716
 6719TIP3   OH220078   0.400   1.786   4.928
 6719TIP3    H120079   0.452   1.768   5.006
 6719TIP3    H220080   0.464   1.806   4.860
 6720TIP3   OH220081   1.039   2.275   6.512
 6720TIP3    H120082   0.990   2.295   6.433
 6720TIP3    H220083   1.076   2.188   6.496
 6721TIP3   OH220084   0.980   2.013   4.776
 6721TIP3    H120085   0.953   2.025   4.867
 6721TIP3    H220086   0.961   1.920   4.758
 6722TIP3   OH220087   1.497   2.303   6.126
 6722TIP3    H120088   1.575   2.332   6.079
 6722TIP3    H220089   1.435   2.375   6.116
 6723TIP3   OH220090   0.544   1.933   6.746
 6723TIP3    H120091   0.626   1.897   6.710
 6723TIP3    H220092   0.562   1.943   6.839
 6724TIP3   OH220093   0.573   1.744   5.144
 6724TIP3    H120094   0.547   1.710   5.230
 6724TIP3    H220095   0.625   1.675   5.105
 6725TIP3   OH220096   0.908   1.828   6.392
 6725TIP3    H120097   0.822   1.869   6.397
 6725TIP3    H220098   0.943   1.855   6.307
 6726TIP3   OH220099   0.712   1.544   5.017
 6726TIP3    H120100   0.683   1.552   4.926
 6726TIP3    H220101   0.807   1.551   5.012
 6727TIP3   OH220102   1.386   2.184   6.485
 6727TIP3    H120103   1.454   2.148   6.428
 6727TIP3    H220104   1.385   2.126   6.562
 6728TIP3   OH220105   1.514   1.833   4.674
 6728TIP3    H120106   1.500   1.794   4.588
 6728TIP3    H220107   1.489   1.925   4.663
 6729TIP3   OH220108   0.985   1.593   6.510
 6729TIP3    H120109   0.989   1.525   6.443
 6729TIP3    H220110   0.962   1.673   6.461
 6730TIP3   OH220111   0.980   1.408   6.286
 6730TIP3    H120112   1.042   1.437   6.219
 6730TIP3    H220113   0.896   1.447   6.260
 6731TIP3   OH220114   1.024   1.922   6.165
 6731TIP3    H120115   1.103   1.976   6.159
 6731TIP3    H220116   0.957   1.972   6.120
 6732TIP3   OH220117   1.605   1.863   6.554
 6732TIP3    H120118   1.655   1.782   6.562
 6732TIP3    H220119   1.671   1.932   6.541
 6733TIP3   OH220120   1.628   2.129   6.288
 6733TIP3    H120121   1.573   2.190   6.239
 6733TIP3    H220122   1.717   2.148   6.258
 6734TIP3   OH220123   0.864   1.683   6.743
 6734TIP3    H120124   0.783   1.632   6.751
 6734TIP3    H220125   0.900   1.657   6.658
 6735TIP3   OH220126   1.077   1.162   6.380
 6735TIP3    H120127   1.056   1.251   6.349
 6735TIP3    H220128   0.996   1.131   6.420
 6736TIP3   OH220129   1.253   1.629   6.600
 6736TIP3    H120130   1.269   1.616   6.693
 6736TIP3    H220131   1.161   1.607   6.588
 6737TIP3   OH220132   1.488   1.566   6.462
 6737TIP3    H120133   1.411   1.576   6.518
 6737TIP3    H220134   1.561   1.555   6.523
 6738TIP3   OH220135   1.724   1.555   6.616
 6738TIP3    H120136   1.741   1.461   6.622
 6738TIP3    H220137   1.717   1.584   6.707
 6739TIP3   OH220138   1.242   1.159   6.603
 6739TIP3    H120139   1.298   1.081   6.606
 6739TIP3    H220140   1.183   1.143   6.529
 6740TIP3   OH220141   1.278   1.347   6.798
 6740TIP3    H120142   1.259   1.282   6.730
 6740TIP3    H220143   1.201   1.404   6.798
 6741TIP3   OH220144   0.535   2.594   4.928
 6741TIP3    H120145   0.626   2.574   4.908
 6741TIP3    H220146   0.501   2.634   4.848
 6742TIP3   OH220147   0.009   1.953   5.118
 6742TIP3    H120148   0.104   1.961   5.105
 6742TIP3    H220149  -0.014   1.872   5.072
 6743TIP3   OH220150   8.793   2.316   5.568
 6743TIP3    H120151   8.787   2.408   5.540
 6743TIP3    H220152   8.855   2.317   5.640
 6744TIP3   OH220153   0.072   2.357   5.762
 6744TIP3    H120154   0.135   2.327   5.828
 6744TIP3    H220155   0.069   2.452   5.773
 6745TIP3   OH220156   1.786   2.789   5.539
 6745TIP3    H120157   1.806   2.826   5.625
 6745TIP3    H220158   1.839   2.841   5.478
 6746TIP3   OH220159   1.795   2.830   5.823
 6746TIP3    H120160   1.751   2.746   5.816
 6746TIP3    H220161   1.868   2.815   5.882
 6747TIP3   OH220162   1.858   2.523   6.406
 6747TIP3    H120163   1.786   2.537   6.467
 6747TIP3    H220164   1.904   2.607   6.404
 6748TIP3   OH220165   1.677   2.043   5.008
 6748TIP3    H120166   1.732   2.114   4.973
 6748TIP3    H220167   1.729   2.005   5.079
 6749TIP3   OH220168   1.818   1.900   5.202
 6749TIP3    H120169   1.749   1.870   5.261
 6749TIP3    H220170   1.883   1.941   5.260
 6750TIP3   OH220171   1.861   2.301   5.639
 6750TIP3    H120172   1.910   2.234   5.592
 6750TIP3    H220173   1.862   2.377   5.581
 6751TIP3   OH220174   1.656   2.588   5.828
 6751TIP3    H120175   1.588   2.635   5.877
 6751TIP3    H220176   1.610   2.549   5.755
 6752TIP3   OH220177   1.720   1.819   4.852
 6752TIP3    H120178   1.651   1.819   4.787
 6752TIP3    H220179   1.704   1.898   4.904
 6753TIP3   OH220180   1.557   1.468   4.804
 6753TIP3    H120181   1.508   1.505   4.730
 6753TIP3    H220182   1.556   1.374   4.788
 6754TIP3   OH220183   1.607   1.773   5.340
 6754TIP3    H120184   1.616   1.679   5.328
 6754TIP3    H220185   1.592   1.784   5.434
 6755TIP3   OH220186   0.260   1.944   6.097
 6755TIP3    H120187   0.247   1.897   6.014
 6755TIP3    H220188   0.352   1.926   6.120
 6756TIP3   OH220189   1.887   2.180   6.201
 6756TIP3    H120190   1.950   2.110   6.181
 6756TIP3    H220191   1.912   2.253   6.145
 6757TIP3   OH220192   2.053   1.960   6.191
 6757TIP3    H120193   1.984   1.924   6.246
 6757TIP3    H220194   2.131   1.908   6.213
 6758TIP3   OH220195   1.544   1.195   4.767
 6758TIP3    H120196   1.606   1.172   4.837
 6758TIP3    H220197   1.461   1.159   4.797
 6759TIP3   OH220198   1.607   1.492   5.230
 6759TIP3    H120199   1.655   1.410   5.241
 6759TIP3    H220200   1.646   1.532   5.152
 6760TIP3   OH220201   1.750   1.647   5.754
 6760TIP3    H120202   1.829   1.667   5.704
 6760TIP3    H220203   1.764   1.689   5.839
 6761TIP3   OH220204   1.819   1.797   5.984
 6761TIP3    H120205   1.747   1.829   6.037
 6761TIP3    H220206   1.853   1.876   5.940
 6762TIP3   OH220207   2.293   1.399   6.516
 6762TIP3    H120208   2.357   1.341   6.474
 6762TIP3    H220209   2.256   1.450   6.444
 6763TIP3   OH220210   1.723   1.243   5.282
 6763TIP3    H120211   1.770   1.226   5.363
 6763TIP3    H220212   1.659   1.172   5.277
 6764TIP3   OH220213   2.138   1.526   6.333
 6764TIP3    H120214   2.066   1.569   6.380
 6764TIP3    H220215   2.095   1.462   6.276
 6765TIP3   OH220216   1.765   1.142   4.926
 6765TIP3    H120217   1.814   1.085   4.867
 6765TIP3    H220218   1.815   1.224   4.926
 6766TIP3   OH220219   1.338   2.706   5.186
 6766TIP3    H120220   1.395   2.699   5.109
 6766TIP3    H220221   1.377   2.776   5.238
 6767TIP3   OH220222   0.427   2.493   6.545
 6767TIP3    H120223   0.407   2.410   6.501
 6767TIP3    H220224   0.431   2.470   6.638
 6768TIP3   OH220225   0.662   2.546   6.124
 6768TIP3    H120226   0.607   2.617   6.091
 6768TIP3    H220227   0.744   2.554   6.076
 6769TIP3   OH220228   1.057   2.774   6.252
 6769TIP3    H120229   1.094   2.771   6.341
 6769TIP3    H220230   1.120   2.827   6.202
 6770TIP3   OH220231   1.246   2.932   6.129
 6770TIP3    H120232   1.309   2.886   6.074
 6770TIP3    H220233   1.300   2.991   6.183
 6771TIP3   OH220234   2.044   1.286   6.213
 6771TIP3    H120235   1.965   1.290   6.159
 6771TIP3    H220236   2.076   1.197   6.203
 6772TIP3   OH220237   0.336   2.764   6.187
 6772TIP3    H120238   0.248   2.777   6.151
 6772TIP3    H220239   0.350   2.839   6.244
 6773TIP3   OH220240   0.553   2.771   6.014
 6773TIP3    H120241   0.469   2.770   6.060
 6773TIP3    H220242   0.530   2.789   5.923
 6774TIP3   OH220243   0.960   2.796   5.806
 6774TIP3    H120244   0.896   2.806   5.736
 6774TIP3    H220245   0.970   2.884   5.842
 6775TIP3   OH220246   1.220   2.728   5.857
 6775TIP3    H120247   1.129   2.750   5.837
 6775TIP3    H220248   1.272   2.792   5.809
 6776TIP3   OH220249   1.419   2.893   5.751
 6776TIP3    H120250   1.424   2.982   5.715
 6776TIP3    H220251   1.449   2.837   5.679
 6777TIP3   OH220252   0.289   2.613   5.897
 6777TIP3    H120253   0.251   2.569   5.973
 6777TIP3    H220254   0.339   2.545   5.852
 6778TIP3   OH220255   0.432   2.441   5.735
 6778TIP3    H120256   0.447   2.359   5.784
 6778TIP3    H220257   0.517   2.484   5.736
 6779TIP3   OH220258   0.697   2.538   5.762
 6779TIP3    H120259   0.720   2.446   5.750
 6779TIP3    H220260   0.748   2.566   5.838
 6780TIP3   OH220261   1.253   1.195   5.824
 6780TIP3    H120262   1.213   1.139   5.891
 6780TIP3    H220263   1.326   1.144   5.790
 6781TIP3   OH220264   1.743   1.056   5.707
 6781TIP3    H120265   1.794   1.101   5.640
 6781TIP3    H220266   1.674   1.118   5.730
 6782TIP3   OH220267   1.877   1.170   5.502
 6782TIP3    H120268   1.944   1.109   5.469
 6782TIP3    H220269   1.918   1.256   5.494
 6783TIP3   OH220270   0.947   1.033   5.708
 6783TIP3    H120271   1.023   1.043   5.650
 6783TIP3    H220272   0.903   0.955   5.676
 6784TIP3   OH220273   1.443   1.054   5.696
 6784TIP3    H120274   1.478   1.039   5.608
 6784TIP3    H220275   1.467   0.975   5.744
 6785TIP3   OH220276   1.537   1.034   5.294
 6785TIP3    H120277   1.454   1.082   5.307
 6785TIP3    H220278   1.520   0.947   5.330
 6786TIP3   OH220279   0.087   2.362   5.204
 6786TIP3    H120280   0.007   2.310   5.201
 6786TIP3    H220281   0.060   2.450   5.177
 6787TIP3   OH220282   0.867   1.126   5.389
 6787TIP3    H120283   0.918   1.045   5.382
 6787TIP3    H220284   0.932   1.195   5.403
 6788TIP3   OH220285   0.793   2.523   4.864
 6788TIP3    H120286   0.876   2.551   4.826
 6788TIP3    H220287   0.762   2.454   4.805
 6789TIP3   OH220288   1.490   2.663   4.957
 6789TIP3    H120289   1.484   2.568   4.946
 6789TIP3    H220290   1.450   2.698   4.877
 6790TIP3   OH220291   0.133   2.356   4.932
 6790TIP3    H120292   0.137   2.350   5.027
 6790TIP3    H220293   0.212   2.310   4.902
 6791TIP3   OH220294   1.801   1.290   6.626
 6791TIP3    H120295   1.812   1.256   6.715
 6791TIP3    H220296   1.888   1.283   6.587
 6792TIP3   OH220297   1.705   2.797   6.146
 6792TIP3    H120298   1.631   2.768   6.091
 6792TIP3    H220299   1.696   2.892   6.149
 6793TIP3   OH220300   2.994   2.215   4.891
 6793TIP3    H120301   2.973   2.216   4.985
 6793TIP3    H220302   2.926   2.160   4.852
 6794TIP3   OH220303   2.989   2.174   5.281
 6794TIP3    H120304   2.972   2.204   5.370
 6794TIP3    H220305   2.952   2.086   5.277
 6795TIP3   OH220306   2.285   2.049   5.661
 6795TIP3    H120307   2.329   1.998   5.730
 6795TIP3    H220308   2.356   2.075   5.602
 6796TIP3   OH220309   3.260   2.485   4.984
 6796TIP3    H120310   3.249   2.423   5.056
 6796TIP3    H220311   3.279   2.568   5.027
 6797TIP3   OH220312   2.262   2.458   5.345
 6797TIP3    H120313   2.249   2.364   5.348
 6797TIP3    H220314   2.357   2.469   5.332
 6798TIP3   OH220315   1.954   1.662   5.134
 6798TIP3    H120316   1.923   1.750   5.155
 6798TIP3    H220317   1.883   1.622   5.085
 6799TIP3   OH220318   2.040   1.987   5.349
 6799TIP3    H120319   2.092   1.909   5.372
 6799TIP3    H220320   2.106   2.053   5.326
 6800TIP3   OH220321   2.892   2.924   4.992
 6800TIP3    H120322   2.934   2.852   4.944
 6800TIP3    H220323   2.883   2.891   5.081
 6801TIP3   OH220324   2.751   2.379   5.303
 6801TIP3    H120325   2.814   2.326   5.253
 6801TIP3    H220326   2.780   2.371   5.393
 6802TIP3   OH220327   3.815   1.734   5.341
 6802TIP3    H120328   3.840   1.809   5.395
 6802TIP3    H220329   3.804   1.770   5.253
 6803TIP3   OH220330   3.235   1.898   5.336
 6803TIP3    H120331   3.257   1.815   5.379
 6803TIP3    H220332   3.167   1.875   5.272
 6804TIP3   OH220333   2.550   1.542   5.309
 6804TIP3    H120334   2.532   1.617   5.252
 6804TIP3    H220335   2.494   1.472   5.275
 6805TIP3   OH220336   3.252   1.652   4.950
 6805TIP3    H120337   3.317   1.644   5.019
 6805TIP3    H220338   3.299   1.689   4.876
 6806TIP3   OH220339   2.174   1.759   5.439
 6806TIP3    H120340   2.258   1.745   5.482
 6806TIP3    H220341   2.180   1.711   5.357
 6807TIP3   OH220342   2.603   1.964   5.238
 6807TIP3    H120343   2.697   1.947   5.249
 6807TIP3    H220344   2.568   1.879   5.209
 6808TIP3   OH220345   3.884   1.946   5.503
 6808TIP3    H120346   3.794   1.979   5.497
 6808TIP3    H220347   3.918   1.983   5.585
 6809TIP3   OH220348   2.535   1.552   5.760
 6809TIP3    H120349   2.485   1.588   5.687
 6809TIP3    H220350   2.483   1.573   5.838
 6810TIP3   OH220351   2.814   2.391   4.658
 6810TIP3    H120352   2.742   2.329   4.649
 6810TIP3    H220353   2.773   2.472   4.689
 6811TIP3   OH220354   2.595   2.277   5.616
 6811TIP3    H120355   2.561   2.367   5.620
 6811TIP3    H220356   2.689   2.289   5.601
 6812TIP3   OH220357   3.423   1.665   5.162
 6812TIP3    H120358   3.372   1.646   5.241
 6812TIP3    H220359   3.470   1.746   5.183
 6813TIP3   OH220360   2.420   1.653   5.530
 6813TIP3    H120361   2.474   1.729   5.551
 6813TIP3    H220362   2.466   1.610   5.458
 6814TIP3   OH220363   2.480   2.532   5.642
 6814TIP3    H120364   2.470   2.618   5.601
 6814TIP3    H220365   2.400   2.519   5.692
 6815TIP3   OH220366   1.847   2.229   4.887
 6815TIP3    H120367   1.817   2.247   4.798
 6815TIP3    H220368   1.870   2.315   4.923
 6816TIP3   OH220369   3.292   2.731   5.115
 6816TIP3    H120370   3.212   2.725   5.167
 6816TIP3    H220371   3.288   2.818   5.074
 6817TIP3   OH220372   3.619   1.610   5.503
 6817TIP3    H120373   3.532   1.631   5.468
 6817TIP3    H220374   3.680   1.641   5.436
 6818TIP3   OH220375   2.875   1.243   5.493
 6818TIP3    H120376   2.867   1.151   5.519
 6818TIP3    H220377   2.798   1.285   5.532
 6819TIP3   OH220378   3.010   2.750   4.815
 6819TIP3    H120379   3.058   2.667   4.808
 6819TIP3    H220380   3.066   2.814   4.770
 6820TIP3   OH220381   3.080   2.470   4.779
 6820TIP3    H120382   3.024   2.420   4.838
 6820TIP3    H220383   3.162   2.480   4.828
 6821TIP3   OH220384   3.540   2.613   5.476
 6821TIP3    H120385   3.509   2.541   5.422
 6821TIP3    H220386   3.517   2.692   5.426
 6822TIP3   OH220387   2.833   2.040   4.749
 6822TIP3    H120388   2.750   2.084   4.731
 6822TIP3    H220389   2.869   2.019   4.663
 6823TIP3   OH220390   2.781   1.818   4.448
 6823TIP3    H120391   2.851   1.866   4.492
 6823TIP3    H220392   2.827   1.761   4.386
 6824TIP3   OH220393   3.707   2.277   5.321
 6824TIP3    H120394   3.623   2.323   5.326
 6824TIP3    H220395   3.741   2.298   5.234
 6825TIP3   OH220396   3.173   2.120   4.699
 6825TIP3    H120397   3.123   2.153   4.774
 6825TIP3    H220398   3.256   2.091   4.736
 6826TIP3   OH220399   3.409   2.140   5.634
 6826TIP3    H120400   3.407   2.219   5.688
 6826TIP3    H220401   3.333   2.149   5.576
 6827TIP3   OH220402   2.398   2.096   5.097
 6827TIP3    H120403   2.365   2.036   5.030
 6827TIP3    H220404   2.473   2.049   5.135
 6828TIP3   OH220405   2.517   2.516   5.245
 6828TIP3    H120406   2.503   2.503   5.151
 6828TIP3    H220407   2.600   2.473   5.263
 6829TIP3   OH220408   2.488   2.080   5.466
 6829TIP3    H120409   2.537   2.059   5.387
 6829TIP3    H220410   2.534   2.154   5.504
 6830TIP3   OH220411   3.078   2.721   5.278
 6830TIP3    H120412   3.050   2.806   5.311
 6830TIP3    H220413   3.068   2.662   5.353
 6831TIP3   OH220414   2.684   2.639   5.798
 6831TIP3    H120415   2.621   2.696   5.842
 6831TIP3    H220416   2.630   2.586   5.739
 6832TIP3   OH220417   3.008   1.962   4.542
 6832TIP3    H120418   3.066   2.023   4.587
 6832TIP3    H220419   3.036   1.964   4.451
 6833TIP3   OH220420   2.430   2.167   5.952
 6833TIP3    H120421   2.439   2.261   5.963
 6833TIP3    H220422   2.336   2.153   5.936
 6834TIP3   OH220423   2.762   2.638   4.769
 6834TIP3    H120424   2.835   2.693   4.797
 6834TIP3    H220425   2.699   2.699   4.730
 6835TIP3   OH220426   2.462   2.788   5.882
 6835TIP3    H120427   2.443   2.799   5.789
 6835TIP3    H220428   2.376   2.773   5.922
 6836TIP3   OH220429   3.517   1.203   4.594
 6836TIP3    H120430   3.439   1.222   4.645
 6836TIP3    H220431   3.528   1.279   4.537
 6837TIP3   OH220432   2.278   1.939   4.892
 6837TIP3    H120433   2.201   1.990   4.864
 6837TIP3    H220434   2.245   1.850   4.902
 6838TIP3   OH220435   3.344   2.597   4.144
 6838TIP3    H120436   3.347   2.687   4.110
 6838TIP3    H220437   3.432   2.562   4.125
 6839TIP3   OH220438   2.057   2.345   5.836
 6839TIP3    H120439   1.990   2.328   5.770
 6839TIP3    H220440   2.094   2.259   5.856
 6840TIP3   OH220441   1.903   2.534   5.489
 6840TIP3    H120442   1.996   2.557   5.495
 6840TIP3    H220443   1.857   2.614   5.517
 6841TIP3   OH220444   3.761   3.007   5.537
 6841TIP3    H120445   3.767   2.912   5.545
 6841TIP3    H220446   3.680   3.030   5.582
 6842TIP3   OH220447   2.854   2.794   5.638
 6842TIP3    H120448   2.841   2.879   5.681
 6842TIP3    H220449   2.809   2.731   5.695
 6843TIP3   OH220450   2.655   2.890   4.614
 6843TIP3    H120451   2.601   2.868   4.538
 6843TIP3    H220452   2.615   2.969   4.650
 6844TIP3   OH220453   2.074   2.723   4.989
 6844TIP3    H120454   2.119   2.715   5.074
 6844TIP3    H220455   2.026   2.641   4.980
 6845TIP3   OH220456   2.853   2.787   4.234
 6845TIP3    H120457   2.894   2.702   4.218
 6845TIP3    H220458   2.878   2.809   4.324
 6846TIP3   OH220459   2.905   2.849   4.504
 6846TIP3    H120460   2.819   2.856   4.546
 6846TIP3    H220461   2.968   2.857   4.575
 6847TIP3   OH220462   3.656   2.091   5.795
 6847TIP3    H120463   3.569   2.107   5.758
 6847TIP3    H220464   3.668   1.996   5.786
 6848TIP3   OH220465   2.260   2.532   5.807
 6848TIP3    H120466   2.310   2.513   5.886
 6848TIP3    H220467   2.185   2.471   5.811
 6849TIP3   OH220468   2.636   1.333   5.618
 6849TIP3    H120469   2.551   1.304   5.584
 6849TIP3    H220470   2.617   1.416   5.663
 6850TIP3   OH220471   3.179   1.455   5.822
 6850TIP3    H120472   3.247   1.431   5.885
 6850TIP3    H220473   3.097   1.441   5.870
 6851TIP3   OH220474   3.402   1.880   5.736
 6851TIP3    H120475   3.359   1.877   5.821
 6851TIP3    H220476   3.385   1.969   5.703
 6852TIP3   OH220477   3.086   1.948   4.282
 6852TIP3    H120478   3.006   1.983   4.243
 6852TIP3    H220479   3.157   2.000   4.244
 6853TIP3   OH220480   2.793   1.369   4.588
 6853TIP3    H120481   2.754   1.378   4.675
 6853TIP3    H220482   2.754   1.289   4.552
 6854TIP3   OH220483   2.571   1.863   5.617
 6854TIP3    H120484   2.534   1.878   5.704
 6854TIP3    H220485   2.548   1.942   5.567
 6855TIP3   OH220486   2.459   1.742   5.146
 6855TIP3    H120487   2.369   1.723   5.171
 6855TIP3    H220488   2.467   1.710   5.056
 6856TIP3   OH220489   2.939   1.821   4.881
 6856TIP3    H120490   2.898   1.898   4.841
 6856TIP3    H220491   2.996   1.787   4.812
 6857TIP3   OH220492   3.135   2.108   5.951
 6857TIP3    H120493   3.104   2.032   6.000
 6857TIP3    H220494   3.228   2.114   5.972
 6858TIP3   OH220495   3.087   1.819   5.115
 6858TIP3    H120496   3.024   1.838   5.045
 6858TIP3    H220497   3.145   1.753   5.078
 6859TIP3   OH220498   2.428   1.894   5.850
 6859TIP3    H120499   2.443   1.965   5.913
 6859TIP3    H220500   2.413   1.817   5.904
 6860TIP3   OH220501   2.458   1.356   4.562
 6860TIP3    H120502   2.449   1.364   4.657
 6860TIP3    H220503   2.381   1.400   4.526
 6861TIP3   OH220504   2.006   1.398   5.443
 6861TIP3    H120505   2.071   1.438   5.500
 6861TIP3    H220506   2.035   1.419   5.354
 6862TIP3   OH220507   1.904   1.383   4.924
 6862TIP3    H120508   1.948   1.417   4.846
 6862TIP3    H220509   1.843   1.452   4.950
 6863TIP3   OH220510   2.818   1.532   5.196
 6863TIP3    H120511   2.742   1.534   5.253
 6863TIP3    H220512   2.893   1.528   5.255
 6864TIP3   OH220513   2.217   1.620   5.208
 6864TIP3    H120514   2.130   1.623   5.169
 6864TIP3    H220515   2.248   1.531   5.189
 6865TIP3   OH220516   2.470   1.621   4.900
 6865TIP3    H120517   2.564   1.634   4.889
 6865TIP3    H220518   2.433   1.639   4.813
 6866TIP3   OH220519   3.271   1.622   5.388
 6866TIP3    H120520   3.264   1.633   5.483
 6866TIP3    H220521   3.196   1.568   5.364
 6867TIP3   OH220522   2.356   1.643   4.652
 6867TIP3    H120523   2.294   1.596   4.597
 6867TIP3    H220524   2.408   1.695   4.591
 6868TIP3   OH220525   3.467   3.332   5.623
 6868TIP3    H120526   3.460   3.349   5.529
 6868TIP3    H220527   3.545   3.381   5.651
 6869TIP3   OH220528   2.407   2.434   6.039
 6869TIP3    H120529   2.489   2.458   6.084
 6869TIP3    H220530   2.339   2.448   6.105
 6870TIP3   OH220531   2.873   1.902   5.293
 6870TIP3    H120532   2.943   1.855   5.248
 6870TIP3    H220533   2.870   1.864   5.381
 6871TIP3   OH220534   2.356   1.372   5.189
 6871TIP3    H120535   2.327   1.296   5.240
 6871TIP3    H220536   2.378   1.336   5.103
 6872TIP3   OH220537   2.835   1.797   5.557
 6872TIP3    H120538   2.747   1.829   5.577
 6872TIP3    H220539   2.892   1.846   5.615
 6873TIP3   OH220540   2.607   2.182   4.688
 6873TIP3    H120541   2.534   2.129   4.656
 6873TIP3    H220542   2.575   2.220   4.770
 6874TIP3   OH220543   3.473   2.417   5.291
 6874TIP3    H120544   3.505   2.474   5.220
 6874TIP3    H220545   3.390   2.383   5.258
 6875TIP3   OH220546   3.044   1.475   4.590
 6875TIP3    H120547   2.951   1.451   4.586
 6875TIP3    H220548   3.044   1.569   4.603
 6876TIP3   OH220549   3.104   1.736   4.668
 6876TIP3    H120550   3.199   1.742   4.673
 6876TIP3    H220551   3.078   1.811   4.614
 6877TIP3   OH220552   2.258   2.164   5.325
 6877TIP3    H120553   2.296   2.154   5.238
 6877TIP3    H220554   2.329   2.137   5.385
 6878TIP3   OH220555   2.153   2.115   5.969
 6878TIP3    H120556   2.163   2.095   6.062
 6878TIP3    H220557   2.077   2.064   5.941
 6879TIP3   OH220558   2.898   2.249   5.989
 6879TIP3    H120559   2.830   2.202   5.941
 6879TIP3    H220560   2.980   2.210   5.959
 6880TIP3   OH220561   3.125   2.822   5.582
 6880TIP3    H120562   3.032   2.799   5.583
 6880TIP3    H220563   3.148   2.834   5.674
 6881TIP3   OH220564   3.525   1.838   4.476
 6881TIP3    H120565   3.470   1.789   4.415
 6881TIP3    H220566   3.526   1.927   4.443
 6882TIP3   OH220567   3.780   2.731   5.554
 6882TIP3    H120568   3.689   2.704   5.564
 6882TIP3    H220569   3.807   2.692   5.471
 6883TIP3   OH220570   3.238   2.632   4.395
 6883TIP3    H120571   3.288   2.577   4.456
 6883TIP3    H220572   3.277   2.614   4.309
 6884TIP3   OH220573   3.240   2.281   5.188
 6884TIP3    H120574   3.156   2.251   5.222
 6884TIP3    H220575   3.280   2.203   5.151
 6885TIP3   OH220576   2.389   2.519   4.992
 6885TIP3    H120577   2.388   2.597   4.937
 6885TIP3    H220578   2.299   2.510   5.024
 6886TIP3   OH220579   1.959   1.807   4.711
 6886TIP3    H120580   2.000   1.891   4.728
 6886TIP3    H220581   1.877   1.809   4.761
 6887TIP3   OH220582   2.503   2.280   4.917
 6887TIP3    H120583   2.473   2.369   4.937
 6887TIP3    H220584   2.466   2.225   4.986
 6888TIP3   OH220585   2.670   2.855   5.441
 6888TIP3    H120586   2.705   2.929   5.390
 6888TIP3    H220587   2.744   2.826   5.494
 6889TIP3   OH220588   2.314   2.746   4.849
 6889TIP3    H120589   2.225   2.755   4.885
 6889TIP3    H220590   2.350   2.834   4.850
 6890TIP3   OH220591   3.087   2.497   5.455
 6890TIP3    H120592   3.024   2.447   5.507
 6890TIP3    H220593   3.109   2.438   5.383
 6891TIP3   OH220594   3.291   3.003   5.461
 6891TIP3    H120595   3.222   2.943   5.491
 6891TIP3    H220596   3.249   3.054   5.392
 6892TIP3   OH220597   3.356   2.869   4.090
 6892TIP3    H120598   3.411   2.942   4.062
 6892TIP3    H220599   3.280   2.910   4.130
 6893TIP3   OH220600   2.372   1.631   5.973
 6893TIP3    H120601   2.277   1.633   5.981
 6893TIP3    H220602   2.401   1.580   6.049
 6894TIP3   OH220603   3.128   2.321   4.516
 6894TIP3    H120604   3.159   2.249   4.571
 6894TIP3    H220605   3.189   2.322   4.442
 6895TIP3   OH220606   2.103   2.751   5.613
 6895TIP3    H120607   2.160   2.697   5.667
 6895TIP3    H220608   2.117   2.840   5.646
 6896TIP3   OH220609   2.389   2.353   4.305
 6896TIP3    H120610   2.400   2.261   4.279
 6896TIP3    H220611   2.363   2.348   4.397
 6897TIP3   OH220612   2.317   2.362   4.576
 6897TIP3    H120613   2.391   2.333   4.629
 6897TIP3    H220614   2.318   2.457   4.583
 6898TIP3   OH220615   2.049   2.060   4.790
 6898TIP3    H120616   1.984   2.107   4.843
 6898TIP3    H220617   2.066   2.118   4.716
 6899TIP3   OH220618   3.250   1.660   5.651
 6899TIP3    H120619   3.301   1.726   5.698
 6899TIP3    H220620   3.223   1.598   5.719
 6900TIP3   OH220621   3.104   1.432   4.859
 6900TIP3    H120622   3.082   1.450   4.768
 6900TIP3    H220623   3.146   1.512   4.891
 6901TIP3   OH220624   2.605   2.561   4.523
 6901TIP3    H120625   2.517   2.575   4.559
 6901TIP3    H220626   2.615   2.630   4.457
 6902TIP3   OH220627   2.750   1.629   4.944
 6902TIP3    H120628   2.812   1.699   4.921
 6902TIP3    H220629   2.771   1.608   5.035
 6903TIP3   OH220630   2.996   1.914   5.745
 6903TIP3    H120631   3.011   2.008   5.756
 6903TIP3    H220632   3.080   1.873   5.767
 6904TIP3   OH220633   2.915   1.326   5.032
 6904TIP3    H120634   2.890   1.402   5.084
 6904TIP3    H220635   2.985   1.357   4.975
 6905TIP3   OH220636   2.349   2.630   4.603
 6905TIP3    H120637   2.327   2.698   4.539
 6905TIP3    H220638   2.335   2.672   4.688
 6906TIP3   OH220639   2.427   1.349   4.843
 6906TIP3    H120640   2.415   1.440   4.869
 6906TIP3    H220641   2.521   1.334   4.848
 6907TIP3   OH220642   3.662   1.813   5.705
 6907TIP3    H120643   3.569   1.829   5.721
 6907TIP3    H220644   3.663   1.746   5.636
 6908TIP3   OH220645   3.338   2.024   5.096
 6908TIP3    H120646   3.261   1.984   5.136
 6908TIP3    H220647   3.411   1.989   5.146
 6909TIP3   OH220648   2.069   2.235   4.573
 6909TIP3    H120649   2.138   2.301   4.580
 6909TIP3    H220650   2.102   2.171   4.511
 6910TIP3   OH220651   1.973   1.528   4.702
 6910TIP3    H120652   1.989   1.622   4.714
 6910TIP3    H220653   1.927   1.522   4.619
 6911TIP3   OH220654   3.303   2.996   5.030
 6911TIP3    H120655   3.260   3.045   4.960
 6911TIP3    H220656   3.396   3.016   5.019
 6912TIP3   OH220657   2.371   1.252   5.576
 6912TIP3    H120658   2.342   1.220   5.490
 6912TIP3    H220659   2.362   1.176   5.633
 6913TIP3   OH220660   1.899   2.496   4.974
 6913TIP3    H120661   1.863   2.535   5.053
 6913TIP3    H220662   1.855   2.541   4.902
 6914TIP3   OH220663   2.109   3.042   6.037
 6914TIP3    H120664   2.190   3.051   6.088
 6914TIP3    H220665   2.107   2.950   6.013
 6915TIP3   OH220666   2.568   2.943   6.083
 6915TIP3    H120667   2.661   2.919   6.087
 6915TIP3    H220668   2.534   2.894   6.008
 6916TIP3   OH220669   2.542   2.548   4.188
 6916TIP3    H120670   2.489   2.481   4.231
 6916TIP3    H220671   2.615   2.500   4.150
 6917TIP3   OH220672   3.185   2.885   5.845
 6917TIP3    H120673   3.203   2.815   5.908
 6917TIP3    H220674   3.259   2.945   5.855
 6918TIP3   OH220675   3.007   2.564   4.127
 6918TIP3    H120676   3.084   2.600   4.172
 6918TIP3    H220677   3.017   2.592   4.036
 6919TIP3   OH220678   2.200   2.437   6.229
 6919TIP3    H120679   2.219   2.344   6.239
 6919TIP3    H220680   2.114   2.440   6.187
 6920TIP3   OH220681   2.206   2.048   4.433
 6920TIP3    H120682   2.264   2.034   4.508
 6920TIP3    H220683   2.266   2.061   4.359
 6921TIP3   OH220684   2.822   2.524   6.007
 6921TIP3    H120685   2.789   2.553   5.921
 6921TIP3    H220686   2.862   2.439   5.990
 6922TIP3   OH220687   3.299   2.540   5.632
 6922TIP3    H120688   3.356   2.603   5.589
 6922TIP3    H220689   3.218   2.542   5.581
 6923TIP3   OH220690   2.313   2.176   6.230
 6923TIP3    H120691   2.385   2.173   6.166
 6923TIP3    H220692   2.355   2.202   6.312
 6924TIP3   OH220693   2.394   2.004   4.638
 6924TIP3    H120694   2.365   1.972   4.724
 6924TIP3    H220695   2.432   1.926   4.596
 6925TIP3   OH220696   2.701   2.103   5.846
 6925TIP3    H120697   2.612   2.133   5.866
 6925TIP3    H220698   2.720   2.141   5.760
 6926TIP3   OH220699   2.507   1.799   4.485
 6926TIP3    H120700   2.480   1.804   4.394
 6926TIP3    H220701   2.603   1.802   4.482
 6927TIP3   OH220702   3.196   2.442   6.016
 6927TIP3    H120703   3.177   2.395   5.935
 6927TIP3    H220704   3.188   2.376   6.085
 6928TIP3   OH220705   3.294   2.098   4.172
 6928TIP3    H120706   3.284   2.060   4.085
 6928TIP3    H220707   3.269   2.190   4.160
 6929TIP3   OH220708   2.778   1.864   5.980
 6929TIP3    H120709   2.790   1.792   5.919
 6929TIP3    H220710   2.761   1.940   5.924
 6930TIP3   OH220711   2.795   1.637   5.798
 6930TIP3    H120712   2.824   1.675   5.715
 6930TIP3    H220713   2.704   1.613   5.782
 6931TIP3   OH220714   3.400   2.128   6.054
 6931TIP3    H120715   3.459   2.053   6.051
 6931TIP3    H220716   3.457   2.205   6.044
 6932TIP3   OH220717   3.436   2.368   5.786
 6932TIP3    H120718   3.375   2.430   5.746
 6932TIP3    H220719   3.523   2.395   5.756
 6933TIP3   OH220720   2.671   1.918   6.233
 6933TIP3    H120721   2.603   1.853   6.248
 6933TIP3    H220722   2.697   1.906   6.142
 6934TIP3   OH220723   2.913   1.405   5.901
 6934TIP3    H120724   2.874   1.486   5.867
 6934TIP3    H220725   2.846   1.339   5.884
 6935TIP3   OH220726   3.037   1.886   6.092
 6935TIP3    H120727   3.019   1.869   6.184
 6935TIP3    H220728   2.952   1.875   6.048
 6936TIP3   OH220729   3.283   1.834   5.972
 6936TIP3    H120730   3.203   1.839   6.024
 6936TIP3    H220731   3.352   1.815   6.035
 6937TIP3   OH220732   3.528   1.802   6.120
 6937TIP3    H120733   3.538   1.707   6.126
 6937TIP3    H220734   3.521   1.831   6.210
 6938TIP3   OH220735   2.502   1.701   6.301
 6938TIP3    H120736   2.510   1.612   6.267
 6938TIP3    H220737   2.540   1.697   6.388
 6939TIP3   OH220738   2.978   1.383   6.165
 6939TIP3    H120739   3.049   1.319   6.159
 6939TIP3    H220740   2.949   1.395   6.074
 6940TIP3   OH220741   3.076   1.597   6.308
 6940TIP3    H120742   3.045   1.526   6.252
 6940TIP3    H220743   3.006   1.662   6.306
 6941TIP3   OH220744   2.331   2.826   4.415
 6941TIP3    H120745   2.420   2.815   4.383
 6941TIP3    H220746   2.289   2.883   4.350
 6942TIP3   OH220747   1.796   2.227   4.602
 6942TIP3    H120748   1.890   2.243   4.591
 6942TIP3    H220749   1.780   2.144   4.558
 6943TIP3   OH220750   1.704   2.809   5.052
 6943TIP3    H120751   1.638   2.758   5.005
 6943TIP3    H220752   1.747   2.745   5.109
 6944TIP3   OH220753   1.846   2.637   5.219
 6944TIP3    H120754   1.837   2.572   5.289
 6944TIP3    H220755   1.897   2.707   5.258
 6945TIP3   OH220756   3.572   3.059   5.036
 6945TIP3    H120757   3.584   3.068   5.131
 6945TIP3    H220758   3.600   3.143   5.000
 6946TIP3   OH220759   3.588   3.074   5.313
 6946TIP3    H120760   3.543   2.990   5.318
 6946TIP3    H220761   3.660   3.068   5.376
 6947TIP3   OH220762   3.668   2.781   5.880
 6947TIP3    H120763   3.592   2.790   5.937
 6947TIP3    H220764   3.711   2.866   5.882
 6948TIP3   OH220765   3.460   2.302   4.489
 6948TIP3    H120766   3.521   2.369   4.458
 6948TIP3    H220767   3.503   2.264   4.566
 6949TIP3   OH220768   3.598   2.165   4.691
 6949TIP3    H120769   3.533   2.124   4.748
 6949TIP3    H220770   3.663   2.203   4.750
 6950TIP3   OH220771   3.652   2.565   5.130
 6950TIP3    H120772   3.703   2.502   5.080
 6950TIP3    H220773   3.651   2.644   5.075
 6951TIP3   OH220774   3.455   2.828   5.324
 6951TIP3    H120775   3.388   2.878   5.371
 6951TIP3    H220776   3.409   2.792   5.248
 6952TIP3   OH220777   3.512   2.077   4.338
 6952TIP3    H120778   3.440   2.073   4.275
 6952TIP3    H220779   3.494   2.154   4.391
 6953TIP3   OH220780   3.379   1.718   4.278
 6953TIP3    H120781   3.324   1.763   4.215
 6953TIP3    H220782   3.366   1.625   4.261
 6954TIP3   OH220783   3.399   2.016   4.826
 6954TIP3    H120784   3.403   1.921   4.809
 6954TIP3    H220785   3.380   2.023   4.919
 6955TIP3   OH220786   2.020   2.063   5.611
 6955TIP3    H120787   2.013   2.042   5.517
 6955TIP3    H220788   2.114   2.068   5.627
 6956TIP3   OH220789   3.681   2.438   5.684
 6956TIP3    H120790   3.750   2.377   5.658
 6956TIP3    H220791   3.663   2.489   5.605
 6957TIP3   OH220792   3.862   2.224   5.675
 6957TIP3    H120793   3.787   2.184   5.720
 6957TIP3    H220794   3.937   2.171   5.703
 6958TIP3   OH220795   3.333   1.446   4.249
 6958TIP3    H120796   3.391   1.422   4.321
 6958TIP3    H220797   3.246   1.414   4.276
 6959TIP3   OH220798   3.395   1.741   4.716
 6959TIP3    H120799   3.439   1.657   4.728
 6959TIP3    H220800   3.438   1.780   4.639
 6960TIP3   OH220801   3.552   1.902   5.233
 6960TIP3    H120802   3.635   1.927   5.193
 6960TIP3    H220803   3.556   1.939   5.321
 6961TIP3   OH220804   3.624   2.051   5.462
 6961TIP3    H120805   3.553   2.076   5.520
 6961TIP3    H220806   3.651   2.133   5.420
 6962TIP3   OH220807   2.240   1.761   6.235
 6962TIP3    H120808   2.334   1.760   6.253
 6962TIP3    H220809   2.206   1.683   6.278
 6963TIP3   OH220810   4.085   1.651   6.006
 6963TIP3    H120811   4.149   1.595   5.963
 6963TIP3    H220812   4.046   1.702   5.935
 6964TIP3   OH220813   3.511   1.489   4.763
 6964TIP3    H120814   3.551   1.477   4.849
 6964TIP3    H220815   3.446   1.419   4.756
 6965TIP3   OH220816   2.211   1.477   5.614
 6965TIP3    H120817   2.266   1.398   5.610
 6965TIP3    H220818   2.270   1.548   5.589
 6966TIP3   OH220819   1.985   1.750   5.649
 6966TIP3    H120820   2.043   1.734   5.574
 6966TIP3    H220821   1.997   1.842   5.670
 6967TIP3   OH220822   3.933   1.778   5.817
 6967TIP3    H120823   3.863   1.817   5.869
 6967TIP3    H220824   3.888   1.718   5.757
 6968TIP3   OH220825   3.561   1.403   4.410
 6968TIP3    H120826   3.606   1.343   4.351
 6968TIP3    H220827   3.614   1.484   4.407
 6969TIP3   OH220828   1.982   1.241   5.145
 6969TIP3    H120829   1.898   1.237   5.192
 6969TIP3    H220830   1.966   1.300   5.072
 6970TIP3   OH220831   3.141   2.935   4.668
 6970TIP3    H120832   3.198   2.943   4.591
 6970TIP3    H220833   3.161   3.012   4.721
 6971TIP3   OH220834   2.213   1.304   5.985
 6971TIP3    H120835   2.168   1.314   6.069
 6971TIP3    H220836   2.159   1.351   5.922
 6972TIP3   OH220837   2.227   2.769   6.043
 6972TIP3    H120838   2.136   2.741   6.039
 6972TIP3    H220839   2.250   2.762   6.136
 6973TIP3   OH220840   2.452   2.810   5.602
 6973TIP3    H120841   2.399   2.885   5.571
 6973TIP3    H220842   2.534   2.819   5.555
 6974TIP3   OH220843   2.836   3.048   5.750
 6974TIP3    H120844   2.879   3.037   5.835
 6974TIP3    H220845   2.899   3.100   5.699
 6975TIP3   OH220846   3.028   3.195   5.616
 6975TIP3    H120847   3.087   3.138   5.565
 6975TIP3    H220848   3.087   3.251   5.666
 6976TIP3   OH220849   3.841   1.524   5.699
 6976TIP3    H120850   3.753   1.518   5.662
 6976TIP3    H220851   3.875   1.435   5.695
 6977TIP3   OH220852   2.109   3.036   5.658
 6977TIP3    H120853   2.019   3.054   5.631
 6977TIP3    H220854   2.132   3.108   5.716
 6978TIP3   OH220855   2.338   3.040   5.501
 6978TIP3    H120856   2.254   3.044   5.547
 6978TIP3    H220857   2.316   3.064   5.411
 6979TIP3   OH220858   2.752   3.064   5.278
 6979TIP3    H120859   2.689   3.077   5.207
 6979TIP3    H220860   2.766   3.151   5.315
 6980TIP3   OH220861   3.013   2.988   5.324
 6980TIP3    H120862   2.922   3.013   5.308
 6980TIP3    H220863   3.064   3.058   5.284
 6981TIP3   OH220864   3.216   3.160   5.236
 6981TIP3    H120865   3.214   3.247   5.197
 6981TIP3    H220866   3.243   3.102   5.165
 6982TIP3   OH220867   2.014   2.821   5.359
 6982TIP3    H120868   2.042   2.803   5.449
 6982TIP3    H220869   2.086   2.788   5.305
 6983TIP3   OH220870   2.217   2.701   5.224
 6983TIP3    H120871   2.228   2.618   5.270
 6983TIP3    H220872   2.303   2.743   5.229
 6984TIP3   OH220873   2.480   2.793   5.251
 6984TIP3    H120874   2.500   2.699   5.241
 6984TIP3    H220875   2.539   2.822   5.320
 6985TIP3   OH220876   3.050   1.445   5.330
 6985TIP3    H120877   3.013   1.376   5.385
 6985TIP3    H220878   3.120   1.402   5.281
 6986TIP3   OH220879   3.551   1.358   5.220
 6986TIP3    H120880   3.584   1.415   5.150
 6986TIP3    H220881   3.458   1.380   5.226
 6987TIP3   OH220882   3.667   1.454   4.989
 6987TIP3    H120883   3.739   1.397   4.964
 6987TIP3    H220884   3.701   1.543   4.975
 6988TIP3   OH220885   2.283   1.145   5.336
 6988TIP3    H120886   2.193   1.110   5.339
 6988TIP3    H220887   2.338   1.067   5.329
 6989TIP3   OH220888   2.125   1.054   4.990
 6989TIP3    H120889   2.147   1.102   4.910
 6989TIP3    H220890   2.081   1.119   5.045
 6990TIP3   OH220891   2.773   1.183   5.232
 6990TIP3    H120892   2.819   1.232   5.164
 6990TIP3    H220893   2.812   1.214   5.314
 6991TIP3   OH220894   3.264   1.321   5.206
 6991TIP3    H120895   3.276   1.283   5.118
 6991TIP3    H220896   3.270   1.246   5.265
 6992TIP3   OH220897   3.323   1.281   4.774
 6992TIP3    H120898   3.244   1.329   4.798
 6992TIP3    H220899   3.312   1.194   4.812
 6993TIP3   OH220900   1.779   2.623   4.765
 6993TIP3    H120901   1.696   2.590   4.730
 6993TIP3    H220902   1.789   2.710   4.727
 6994TIP3   OH220903   2.221   1.180   4.749
 6994TIP3    H120904   2.267   1.122   4.689
 6994TIP3    H220905   2.288   1.238   4.784
 6995TIP3   OH220906   2.702   1.377   4.850
 6995TIP3    H120907   2.763   1.327   4.905
 6995TIP3    H220908   2.715   1.468   4.876
 6996TIP3   OH220909   2.590   2.772   4.339
 6996TIP3    H120910   2.664   2.815   4.298
 6996TIP3    H220911   2.565   2.702   4.278
 6997TIP3   OH220912   3.288   2.906   4.431
 6997TIP3    H120913   3.262   2.815   4.421
 6997TIP3    H220914   3.248   2.951   4.357
 6998TIP3   OH220915   2.517   1.430   6.210
 6998TIP3    H120916   2.483   1.365   6.272
 6998TIP3    H220917   2.609   1.439   6.233
 6999TIP3   OH220918   2.763   1.435   6.335
 6999TIP3    H120919   2.841   1.416   6.283
 6999TIP3    H220920   2.760   1.366   6.401
 7000TIP3   OH220921   1.884   2.617   4.406
 7000TIP3    H120922   1.893   2.647   4.496
 7000TIP3    H220923   1.967   2.574   4.386
 7001TIP3   OH220924   3.588   1.528   6.127
 7001TIP3    H120925   3.605   1.498   6.216
 7001TIP3    H220926   3.673   1.524   6.083
 7002TIP3   OH220927   3.506   3.060   5.630
 7002TIP3    H120928   3.434   3.029   5.576
 7002TIP3    H220929   3.492   3.155   5.637
 7003TIP3   OH220930   4.781   2.438   4.371
 7003TIP3    H120931   4.753   2.526   4.347
 7003TIP3    H220932   4.711   2.381   4.339
 7004TIP3   OH220933   4.787   2.437   4.795
 7004TIP3    H120934   4.840   2.422   4.874
 7004TIP3    H220935   4.743   2.354   4.780
 7005TIP3   OH220936   4.081   2.313   5.154
 7005TIP3    H120937   4.110   2.243   5.212
 7005TIP3    H220938   4.133   2.389   5.180
 7006TIP3   OH220939   5.053   2.743   4.474
 7006TIP3    H120940   5.043   2.678   4.545
 7006TIP3    H220941   5.074   2.824   4.520
 7007TIP3   OH220942   4.080   2.715   4.818
 7007TIP3    H120943   4.060   2.623   4.837
 7007TIP3    H220944   4.175   2.719   4.813
 7008TIP3   OH220945   3.765   1.955   4.599
 7008TIP3    H120946   3.725   2.037   4.629
 7008TIP3    H220947   3.691   1.904   4.567
 7009TIP3   OH220948   3.835   2.241   4.826
 7009TIP3    H120949   3.882   2.161   4.851
 7009TIP3    H220950   3.904   2.306   4.811
 7010TIP3   OH220951   4.698   3.180   4.480
 7010TIP3    H120952   4.729   3.115   4.417
 7010TIP3    H220953   4.690   3.131   4.562
 7011TIP3   OH220954   4.596   2.656   4.799
 7011TIP3    H120955   4.644   2.578   4.772
 7011TIP3    H220956   4.663   2.715   4.834
 7012TIP3   OH220957   5.614   1.979   4.810
 7012TIP3    H120958   5.633   2.062   4.855
 7012TIP3    H220959   5.643   1.993   4.720
 7013TIP3   OH220960   4.990   2.132   4.835
 7013TIP3    H120961   5.039   2.054   4.860
 7013TIP3    H220962   4.966   2.116   4.744
 7014TIP3   OH220963   5.047   1.909   4.426
 7014TIP3    H120964   5.111   1.906   4.497
 7014TIP3    H220965   5.095   1.942   4.351
 7015TIP3   OH220966   3.955   2.009   4.925
 7015TIP3    H120967   4.046   1.994   4.952
 7015TIP3    H220968   3.924   1.923   4.897
 7016TIP3   OH220969   4.427   2.215   4.692
 7016TIP3    H120970   4.512   2.210   4.736
 7016TIP3    H220971   4.438   2.162   4.613
 7017TIP3   OH220972   5.676   2.193   4.981
 7017TIP3    H120973   5.589   2.234   4.976
 7017TIP3    H220974   5.713   2.228   5.062
 7018TIP3   OH220975   4.326   1.814   5.249
 7018TIP3    H120976   4.273   1.859   5.183
 7018TIP3    H220977   4.276   1.823   5.331
 7019TIP3   OH220978   4.678   2.655   4.235
 7019TIP3    H120979   4.640   2.631   4.151
 7019TIP3    H220980   4.629   2.732   4.263
 7020TIP3   OH220981   4.421   2.583   5.003
 7020TIP3    H120982   4.368   2.654   5.038
 7020TIP3    H220983   4.472   2.624   4.933
 7021TIP3   OH220984   5.210   1.942   4.642
 7021TIP3    H120985   5.182   1.915   4.730
 7021TIP3    H220986   5.271   2.014   4.657
 7022TIP3   OH220987   4.218   1.926   5.013
 7022TIP3    H120988   4.262   2.006   5.044
 7022TIP3    H220989   4.281   1.886   4.953
 7023TIP3   OH220990   4.269   2.786   5.114
 7023TIP3    H120991   4.256   2.876   5.084
 7023TIP3    H220992   4.192   2.767   5.169
 7024TIP3   OH220993   3.641   2.483   4.381
 7024TIP3    H120994   3.614   2.499   4.291
 7024TIP3    H220995   3.665   2.570   4.414
 7025TIP3   OH220996   5.088   2.992   4.608
 7025TIP3    H120997   5.002   2.984   4.649
 7025TIP3    H220998   5.085   3.075   4.561
 7026TIP3   OH220999   5.414   1.864   4.981
 7026TIP3    H121000   5.328   1.886   4.945
 7026TIP3    H221001   5.476   1.893   4.914
 7027TIP3   OH221002   4.666   1.499   4.977
 7027TIP3    H121003   4.661   1.408   5.005
 7027TIP3    H221004   4.591   1.541   5.019
 7028TIP3   OH221005   4.790   3.026   4.270
 7028TIP3    H121006   4.841   2.946   4.261
 7028TIP3    H221007   4.847   3.094   4.234
 7029TIP3   OH221008   4.924   2.794   4.237
 7029TIP3    H121009   4.854   2.728   4.233
 7029TIP3    H221010   4.977   2.767   4.312
 7030TIP3   OH221011   5.319   2.881   4.955
 7030TIP3    H121012   5.303   2.807   4.897
 7030TIP3    H221013   5.304   2.958   4.900
 7031TIP3   OH221014   4.606   2.283   4.219
 7031TIP3    H121015   4.525   2.331   4.201
 7031TIP3    H221016   4.654   2.284   4.136
 7032TIP3   OH221017   4.577   2.087   3.918
 7032TIP3    H121018   4.644   2.139   3.963
 7032TIP3    H221019   4.627   2.023   3.867
 7033TIP3   OH221020   5.499   2.539   4.823
 7033TIP3    H121021   5.416   2.585   4.821
 7033TIP3    H221022   5.536   2.552   4.735
 7034TIP3   OH221023   4.967   2.380   4.176
 7034TIP3    H121024   4.914   2.408   4.250
 7034TIP3    H221025   5.052   2.357   4.213
 7035TIP3   OH221026   5.198   2.396   5.131
 7035TIP3    H121027   5.195   2.482   5.173
 7035TIP3    H221028   5.117   2.392   5.080
 7036TIP3   OH221029   4.195   2.348   4.601
 7036TIP3    H121030   4.157   2.292   4.534
 7036TIP3    H221031   4.273   2.300   4.630
 7037TIP3   OH221032   4.343   2.770   4.727
 7037TIP3    H121033   4.320   2.760   4.635
 7037TIP3    H221034   4.432   2.734   4.734
 7038TIP3   OH221035   4.320   2.336   4.935
 7038TIP3    H121036   4.359   2.313   4.851
 7038TIP3    H221037   4.357   2.422   4.955
 7039TIP3   OH221038   4.855   2.982   4.746
 7039TIP3    H121039   4.836   3.065   4.790
 7039TIP3    H221040   4.834   2.915   4.811
 7040TIP3   OH221041   4.465   2.880   5.286
 7040TIP3    H121042   4.405   2.939   5.332
 7040TIP3    H221043   4.409   2.831   5.226
 7041TIP3   OH221044   4.800   2.235   4.013
 7041TIP3    H121045   4.858   2.292   4.063
 7041TIP3    H221046   4.829   2.245   3.922
 7042TIP3   OH221047   4.211   2.433   5.406
 7042TIP3    H121048   4.220   2.523   5.436
 7042TIP3    H221049   4.119   2.412   5.419
 7043TIP3   OH221050   4.548   2.895   4.278
 7043TIP3    H121051   4.627   2.949   4.282
 7043TIP3    H221052   4.485   2.948   4.229
 7044TIP3   OH221053   4.260   3.041   5.375
 7044TIP3    H121054   4.233   3.055   5.284
 7044TIP3    H221055   4.179   3.024   5.422
 7045TIP3   OH221056   5.310   1.458   4.076
 7045TIP3    H121057   5.234   1.479   4.129
 7045TIP3    H221058   5.321   1.534   4.018
 7046TIP3   OH221059   4.064   2.196   4.396
 7046TIP3    H121060   3.998   2.255   4.360
 7046TIP3    H221061   4.013   2.121   4.428
 7047TIP3   OH221062   3.852   2.598   5.325
 7047TIP3    H121063   3.780   2.584   5.264
 7047TIP3    H221064   3.880   2.510   5.350
 7048TIP3   OH221065   3.689   2.810   4.986
 7048TIP3    H121066   3.776   2.843   5.010
 7048TIP3    H221067   3.631   2.884   5.003
 7049TIP3   OH221068   5.548   3.240   5.022
 7049TIP3    H121069   5.551   3.145   5.034
 7049TIP3    H221070   5.466   3.266   5.065
 7050TIP3   OH221071   4.656   3.025   5.151
 7050TIP3    H121072   4.646   3.116   5.179
 7050TIP3    H221073   4.586   2.979   5.198
 7051TIP3   OH221074   4.447   3.137   4.093
 7051TIP3    H121075   4.399   3.125   4.011
 7051TIP3    H221076   4.409   3.216   4.132
 7052TIP3   OH221077   3.869   2.978   4.479
 7052TIP3    H121078   3.914   2.973   4.563
 7052TIP3    H221079   3.821   2.895   4.472
 7053TIP3   OH221080   4.668   2.943   3.723
 7053TIP3    H121081   4.579   2.912   3.738
 7053TIP3    H221082   4.691   2.991   3.802
 7054TIP3   OH221083   4.692   3.086   3.977
 7054TIP3    H121084   4.609   3.097   4.023
 7054TIP3    H221085   4.756   3.068   4.046
 7055TIP3   OH221086   5.444   2.348   5.296
 7055TIP3    H121087   5.363   2.367   5.251
 7055TIP3    H221088   5.461   2.256   5.279
 7056TIP3   OH221089   4.057   2.779   5.288
 7056TIP3    H121090   4.101   2.774   5.373
 7056TIP3    H221091   3.981   2.721   5.297
 7057TIP3   OH221092   4.433   1.600   5.105
 7057TIP3    H121093   4.350   1.560   5.078
 7057TIP3    H221094   4.407   1.677   5.156
 7058TIP3   OH221095   4.990   1.710   5.312
 7058TIP3    H121096   5.061   1.683   5.370
 7058TIP3    H221097   4.910   1.694   5.362
 7059TIP3   OH221098   5.198   2.130   5.217
 7059TIP3    H121099   5.154   2.129   5.302
 7059TIP3    H221100   5.187   2.219   5.185
 7060TIP3   OH221101   4.889   2.247   3.755
 7060TIP3    H121102   4.843   2.238   3.672
 7060TIP3    H221103   4.965   2.301   3.735
 7061TIP3   OH221104   4.585   1.633   4.082
 7061TIP3    H121105   4.546   1.638   4.169
 7061TIP3    H221106   4.553   1.550   4.047
 7062TIP3   OH221107   4.368   2.133   5.112
 7062TIP3    H121108   4.321   2.146   5.195
 7062TIP3    H221109   4.346   2.210   5.060
 7063TIP3   OH221110   4.723   2.072   4.353
 7063TIP3    H121111   4.681   2.148   4.312
 7063TIP3    H221112   4.786   2.042   4.288
 7064TIP3   OH221113   4.905   2.347   5.433
 7064TIP3    H121114   4.878   2.279   5.496
 7064TIP3    H221115   4.998   2.360   5.451
 7065TIP3   OH221116   4.904   2.094   4.577
 7065TIP3    H121117   4.835   2.120   4.517
 7065TIP3    H221118   4.950   2.022   4.533
 7066TIP3   OH221119   4.203   2.136   5.334
 7066TIP3    H121120   4.210   2.202   5.403
 7066TIP3    H221121   4.188   2.054   5.382
 7067TIP3   OH221122   4.255   1.601   4.031
 7067TIP3    H121123   4.239   1.592   4.125
 7067TIP3    H221124   4.178   1.647   3.997
 7068TIP3   OH221125   3.797   1.675   4.881
 7068TIP3    H121126   3.880   1.681   4.929
 7068TIP3    H221127   3.815   1.611   4.811
 7069TIP3   OH221128   3.714   1.641   4.417
 7069TIP3    H121129   3.755   1.676   4.338
 7069TIP3    H221130   3.649   1.707   4.442
 7070TIP3   OH221131   4.949   2.339   5.007
 7070TIP3    H121132   4.970   2.271   4.944
 7070TIP3    H221133   4.902   2.294   5.077
 7071TIP3   OH221134   3.986   1.796   4.631
 7071TIP3    H121135   3.922   1.865   4.614
 7071TIP3    H221136   3.941   1.737   4.692
 7072TIP3   OH221137   4.258   1.870   4.447
 7072TIP3    H121138   4.352   1.889   4.452
 7072TIP3    H221139   4.233   1.898   4.359
 7073TIP3   OH221140   5.112   1.879   4.895
 7073TIP3    H121141   5.076   1.896   4.982
 7073TIP3    H221142   5.074   1.796   4.869
 7074TIP3   OH221143   4.177   1.868   4.176
 7074TIP3    H121144   4.103   1.839   4.123
 7074TIP3    H221145   4.230   1.922   4.116
 7075TIP3   OH221146   5.262   3.585   5.108
 7075TIP3    H121147   5.255   3.601   5.014
 7075TIP3    H221148   5.341   3.632   5.134
 7076TIP3   OH221149   4.212   2.685   5.527
 7076TIP3    H121150   4.291   2.710   5.575
 7076TIP3    H221151   4.141   2.700   5.590
 7077TIP3   OH221152   4.678   2.167   4.798
 7077TIP3    H121153   4.759   2.129   4.764
 7077TIP3    H221154   4.668   2.128   4.885
 7078TIP3   OH221155   4.213   1.585   4.632
 7078TIP3    H121156   4.164   1.531   4.695
 7078TIP3    H221157   4.293   1.536   4.615
 7079TIP3   OH221158   4.634   2.071   5.058
 7079TIP3    H121159   4.549   2.107   5.082
 7079TIP3    H221160   4.697   2.121   5.110
 7080TIP3   OH221161   4.369   2.423   4.170
 7080TIP3    H121162   4.295   2.367   4.146
 7080TIP3    H221163   4.342   2.463   4.253
 7081TIP3   OH221164   5.266   2.679   4.776
 7081TIP3    H121165   5.303   2.727   4.702
 7081TIP3    H221166   5.187   2.637   4.741
 7082TIP3   OH221167   4.838   1.738   4.073
 7082TIP3    H121168   4.745   1.716   4.071
 7082TIP3    H221169   4.841   1.833   4.082
 7083TIP3   OH221170   4.780   2.756   5.196
 7083TIP3    H121171   4.830   2.749   5.277
 7083TIP3    H221172   4.739   2.843   5.200
 7084TIP3   OH221173   4.897   2.004   4.142
 7084TIP3    H121174   4.992   2.006   4.151
 7084TIP3    H221175   4.876   2.080   4.088
 7085TIP3   OH221176   4.061   2.416   4.835
 7085TIP3    H121177   4.103   2.405   4.749
 7085TIP3    H221178   4.126   2.385   4.898
 7086TIP3   OH221179   4.519   2.590   4.010
 7086TIP3    H121180   4.473   2.674   4.008
 7086TIP3    H221181   4.462   2.532   4.062
 7087TIP3   OH221182   3.945   2.356   5.446
 7087TIP3    H121183   3.943   2.328   5.537
 7087TIP3    H221184   3.871   2.312   5.405
 7088TIP3   OH221185   4.675   2.500   5.473
 7088TIP3    H121186   4.605   2.442   5.443
 7088TIP3    H221187   4.756   2.458   5.443
 7089TIP3   OH221188   4.926   3.045   5.077
 7089TIP3    H121189   4.831   3.033   5.081
 7089TIP3    H221190   4.949   3.084   5.161
 7090TIP3   OH221191   5.311   2.089   3.962
 7090TIP3    H121192   5.254   2.044   3.899
 7090TIP3    H221193   5.318   2.178   3.928
 7091TIP3   OH221194   5.564   2.960   5.045
 7091TIP3    H121195   5.470   2.944   5.036
 7091TIP3    H221196   5.601   2.932   4.961
 7092TIP3   OH221197   5.039   2.542   4.674
 7092TIP3    H121198   4.949   2.522   4.699
 7092TIP3    H221199   5.071   2.462   4.634
 7093TIP3   OH221200   4.190   2.779   4.488
 7093TIP3    H121201   4.183   2.852   4.427
 7093TIP3    H221202   4.110   2.785   4.541
 7094TIP3   OH221203   3.759   2.066   4.212
 7094TIP3    H121204   3.797   2.152   4.230
 7094TIP3    H221205   3.674   2.067   4.257
 7095TIP3   OH221206   4.268   2.530   4.398
 7095TIP3    H121207   4.249   2.621   4.422
 7095TIP3    H221208   4.242   2.479   4.476
 7096TIP3   OH221209   4.474   3.101   4.941
 7096TIP3    H121210   4.507   3.176   4.892
 7096TIP3    H221211   4.549   3.070   4.992
 7097TIP3   OH221212   4.104   2.999   4.334
 7097TIP3    H121213   4.017   3.006   4.374
 7097TIP3    H221214   4.140   3.088   4.341
 7098TIP3   OH221215   4.822   2.764   4.922
 7098TIP3    H121216   4.807   2.759   5.017
 7098TIP3    H221217   4.908   2.723   4.909
 7099TIP3   OH221218   4.828   2.678   3.749
 7099TIP3    H121219   4.894   2.651   3.813
 7099TIP3    H221220   4.755   2.618   3.763
 7100TIP3   OH221221   5.078   3.259   4.951
 7100TIP3    H121222   5.005   3.200   4.968
 7100TIP3    H221223   5.047   3.315   4.880
 7101TIP3   OH221224   5.098   3.093   3.594
 7101TIP3    H121225   5.108   3.137   3.510
 7101TIP3    H221226   5.034   3.147   3.641
 7102TIP3   OH221227   4.158   1.885   5.461
 7102TIP3    H121228   4.063   1.896   5.468
 7102TIP3    H221229   4.183   1.838   5.541
 7103TIP3   OH221230   4.993   2.550   3.944
 7103TIP3    H121231   4.971   2.504   4.025
 7103TIP3    H221232   5.088   2.564   3.949
 7104TIP3   OH221233   3.897   2.994   5.089
 7104TIP3    H121234   3.954   2.943   5.146
 7104TIP3    H221235   3.904   3.084   5.122
 7105TIP3   OH221236   4.215   2.609   3.794
 7105TIP3    H121237   4.212   2.517   3.769
 7105TIP3    H221238   4.175   2.612   3.881
 7106TIP3   OH221239   4.109   2.622   4.056
 7106TIP3    H121240   4.170   2.595   4.126
 7106TIP3    H221241   4.106   2.718   4.064
 7107TIP3   OH221242   3.847   2.323   4.281
 7107TIP3    H121243   3.780   2.367   4.334
 7107TIP3    H221244   3.859   2.380   4.206
 7108TIP3   OH221245   5.017   1.931   5.147
 7108TIP3    H121246   5.089   1.983   5.182
 7108TIP3    H221247   5.008   1.859   5.209
 7109TIP3   OH221248   4.899   1.690   4.338
 7109TIP3    H121249   4.882   1.708   4.246
 7109TIP3    H221250   4.945   1.769   4.369
 7110TIP3   OH221251   4.383   2.827   4.009
 7110TIP3    H121252   4.295   2.842   4.046
 7110TIP3    H221253   4.401   2.906   3.958
 7111TIP3   OH221254   4.541   1.896   4.460
 7111TIP3    H121255   4.595   1.959   4.413
 7111TIP3    H221256   4.595   1.870   4.535
 7112TIP3   OH221257   4.846   2.178   5.206
 7112TIP3    H121258   4.865   2.224   5.288
 7112TIP3    H221259   4.896   2.097   5.212
 7113TIP3   OH221260   4.718   1.577   4.510
 7113TIP3    H121261   4.751   1.608   4.594
 7113TIP3    H221262   4.780   1.611   4.445
 7114TIP3   OH221263   4.126   2.892   4.084
 7114TIP3    H121264   4.094   2.958   4.022
 7114TIP3    H221265   4.114   2.932   4.170
 7115TIP3   OH221266   4.219   1.620   4.306
 7115TIP3    H121267   4.211   1.708   4.270
 7115TIP3    H221268   4.313   1.609   4.324
 7116TIP3   OH221269   5.466   2.081   5.207
 7116TIP3    H121270   5.370   2.084   5.213
 7116TIP3    H221271   5.483   2.029   5.129
 7117TIP3   OH221272   5.127   2.286   4.581
 7117TIP3    H121273   5.052   2.227   4.593
 7117TIP3    H221274   5.196   2.248   4.635
 7118TIP3   OH221275   3.863   2.491   4.060
 7118TIP3    H121276   3.931   2.558   4.064
 7118TIP3    H221277   3.895   2.427   3.995
 7119TIP3   OH221278   3.783   1.789   4.197
 7119TIP3    H121279   3.788   1.884   4.209
 7119TIP3    H221280   3.721   1.777   4.125
 7120TIP3   OH221281   5.105   3.259   4.522
 7120TIP3    H121282   5.062   3.306   4.451
 7120TIP3    H221283   5.198   3.271   4.507
 7121TIP3   OH221284   4.182   1.497   5.060
 7121TIP3    H121285   4.153   1.461   4.976
 7121TIP3    H221286   4.171   1.424   5.121
 7122TIP3   OH221287   3.694   2.747   4.469
 7122TIP3    H121288   3.662   2.790   4.548
 7122TIP3    H221289   3.652   2.795   4.397
 7123TIP3   OH221290   3.892   3.289   5.517
 7123TIP3    H121291   3.975   3.288   5.565
 7123TIP3    H221292   3.865   3.197   5.515
 7124TIP3   OH221293   4.362   3.202   5.574
 7124TIP3    H121294   4.456   3.183   5.578
 7124TIP3    H221295   4.330   3.149   5.502
 7125TIP3   OH221296   4.367   2.825   3.695
 7125TIP3    H121297   4.328   2.752   3.743
 7125TIP3    H221298   4.324   2.824   3.610
 7126TIP3   OH221299   4.985   3.145   5.326
 7126TIP3    H121300   5.002   3.078   5.392
 7126TIP3    H221301   5.056   3.208   5.337
 7127TIP3   OH221302   4.004   2.695   5.713
 7127TIP3    H121303   4.014   2.601   5.724
 7127TIP3    H221304   3.919   2.706   5.672
 7128TIP3   OH221305   3.992   2.299   3.912
 7128TIP3    H121306   4.043   2.278   3.990
 7128TIP3    H221307   4.058   2.318   3.845
 7129TIP3   OH221308   4.621   2.777   5.488
 7129TIP3    H121309   4.573   2.799   5.408
 7129TIP3    H221310   4.650   2.687   5.474
 7130TIP3   OH221311   4.589   2.530   3.752
 7130TIP3    H121312   4.559   2.545   3.841
 7130TIP3    H221313   4.566   2.438   3.734
 7131TIP3   OH221314   5.093   2.820   5.102
 7131TIP3    H121315   5.170   2.850   5.054
 7131TIP3    H221316   5.029   2.891   5.090
 7132TIP3   OH221317   4.123   2.436   5.726
 7132TIP3    H121318   4.204   2.425   5.676
 7132TIP3    H221319   4.152   2.462   5.814
 7133TIP3   OH221320   4.164   2.237   4.126
 7133TIP3    H121321   4.141   2.209   4.214
 7133TIP3    H221322   4.213   2.164   4.089
 7134TIP3   OH221323   4.473   2.327   5.369
 7134TIP3    H121324   4.387   2.367   5.375
 7134TIP3    H221325   4.508   2.357   5.285
 7135TIP3   OH221326   4.307   2.038   3.991
 7135TIP3    H121327   4.272   2.044   3.902
 7135TIP3    H221328   4.401   2.052   3.980
 7136TIP3   OH221329   4.970   2.704   5.451
 7136TIP3    H121330   5.043   2.671   5.400
 7136TIP3    H221331   4.964   2.645   5.526
 7137TIP3   OH221332   5.113   2.372   3.629
 7137TIP3    H121333   5.084   2.331   3.547
 7137TIP3    H221334   5.159   2.451   3.601
 7138TIP3   OH221335   4.576   2.098   5.483
 7138TIP3    H121336   4.580   2.026   5.420
 7138TIP3    H221337   4.541   2.172   5.434
 7139TIP3   OH221338   4.589   1.894   5.284
 7139TIP3    H121339   4.614   1.933   5.200
 7139TIP3    H221340   4.497   1.868   5.271
 7140TIP3   OH221341   4.597   2.431   5.150
 7140TIP3    H121342   4.680   2.478   5.147
 7140TIP3    H221343   4.537   2.485   5.098
 7141TIP3   OH221344   5.204   2.377   5.590
 7141TIP3    H121345   5.249   2.302   5.552
 7141TIP3    H221346   5.258   2.452   5.568
 7142TIP3   OH221347   5.218   2.643   5.264
 7142TIP3    H121348   5.164   2.704   5.214
 7142TIP3    H221349   5.307   2.660   5.235
 7143TIP3   OH221350   4.467   2.174   5.731
 7143TIP3    H121351   4.396   2.113   5.751
 7143TIP3    H221352   4.493   2.152   5.641
 7144TIP3   OH221353   4.717   1.662   5.382
 7144TIP3    H121354   4.676   1.743   5.351
 7144TIP3    H221355   4.650   1.595   5.371
 7145TIP3   OH221356   4.830   2.134   5.588
 7145TIP3    H121357   4.821   2.116   5.682
 7145TIP3    H221358   4.744   2.114   5.552
 7146TIP3   OH221359   5.072   2.101   5.453
 7146TIP3    H121360   4.991   2.096   5.505
 7146TIP3    H221361   5.142   2.082   5.515
 7147TIP3   OH221362   5.287   2.086   5.623
 7147TIP3    H121363   5.331   2.002   5.638
 7147TIP3    H221364   5.276   2.123   5.710
 7148TIP3   OH221365   4.300   1.955   5.794
 7148TIP3    H121366   4.305   1.866   5.758
 7148TIP3    H221367   4.338   1.948   5.881
 7149TIP3   OH221368   4.780   1.637   5.649
 7149TIP3    H121369   4.850   1.572   5.644
 7149TIP3    H221370   4.751   1.648   5.558
 7150TIP3   OH221371   4.874   1.849   5.797
 7150TIP3    H121372   4.843   1.777   5.742
 7150TIP3    H221373   4.801   1.911   5.798
 7151TIP3   OH221374   4.092   3.075   3.882
 7151TIP3    H121375   4.188   3.076   3.871
 7151TIP3    H221376   4.059   3.125   3.807
 7152TIP3   OH221377   3.589   2.475   4.103
 7152TIP3    H121378   3.679   2.500   4.080
 7152TIP3    H221379   3.572   2.395   4.054
 7153TIP3   OH221380   3.501   3.057   4.529
 7153TIP3    H121381   3.435   3.004   4.484
 7153TIP3    H221382   3.542   2.996   4.591
 7154TIP3   OH221383   3.645   2.894   4.706
 7154TIP3    H121384   3.639   2.835   4.781
 7154TIP3    H221385   3.692   2.970   4.740
 7155TIP3   OH221386   5.377   3.306   4.514
 7155TIP3    H121387   5.396   3.337   4.603
 7155TIP3    H221388   5.431   3.361   4.458
 7156TIP3   OH221389   5.391   3.341   4.796
 7156TIP3    H121390   5.345   3.258   4.792
 7156TIP3    H221391   5.463   3.326   4.857
 7157TIP3   OH221392   5.467   3.039   5.374
 7157TIP3    H121393   5.386   3.049   5.424
 7157TIP3    H221394   5.510   3.124   5.380
 7158TIP3   OH221395   5.274   2.554   3.975
 7158TIP3    H121396   5.330   2.626   3.947
 7158TIP3    H221397   5.319   2.518   4.051
 7159TIP3   OH221398   5.405   2.412   4.178
 7159TIP3    H121399   5.336   2.378   4.235
 7159TIP3    H221400   5.469   2.451   4.238
 7160TIP3   OH221401   5.449   2.816   4.615
 7160TIP3    H121402   5.500   2.748   4.571
 7160TIP3    H221403   5.450   2.890   4.554
 7161TIP3   OH221404   5.253   3.100   4.804
 7161TIP3    H121405   5.184   3.146   4.854
 7161TIP3    H221406   5.207   3.060   4.731
 7162TIP3   OH221407   5.305   2.327   3.825
 7162TIP3    H121408   5.233   2.329   3.762
 7162TIP3    H221409   5.292   2.405   3.879
 7163TIP3   OH221410   5.156   1.982   3.764
 7163TIP3    H121411   5.111   2.018   3.687
 7163TIP3    H221412   5.147   1.887   3.755
 7164TIP3   OH221413   5.194   2.279   4.311
 7164TIP3    H121414   5.199   2.185   4.297
 7164TIP3    H221415   5.175   2.290   4.404
 7165TIP3   OH221416   3.818   2.340   5.082
 7165TIP3    H121417   3.809   2.310   4.991
 7165TIP3    H221418   3.912   2.339   5.098
 7166TIP3   OH221419   5.479   2.688   5.181
 7166TIP3    H121420   5.546   2.622   5.165
 7166TIP3    H221421   5.498   2.757   5.116
 7167TIP3   OH221422   5.655   2.474   5.172
 7167TIP3    H121423   5.582   2.434   5.219
 7167TIP3    H221424   5.729   2.416   5.191
 7168TIP3   OH221425   5.118   1.713   3.738
 7168TIP3    H121426   5.185   1.683   3.799
 7168TIP3    H221427   5.038   1.669   3.767
 7169TIP3   OH221428   5.187   1.996   4.199
 7169TIP3    H121429   5.234   1.914   4.212
 7169TIP3    H221430   5.229   2.036   4.122
 7170TIP3   OH221431   5.345   2.171   4.720
 7170TIP3    H121432   5.426   2.190   4.673
 7170TIP3    H221433   5.360   2.206   4.808
 7171TIP3   OH221434   5.418   2.311   4.956
 7171TIP3    H121435   5.344   2.340   5.010
 7171TIP3    H221436   5.448   2.390   4.912
 7172TIP3   OH221437   4.038   2.019   5.734
 7172TIP3    H121438   4.132   2.015   5.754
 7172TIP3    H221439   4.002   1.939   5.773
 7173TIP3   OH221440   5.910   1.916   5.477
 7173TIP3    H121441   5.960   1.848   5.432
 7173TIP3    H221442   5.840   1.939   5.416
 7174TIP3   OH221443   5.304   1.748   4.253
 7174TIP3    H121444   5.351   1.733   4.336
 7174TIP3    H221445   5.243   1.675   4.246
 7175TIP3   OH221446   4.029   1.720   5.013
 7175TIP3    H121447   4.076   1.643   5.044
 7175TIP3    H221448   4.086   1.794   5.034
 7176TIP3   OH221449   3.800   1.993   5.160
 7176TIP3    H121450   3.848   2.006   5.078
 7176TIP3    H221451   3.808   2.076   5.207
 7177TIP3   OH221452   5.721   2.011   5.297
 7177TIP3    H121453   5.634   2.051   5.304
 7177TIP3    H221454   5.708   1.935   5.241
 7178TIP3   OH221455   5.347   1.659   3.891
 7178TIP3    H121456   5.394   1.599   3.833
 7178TIP3    H221457   5.402   1.737   3.895
 7179TIP3   OH221458   3.780   1.518   4.650
 7179TIP3    H121459   3.694   1.492   4.682
 7179TIP3    H221460   3.763   1.565   4.569
 7180TIP3   OH221461   4.933   3.215   4.144
 7180TIP3    H121462   4.996   3.209   4.072
 7180TIP3    H221463   4.967   3.286   4.199
 7181TIP3   OH221464   3.996   1.557   5.461
 7181TIP3    H121465   3.950   1.553   5.545
 7181TIP3    H221466   3.939   1.610   5.405
 7182TIP3   OH221467   4.041   3.000   5.540
 7182TIP3    H121468   3.946   2.995   5.529
 7182TIP3    H221469   4.054   3.001   5.635
 7183TIP3   OH221470   4.246   3.063   5.090
 7183TIP3    H121471   4.192   3.136   5.058
 7183TIP3    H221472   4.330   3.074   5.047
 7184TIP3   OH221473   4.640   3.291   5.227
 7184TIP3    H121474   4.678   3.288   5.315
 7184TIP3    H221475   4.700   3.347   5.178
 7185TIP3   OH221476   4.829   3.451   5.103
 7185TIP3    H121477   4.892   3.404   5.048
 7185TIP3    H221478   4.883   3.509   5.156
 7186TIP3   OH221479   5.642   1.788   5.158
 7186TIP3    H121480   5.555   1.779   5.120
 7186TIP3    H221481   5.674   1.698   5.168
 7187TIP3   OH221482   3.904   3.282   5.139
 7187TIP3    H121483   3.812   3.297   5.114
 7187TIP3    H221484   3.923   3.353   5.201
 7188TIP3   OH221485   4.133   3.291   4.984
 7188TIP3    H121486   4.050   3.293   5.031
 7188TIP3    H221487   4.111   3.319   4.895
 7189TIP3   OH221488   4.549   3.312   4.778
 7189TIP3    H121489   4.476   3.323   4.716
 7189TIP3    H221490   4.559   3.399   4.818
 7190TIP3   OH221491   4.812   3.244   4.826
 7190TIP3    H121492   4.720   3.266   4.807
 7190TIP3    H221493   4.862   3.311   4.779
 7191TIP3   OH221494   5.013   3.417   4.728
 7191TIP3    H121495   5.009   3.505   4.689
 7191TIP3    H221496   5.043   3.361   4.656
 7192TIP3   OH221497   3.814   3.083   4.831
 7192TIP3    H121498   3.826   3.061   4.924
 7192TIP3    H221499   3.891   3.047   4.788
 7193TIP3   OH221500   4.023   2.958   4.707
 7193TIP3    H121501   4.034   2.876   4.755
 7193TIP3    H221502   4.108   3.002   4.716
 7194TIP3   OH221503   4.288   3.048   4.739
 7194TIP3    H121504   4.311   2.955   4.725
 7194TIP3    H221505   4.341   3.075   4.814
 7195TIP3   OH221506   4.807   1.639   4.758
 7195TIP3    H121507   4.783   1.600   4.842
 7195TIP3    H221508   4.902   1.626   4.751
 7196TIP3   OH221509   5.360   1.626   4.717
 7196TIP3    H121510   5.395   1.672   4.640
 7196TIP3    H221511   5.266   1.644   4.715
 7197TIP3   OH221512   5.464   1.695   4.473
 7197TIP3    H121513   5.531   1.633   4.446
 7197TIP3    H221514   5.503   1.781   4.460
 7198TIP3   OH221515   4.093   1.408   4.810
 7198TIP3    H121516   4.003   1.377   4.822
 7198TIP3    H221517   4.145   1.327   4.808
 7199TIP3   OH221518   3.919   1.321   4.487
 7199TIP3    H121519   3.937   1.364   4.404
 7199TIP3    H221520   3.877   1.389   4.541
 7200TIP3   OH221521   4.541   1.464   4.711
 7200TIP3    H121522   4.599   1.499   4.643
 7200TIP3    H221523   4.586   1.482   4.793
 7201TIP3   OH221524   5.078   1.586   4.708
 7201TIP3    H121525   5.099   1.551   4.622
 7201TIP3    H221526   5.081   1.509   4.766
 7202TIP3   OH221527   5.120   1.536   4.260
 7202TIP3    H121528   5.040   1.583   4.284
 7202TIP3    H221529   5.109   1.450   4.299
 7203TIP3   OH221530   3.582   2.876   4.257
 7203TIP3    H121531   3.499   2.848   4.220
 7203TIP3    H221532   3.595   2.964   4.223
 7204TIP3   OH221533   4.014   1.435   4.238
 7204TIP3    H121534   4.056   1.370   4.182
 7204TIP3    H221535   4.086   1.490   4.269
 7205TIP3   OH221536   4.493   1.645   4.348
 7205TIP3    H121537   4.557   1.592   4.394
 7205TIP3    H221538   4.511   1.735   4.376
 7206TIP3   OH221539   4.365   3.063   3.828
 7206TIP3    H121540   4.371   3.135   3.765
 7206TIP3    H221541   4.360   2.984   3.775
 7207TIP3   OH221542   5.099   3.190   3.919
 7207TIP3    H121543   5.153   3.125   3.874
 7207TIP3    H221544   5.042   3.225   3.851
 7208TIP3   OH221545   4.313   1.686   5.706
 7208TIP3    H121546   4.278   1.618   5.763
 7208TIP3    H221547   4.405   1.692   5.730
 7209TIP3   OH221548   4.562   1.688   5.828
 7209TIP3    H121549   4.639   1.665   5.776
 7209TIP3    H221550   4.554   1.619   5.893
 7210TIP3   OH221551   3.651   2.787   3.896
 7210TIP3    H121552   3.645   2.845   3.972
 7210TIP3    H221553   3.742   2.795   3.867
 7211TIP3   OH221554   5.297   3.312   5.116
 7211TIP3    H121555   5.224   3.281   5.062
 7211TIP3    H221556   5.286   3.407   5.119
 7212TIP3   OH221557   6.580   2.701   3.856
 7212TIP3    H121558   6.550   2.789   3.831
 7212TIP3    H221559   6.508   2.643   3.830
 7213TIP3   OH221560   6.572   2.690   4.285
 7213TIP3    H121561   6.628   2.675   4.361
 7213TIP3    H221562   6.530   2.606   4.269
 7214TIP3   OH221563   5.875   2.551   4.630
 7214TIP3    H121564   5.914   2.498   4.700
 7214TIP3    H221565   5.948   2.576   4.574
 7215TIP3   OH221566   6.843   3.003   3.951
 7215TIP3    H121567   6.835   2.938   4.021
 7215TIP3    H221568   6.868   3.084   3.995
 7216TIP3   OH221569   5.870   2.977   4.309
 7216TIP3    H121570   5.850   2.884   4.317
 7216TIP3    H221571   5.965   2.982   4.301
 7217TIP3   OH221572   5.550   2.183   4.098
 7217TIP3    H121573   5.513   2.268   4.122
 7217TIP3    H221574   5.477   2.136   4.058
 7218TIP3   OH221575   5.632   2.500   4.322
 7218TIP3    H121576   5.683   2.422   4.345
 7218TIP3    H221577   5.698   2.566   4.298
 7219TIP3   OH221578   6.506   3.429   3.971
 7219TIP3    H121579   6.530   3.364   3.905
 7219TIP3    H221580   6.518   3.385   4.055
 7220TIP3   OH221581   6.387   2.911   4.289
 7220TIP3    H121582   6.433   2.831   4.264
 7220TIP3    H221583   6.456   2.971   4.317
 7221TIP3   OH221584   7.411   2.236   4.303
 7221TIP3    H121585   7.427   2.321   4.344
 7221TIP3    H221586   7.445   2.246   4.214
 7222TIP3   OH221587   6.787   2.401   4.322
 7222TIP3    H121588   6.821   2.316   4.350
 7222TIP3    H221589   6.751   2.385   4.235
 7223TIP3   OH221590   6.145   2.059   4.281
 7223TIP3    H121591   6.125   2.132   4.223
 7223TIP3    H221592   6.090   1.987   4.250
 7224TIP3   OH221593   6.843   2.163   3.918
 7224TIP3    H121594   6.906   2.157   3.990
 7224TIP3    H221595   6.894   2.198   3.845
 7225TIP3   OH221596   5.771   2.276   4.409
 7225TIP3    H121597   5.855   2.257   4.452
 7225TIP3    H221598   5.774   2.225   4.328
 7226TIP3   OH221599   6.189   2.474   4.229
 7226TIP3    H121600   6.283   2.460   4.235
 7226TIP3    H221601   6.154   2.392   4.194
 7227TIP3   OH221602   7.464   2.451   4.476
 7227TIP3    H121603   7.379   2.492   4.467
 7227TIP3    H221604   7.503   2.493   4.553
 7228TIP3   OH221605   6.129   2.065   4.732
 7228TIP3    H121606   6.079   2.101   4.658
 7228TIP3    H221607   6.073   2.080   4.808
 7229TIP3   OH221608   6.476   2.920   3.718
 7229TIP3    H121609   6.437   2.889   3.636
 7229TIP3    H221610   6.423   2.995   3.744
 7230TIP3   OH221611   6.221   2.836   4.498
 7230TIP3    H121612   6.169   2.909   4.532
 7230TIP3    H221613   6.272   2.874   4.426
 7231TIP3   OH221614   7.000   2.185   4.141
 7231TIP3    H121615   6.957   2.164   4.224
 7231TIP3    H221616   7.056   2.259   4.161
 7232TIP3   OH221617   6.017   2.171   4.501
 7232TIP3    H121618   6.073   2.246   4.524
 7232TIP3    H221619   6.064   2.127   4.430
 7233TIP3   OH221620   6.068   3.039   4.606
 7233TIP3    H121621   6.057   3.129   4.574
 7233TIP3    H221622   5.988   3.022   4.657
 7234TIP3   OH221623   5.444   2.746   3.862
 7234TIP3    H121624   5.411   2.759   3.773
 7234TIP3    H221625   5.466   2.834   3.892
 7235TIP3   OH221626   6.887   3.251   4.084
 7235TIP3    H121627   6.800   3.245   4.122
 7235TIP3    H221628   6.893   3.340   4.049
 7236TIP3   OH221629   7.215   2.117   4.467
 7236TIP3    H121630   7.130   2.145   4.432
 7236TIP3    H221631   7.279   2.147   4.403
 7237TIP3   OH221632   6.469   1.757   4.465
 7237TIP3    H121633   6.463   1.665   4.491
 7237TIP3    H221634   6.392   1.798   4.504
 7238TIP3   OH221635   6.588   3.277   3.751
 7238TIP3    H121636   6.641   3.198   3.740
 7238TIP3    H221637   6.645   3.349   3.725
 7239TIP3   OH221638   6.727   3.047   3.704
 7239TIP3    H121639   6.652   2.987   3.707
 7239TIP3    H221640   6.777   3.025   3.783
 7240TIP3   OH221641   7.116   3.127   4.451
 7240TIP3    H121642   7.100   3.056   4.389
 7240TIP3    H221643   7.099   3.206   4.402
 7241TIP3   OH221644   6.405   2.539   3.710
 7241TIP3    H121645   6.322   2.583   3.690
 7241TIP3    H221646   6.452   2.539   3.627
 7242TIP3   OH221647   6.371   2.351   3.399
 7242TIP3    H121648   6.437   2.398   3.450
 7242TIP3    H221649   6.420   2.282   3.354
 7243TIP3   OH221650   7.293   2.790   4.303
 7243TIP3    H121651   7.209   2.837   4.303
 7243TIP3    H221652   7.329   2.806   4.216
 7244TIP3   OH221653   6.766   2.627   3.669
 7244TIP3    H121654   6.712   2.657   3.742
 7244TIP3    H221655   6.850   2.604   3.710
 7245TIP3   OH221656   6.992   2.655   4.620
 7245TIP3    H121657   6.987   2.738   4.667
 7245TIP3    H221658   6.911   2.652   4.569
 7246TIP3   OH221659   5.992   2.608   4.075
 7246TIP3    H121660   5.958   2.547   4.010
 7246TIP3    H221661   6.065   2.561   4.115
 7247TIP3   OH221662   6.133   3.023   4.218
 7247TIP3    H121663   6.113   3.013   4.125
 7247TIP3    H221664   6.221   2.987   4.228
 7248TIP3   OH221665   6.086   2.603   4.451
 7248TIP3    H121666   6.125   2.567   4.372
 7248TIP3    H221667   6.135   2.684   4.467
 7249TIP3   OH221668   6.645   3.235   4.211
 7249TIP3    H121669   6.632   3.317   4.258
 7249TIP3    H221670   6.630   3.167   4.276
 7250TIP3   OH221671   6.263   3.142   4.776
 7250TIP3    H121672   6.200   3.199   4.820
 7250TIP3    H221673   6.210   3.089   4.716
 7251TIP3   OH221674   6.595   2.490   3.502
 7251TIP3    H121675   6.655   2.547   3.550
 7251TIP3    H221676   6.625   2.493   3.412
 7252TIP3   OH221677   6.015   2.689   4.924
 7252TIP3    H121678   6.016   2.784   4.937
 7252TIP3    H221679   5.923   2.667   4.912
 7253TIP3   OH221680   6.339   3.159   3.755
 7253TIP3    H121681   6.422   3.206   3.764
 7253TIP3    H221682   6.281   3.220   3.709
 7254TIP3   OH221683   6.052   3.301   4.857
 7254TIP3    H121684   6.033   3.310   4.764
 7254TIP3    H221685   5.966   3.287   4.898
 7255TIP3   OH221686   7.104   1.715   3.561
 7255TIP3    H121687   7.029   1.736   3.616
 7255TIP3    H221688   7.115   1.791   3.505
 7256TIP3   OH221689   5.868   2.448   3.874
 7256TIP3    H121690   5.790   2.496   3.846
 7256TIP3    H221691   5.838   2.359   3.891
 7257TIP3   OH221692   6.930   3.093   3.116
 7257TIP3    H121693   6.925   3.187   3.099
 7257TIP3    H221694   7.019   3.068   3.090
 7258TIP3   OH221695   5.650   2.857   4.809
 7258TIP3    H121696   5.581   2.839   4.745
 7258TIP3    H221697   5.683   2.770   4.832
 7259TIP3   OH221698   5.491   3.052   4.463
 7259TIP3    H121699   5.582   3.078   4.481
 7259TIP3    H221700   5.439   3.129   4.489
 7260TIP3   OH221701   7.363   3.509   4.548
 7260TIP3    H121702   7.361   3.414   4.546
 7260TIP3    H221703   7.272   3.535   4.568
 7261TIP3   OH221704   6.452   3.286   4.637
 7261TIP3    H121705   6.444   3.378   4.664
 7261TIP3    H221706   6.385   3.240   4.686
 7262TIP3   OH221707   6.232   3.379   3.589
 7262TIP3    H121708   6.187   3.361   3.506
 7262TIP3    H221709   6.196   3.463   3.618
 7263TIP3   OH221710   5.668   3.239   3.965
 7263TIP3    H121711   5.713   3.230   4.049
 7263TIP3    H221712   5.619   3.157   3.955
 7264TIP3   OH221713   6.433   3.316   3.214
 7264TIP3    H121714   6.484   3.243   3.180
 7264TIP3    H221715   6.468   3.330   3.302
 7265TIP3   OH221716   6.487   3.360   3.484
 7265TIP3    H121717   6.401   3.361   3.526
 7265TIP3    H221718   6.546   3.325   3.550
 7266TIP3   OH221719   7.232   2.618   4.786
 7266TIP3    H121720   7.153   2.625   4.733
 7266TIP3    H221721   7.255   2.525   4.784
 7267TIP3   OH221722   5.849   3.044   4.775
 7267TIP3    H121723   5.899   3.031   4.855
 7267TIP3    H221724   5.776   2.983   4.781
 7268TIP3   OH221725   6.231   1.847   4.589
 7268TIP3    H121726   6.146   1.815   4.558
 7268TIP3    H221727   6.209   1.928   4.635
 7269TIP3   OH221728   6.777   1.970   4.791
 7269TIP3    H121729   6.847   1.946   4.851
 7269TIP3    H221730   6.696   1.954   4.839
 7270TIP3   OH221731   6.993   2.388   4.705
 7270TIP3    H121732   6.954   2.384   4.792
 7270TIP3    H221733   6.980   2.478   4.676
 7271TIP3   OH221734   6.675   2.460   3.239
 7271TIP3    H121735   6.629   2.466   3.155
 7271TIP3    H221736   6.755   2.510   3.227
 7272TIP3   OH221737   6.382   1.890   3.559
 7272TIP3    H121738   6.346   1.897   3.647
 7272TIP3    H221739   6.346   1.808   3.525
 7273TIP3   OH221740   6.170   2.381   4.596
 7273TIP3    H121741   6.127   2.388   4.681
 7273TIP3    H221742   6.148   2.463   4.551
 7274TIP3   OH221743   6.050   2.259   4.120
 7274TIP3    H121744   5.960   2.235   4.145
 7274TIP3    H221745   6.059   2.227   4.030
 7275TIP3   OH221746   6.527   2.334   3.847
 7275TIP3    H121747   6.481   2.407   3.806
 7275TIP3    H221748   6.587   2.302   3.778
 7276TIP3   OH221749   6.719   2.600   4.920
 7276TIP3    H121750   6.692   2.532   4.983
 7276TIP3    H221751   6.811   2.614   4.939
 7277TIP3   OH221752   6.695   2.347   4.070
 7277TIP3    H121753   6.627   2.369   4.006
 7277TIP3    H221754   6.743   2.275   4.031
 7278TIP3   OH221755   6.008   2.391   4.819
 7278TIP3    H121756   6.041   2.448   4.888
 7278TIP3    H221757   5.989   2.308   4.864
 7279TIP3   OH221758   6.049   1.870   3.536
 7279TIP3    H121759   6.040   1.874   3.631
 7279TIP3    H221760   5.970   1.913   3.502
 7280TIP3   OH221761   5.598   1.916   4.401
 7280TIP3    H121762   5.669   1.953   4.454
 7280TIP3    H221763   5.637   1.901   4.315
 7281TIP3   OH221764   5.500   1.892   3.903
 7281TIP3    H121765   5.546   1.927   3.827
 7281TIP3    H221766   5.437   1.960   3.927
 7282TIP3   OH221767   6.741   2.603   4.497
 7282TIP3    H121768   6.765   2.536   4.432
 7282TIP3    H221769   6.697   2.554   4.567
 7283TIP3   OH221770   6.414   2.049   4.170
 7283TIP3    H121771   6.337   2.048   4.226
 7283TIP3    H221772   6.488   2.040   4.231
 7284TIP3   OH221773   5.810   2.135   4.178
 7284TIP3    H121774   5.722   2.138   4.140
 7284TIP3    H221775   5.839   2.045   4.162
 7285TIP3   OH221776   6.062   2.138   3.874
 7285TIP3    H121777   6.157   2.148   3.864
 7285TIP3    H221778   6.027   2.155   3.786
 7286TIP3   OH221779   6.857   2.139   4.379
 7286TIP3    H121780   6.838   2.155   4.471
 7286TIP3    H221781   6.789   2.077   4.351
 7287TIP3   OH221782   5.950   2.160   3.624
 7287TIP3    H121783   5.888   2.110   3.571
 7287TIP3    H221784   6.004   2.207   3.560
 7288TIP3   OH221785   7.059   3.848   4.584
 7288TIP3    H121786   7.060   3.847   4.488
 7288TIP3    H221787   7.140   3.893   4.608
 7289TIP3   OH221788   5.996   2.958   5.009
 7289TIP3    H121789   6.078   2.977   5.056
 7289TIP3    H221790   5.928   2.966   5.076
 7290TIP3   OH221791   6.461   2.420   4.277
 7290TIP3    H121792   6.529   2.374   4.228
 7290TIP3    H221793   6.461   2.378   4.363
 7291TIP3   OH221794   5.951   1.886   4.165
 7291TIP3    H121795   5.923   1.811   4.217
 7291TIP3    H221796   5.975   1.849   4.080
 7292TIP3   OH221797   6.437   2.322   4.542
 7292TIP3    H121798   6.349   2.354   4.565
 7292TIP3    H221799   6.496   2.374   4.595
 7293TIP3   OH221800   6.167   2.673   3.653
 7293TIP3    H121801   6.091   2.619   3.628
 7293TIP3    H221802   6.140   2.715   3.735
 7294TIP3   OH221803   7.061   2.933   4.262
 7294TIP3    H121804   7.098   2.986   4.192
 7294TIP3    H221805   6.982   2.895   4.225
 7295TIP3   OH221806   6.635   1.994   3.562
 7295TIP3    H121807   6.542   1.972   3.559
 7295TIP3    H221808   6.637   2.089   3.575
 7296TIP3   OH221809   6.571   3.017   4.670
 7296TIP3    H121810   6.634   3.012   4.742
 7296TIP3    H221811   6.538   3.107   4.673
 7297TIP3   OH221812   6.693   2.259   3.631
 7297TIP3    H121813   6.788   2.263   3.644
 7297TIP3    H221814   6.672   2.338   3.581
 7298TIP3   OH221815   5.855   2.685   4.302
 7298TIP3    H121816   5.894   2.669   4.216
 7298TIP3    H221817   5.923   2.659   4.365
 7299TIP3   OH221818   6.321   2.835   3.498
 7299TIP3    H121819   6.273   2.918   3.495
 7299TIP3    H221820   6.266   2.777   3.550
 7300TIP3   OH221821   5.739   2.624   4.942
 7300TIP3    H121822   5.744   2.595   5.033
 7300TIP3    H221823   5.665   2.575   4.906
 7301TIP3   OH221824   6.492   2.760   4.957
 7301TIP3    H121825   6.425   2.709   4.911
 7301TIP3    H221826   6.575   2.719   4.932
 7302TIP3   OH221827   6.727   3.297   4.569
 7302TIP3    H121828   6.631   3.294   4.565
 7302TIP3    H221829   6.746   3.342   4.651
 7303TIP3   OH221830   7.103   2.344   3.446
 7303TIP3    H121831   7.049   2.297   3.382
 7303TIP3    H221832   7.108   2.433   3.411
 7304TIP3   OH221833   7.361   3.229   4.536
 7304TIP3    H121834   7.267   3.210   4.533
 7304TIP3    H221835   7.394   3.200   4.450
 7305TIP3   OH221836   6.847   3.165   3.385
 7305TIP3    H121837   6.821   3.098   3.449
 7305TIP3    H221838   6.866   3.116   3.305
 7306TIP3   OH221839   6.832   2.801   4.155
 7306TIP3    H121840   6.742   2.781   4.180
 7306TIP3    H221841   6.866   2.719   4.119
 7307TIP3   OH221842   5.990   3.035   3.973
 7307TIP3    H121843   5.987   3.110   3.914
 7307TIP3    H221844   5.903   3.032   4.012
 7308TIP3   OH221845   5.545   2.318   3.687
 7308TIP3    H121846   5.588   2.400   3.710
 7308TIP3    H221847   5.465   2.317   3.738
 7309TIP3   OH221848   6.066   2.789   3.874
 7309TIP3    H121849   6.051   2.879   3.905
 7309TIP3    H221850   6.042   2.734   3.949
 7310TIP3   OH221851   6.272   3.356   4.425
 7310TIP3    H121852   6.305   3.430   4.374
 7310TIP3    H221853   6.348   3.325   4.474
 7311TIP3   OH221854   5.903   3.256   3.820
 7311TIP3    H121855   5.816   3.263   3.861
 7311TIP3    H221856   5.939   3.344   3.825
 7312TIP3   OH221857   6.619   3.023   4.397
 7312TIP3    H121858   6.602   3.018   4.491
 7312TIP3    H221859   6.706   2.984   4.386
 7313TIP3   OH221860   6.614   2.897   3.268
 7313TIP3    H121861   6.666   2.867   3.342
 7313TIP3    H221862   6.530   2.853   3.279
 7314TIP3   OH221863   6.849   3.550   4.475
 7314TIP3    H121864   6.816   3.461   4.467
 7314TIP3    H221865   6.843   3.586   4.387
 7315TIP3   OH221866   6.931   3.367   3.080
 7315TIP3    H121867   6.965   3.437   3.024
 7315TIP3    H221868   6.855   3.407   3.124
 7316TIP3   OH221869   5.953   2.136   4.938
 7316TIP3    H121870   5.858   2.145   4.941
 7316TIP3    H221871   5.974   2.072   5.006
 7317TIP3   OH221872   6.792   2.803   3.455
 7317TIP3    H121873   6.776   2.754   3.535
 7317TIP3    H221874   6.887   2.815   3.451
 7318TIP3   OH221875   5.696   3.258   4.586
 7318TIP3    H121876   5.752   3.203   4.641
 7318TIP3    H221877   5.709   3.347   4.620
 7319TIP3   OH221878   5.964   2.862   3.284
 7319TIP3    H121879   5.975   2.771   3.258
 7319TIP3    H221880   5.951   2.859   3.379
 7320TIP3   OH221881   5.906   2.879   3.557
 7320TIP3    H121882   5.969   2.854   3.625
 7320TIP3    H221883   5.904   2.974   3.560
 7321TIP3   OH221884   5.640   2.568   3.769
 7321TIP3    H121885   5.576   2.617   3.821
 7321TIP3    H221886   5.660   2.626   3.695
 7322TIP3   OH221887   6.800   2.201   4.640
 7322TIP3    H121888   6.878   2.246   4.670
 7322TIP3    H221889   6.794   2.124   4.697
 7323TIP3   OH221890   6.696   1.944   3.830
 7323TIP3    H121891   6.675   1.963   3.739
 7323TIP3    H221892   6.739   2.023   3.862
 7324TIP3   OH221893   6.173   3.062   3.490
 7324TIP3    H121894   6.089   3.087   3.528
 7324TIP3    H221895   6.199   3.138   3.439
 7325TIP3   OH221896   6.341   2.144   3.919
 7325TIP3    H121897   6.403   2.212   3.893
 7325TIP3    H221898   6.366   2.123   4.009
 7326TIP3   OH221899   6.641   2.436   4.694
 7326TIP3    H121900   6.668   2.479   4.776
 7326TIP3    H221901   6.691   2.355   4.692
 7327TIP3   OH221902   6.508   1.839   4.005
 7327TIP3    H121903   6.485   1.917   4.057
 7327TIP3    H221904   6.578   1.869   3.947
 7328TIP3   OH221905   5.924   3.151   3.568
 7328TIP3    H121906   5.905   3.223   3.508
 7328TIP3    H221907   5.915   3.190   3.655
 7329TIP3   OH221908   6.020   1.864   3.815
 7329TIP3    H121909   6.008   1.955   3.843
 7329TIP3    H221910   6.114   1.849   3.821
 7330TIP3   OH221911   7.262   2.348   4.696
 7330TIP3    H121912   7.166   2.347   4.701
 7330TIP3    H221913   7.281   2.308   4.611
 7331TIP3   OH221914   6.921   2.540   4.070
 7331TIP3    H121915   6.845   2.484   4.083
 7331TIP3    H221916   6.989   2.502   4.125
 7332TIP3   OH221917   5.665   2.741   3.548
 7332TIP3    H121918   5.735   2.806   3.558
 7332TIP3    H221919   5.698   2.679   3.483
 7333TIP3   OH221920   5.571   2.039   3.684
 7333TIP3    H121921   5.583   2.134   3.692
 7333TIP3    H221922   5.520   2.028   3.604
 7334TIP3   OH221923   6.930   3.523   4.028
 7334TIP3    H121924   6.899   3.575   3.954
 7334TIP3    H221925   7.019   3.554   4.044
 7335TIP3   OH221926   5.967   1.763   4.551
 7335TIP3    H121927   5.937   1.731   4.466
 7335TIP3    H221928   5.959   1.688   4.610
 7336TIP3   OH221929   5.489   3.019   3.942
 7336TIP3    H121930   5.455   3.054   4.024
 7336TIP3    H221931   5.434   3.059   3.874
 7337TIP3   OH221932   5.699   3.553   5.007
 7337TIP3    H121933   5.781   3.560   5.056
 7337TIP3    H221934   5.692   3.461   4.984
 7338TIP3   OH221935   6.161   3.455   5.057
 7338TIP3    H121936   6.254   3.430   5.061
 7338TIP3    H221937   6.126   3.406   4.983
 7339TIP3   OH221938   6.118   3.064   3.172
 7339TIP3    H121939   6.072   2.994   3.219
 7339TIP3    H221940   6.194   3.021   3.132
 7340TIP3   OH221941   6.774   3.406   4.818
 7340TIP3    H121942   6.794   3.335   4.879
 7340TIP3    H221943   6.849   3.466   4.824
 7341TIP3   OH221944   6.563   3.105   3.097
 7341TIP3    H121945   6.595   3.040   3.160
 7341TIP3    H221946   6.622   3.098   3.023
 7342TIP3   OH221947   5.793   2.956   5.202
 7342TIP3    H121948   5.814   2.863   5.210
 7342TIP3    H221949   5.706   2.957   5.161
 7343TIP3   OH221950   5.784   2.551   3.393
 7343TIP3    H121951   5.835   2.528   3.470
 7343TIP3    H221952   5.850   2.566   3.325
 7344TIP3   OH221953   6.415   3.035   4.980
 7344TIP3    H121954   6.375   3.058   4.896
 7344TIP3    H221955   6.457   2.951   4.964
 7345TIP3   OH221956   6.356   2.779   3.232
 7345TIP3    H121957   6.334   2.790   3.324
 7345TIP3    H221958   6.338   2.687   3.214
 7346TIP3   OH221959   6.886   3.071   4.594
 7346TIP3    H121960   6.965   3.096   4.547
 7346TIP3    H221961   6.826   3.145   4.581
 7347TIP3   OH221962   5.907   2.703   5.202
 7347TIP3    H121963   5.977   2.685   5.140
 7347TIP3    H221964   5.951   2.713   5.287
 7348TIP3   OH221965   5.956   2.498   3.606
 7348TIP3    H121966   5.938   2.468   3.695
 7348TIP3    H221967   6.006   2.426   3.567
 7349TIP3   OH221968   6.259   2.567   4.861
 7349TIP3    H121969   6.181   2.620   4.877
 7349TIP3    H221970   6.298   2.605   4.782
 7350TIP3   OH221971   6.100   2.315   3.454
 7350TIP3    H121972   6.071   2.319   3.363
 7350TIP3    H221973   6.195   2.324   3.449
 7351TIP3   OH221974   6.780   2.954   4.949
 7351TIP3    H121975   6.847   2.917   4.892
 7351TIP3    H221976   6.778   2.896   5.025
 7352TIP3   OH221977   6.889   2.604   3.137
 7352TIP3    H121978   6.877   2.564   3.051
 7352TIP3    H221979   6.867   2.696   3.124
 7353TIP3   OH221980   6.382   2.350   4.975
 7353TIP3    H121981   6.387   2.278   4.912
 7353TIP3    H221982   6.343   2.422   4.925
 7354TIP3   OH221983   6.388   2.151   4.771
 7354TIP3    H121984   6.416   2.187   4.688
 7354TIP3    H221985   6.297   2.124   4.756
 7355TIP3   OH221986   6.391   2.692   4.660
 7355TIP3    H121987   6.480   2.723   4.641
 7355TIP3    H221988   6.335   2.745   4.603
 7356TIP3   OH221989   6.988   2.633   5.017
 7356TIP3    H121990   7.026   2.545   5.024
 7356TIP3    H221991   7.062   2.690   4.997
 7357TIP3   OH221992   7.007   2.899   4.765
 7357TIP3    H121993   6.955   2.959   4.712
 7357TIP3    H221994   7.097   2.912   4.735
 7358TIP3   OH221995   6.267   2.432   5.216
 7358TIP3    H121996   6.194   2.371   5.225
 7358TIP3    H221997   6.303   2.414   5.130
 7359TIP3   OH221998   6.511   1.918   4.868
 7359TIP3    H121999   6.470   1.999   4.837
 7359TIP3    H222000   6.444   1.851   4.856
 7360TIP3   OH222001   6.637   2.390   5.080
 7360TIP3    H122002   6.631   2.376   5.174
 7360TIP3    H222003   6.550   2.369   5.047
 7361TIP3   OH222004   6.882   2.346   4.947
 7361TIP3    H122005   6.804   2.345   5.002
 7361TIP3    H222006   6.953   2.321   5.006
 7362TIP3   OH222007   7.115   2.309   5.098
 7362TIP3    H122008   7.130   2.215   5.104
 7362TIP3    H222009   7.111   2.339   5.189
 7363TIP3   OH222010   6.095   2.208   5.261
 7363TIP3    H122011   6.100   2.121   5.222
 7363TIP3    H222012   6.143   2.201   5.343
 7364TIP3   OH222013   6.585   1.896   5.130
 7364TIP3    H122014   6.654   1.830   5.124
 7364TIP3    H222015   6.553   1.906   5.041
 7365TIP3   OH222016   6.670   2.109   5.284
 7365TIP3    H122017   6.641   2.038   5.227
 7365TIP3    H222018   6.594   2.168   5.289
 7366TIP3   OH222019   5.922   3.359   3.384
 7366TIP3    H122020   6.012   3.339   3.359
 7366TIP3    H222021   5.886   3.406   3.309
 7367TIP3   OH222022   5.393   2.731   3.582
 7367TIP3    H122023   5.488   2.741   3.568
 7367TIP3    H222024   5.371   2.648   3.538
 7368TIP3   OH222025   5.301   3.335   4.036
 7368TIP3    H122026   5.235   3.286   3.987
 7368TIP3    H222027   5.342   3.269   4.092
 7369TIP3   OH222028   5.441   3.153   4.193
 7369TIP3    H122029   5.433   3.087   4.261
 7369TIP3    H222030   5.494   3.222   4.233
 7370TIP3   OH222031   7.249   3.294   4.864
 7370TIP3    H122032   7.178   3.307   4.927
 7370TIP3    H222033   7.293   3.379   4.861
 7371TIP3   OH222034   7.072   2.812   3.462
 7371TIP3    H122035   7.128   2.884   3.434
 7371TIP3    H222036   7.116   2.775   3.538
 7372TIP3   OH222037   7.199   2.670   3.664
 7372TIP3    H122038   7.133   2.635   3.723
 7372TIP3    H222039   7.265   2.709   3.722
 7373TIP3   OH222040   7.239   3.076   4.102
 7373TIP3    H122041   7.292   3.010   4.059
 7373TIP3    H222042   7.239   3.150   4.041
 7374TIP3   OH222043   7.063   3.340   4.289
 7374TIP3    H122044   7.103   3.420   4.256
 7374TIP3    H222045   7.009   3.308   4.216
 7375TIP3   OH222046   7.100   2.584   3.311
 7375TIP3    H122047   7.027   2.585   3.250
 7375TIP3    H222048   7.089   2.662   3.365
 7376TIP3   OH222049   6.957   2.227   3.245
 7376TIP3    H122050   6.908   2.265   3.172
 7376TIP3    H222051   6.951   2.133   3.232
 7377TIP3   OH222052   6.994   2.533   3.802
 7377TIP3    H122053   7.000   2.438   3.789
 7377TIP3    H222054   6.974   2.544   3.895
 7378TIP3   OH222055   5.612   2.590   4.579
 7378TIP3    H122056   5.602   2.560   4.489
 7378TIP3    H222057   5.706   2.587   4.596
 7379TIP3   OH222058   7.260   2.943   4.664
 7379TIP3    H122059   7.330   2.881   4.643
 7379TIP3    H222060   7.258   3.002   4.589
 7380TIP3   OH222061   7.444   2.735   4.654
 7380TIP3    H122062   7.371   2.696   4.703
 7380TIP3    H222063   7.520   2.681   4.676
 7381TIP3   OH222064   6.921   1.953   3.212
 7381TIP3    H122065   6.983   1.934   3.283
 7381TIP3    H222066   6.837   1.922   3.246
 7382TIP3   OH222067   6.983   2.253   3.687
 7382TIP3    H122068   7.029   2.170   3.700
 7382TIP3    H222069   7.024   2.291   3.610
 7383TIP3   OH222070   7.135   2.419   4.211
 7383TIP3    H122071   7.216   2.438   4.163
 7383TIP3    H222072   7.150   2.458   4.298
 7384TIP3   OH222073   7.209   2.566   4.441
 7384TIP3    H122074   7.137   2.597   4.496
 7384TIP3    H222075   7.240   2.644   4.396
 7385TIP3   OH222076   5.825   2.259   5.218
 7385TIP3    H122077   5.920   2.254   5.226
 7385TIP3    H222078   5.794   2.177   5.257
 7386TIP3   OH222079   7.673   2.163   4.978
 7386TIP3    H122080   7.739   2.107   4.938
 7386TIP3    H222081   7.637   2.214   4.905
 7387TIP3   OH222082   7.100   2.004   3.738
 7387TIP3    H122083   7.147   1.990   3.821
 7387TIP3    H222084   7.038   1.932   3.733
 7388TIP3   OH222085   5.806   1.989   4.572
 7388TIP3    H122086   5.859   1.910   4.576
 7388TIP3    H222087   5.869   2.059   4.552
 7389TIP3   OH222088   5.588   2.256   4.624
 7389TIP3    H122089   5.640   2.244   4.544
 7389TIP3    H222090   5.617   2.341   4.658
 7390TIP3   OH222091   7.521   2.279   4.781
 7390TIP3    H122092   7.438   2.319   4.804
 7390TIP3    H222093   7.498   2.202   4.729
 7391TIP3   OH222094   7.142   1.917   3.377
 7391TIP3    H122095   7.192   1.856   3.322
 7391TIP3    H222096   7.198   1.994   3.383
 7392TIP3   OH222097   5.575   1.762   4.131
 7392TIP3    H122098   5.489   1.750   4.172
 7392TIP3    H222099   5.557   1.815   4.053
 7393TIP3   OH222100   6.730   3.480   3.648
 7393TIP3    H122101   6.787   3.470   3.572
 7393TIP3    H222102   6.779   3.538   3.707
 7394TIP3   OH222103   5.810   1.828   4.940
 7394TIP3    H122104   5.759   1.816   5.020
 7394TIP3    H222105   5.750   1.872   4.880
 7395TIP3   OH222106   5.820   3.279   5.014
 7395TIP3    H122107   5.728   3.253   5.009
 7395TIP3    H222108   5.843   3.271   5.107
 7396TIP3   OH222109   6.047   3.313   4.577
 7396TIP3    H122110   5.991   3.382   4.542
 7396TIP3    H222111   6.131   3.324   4.532
 7397TIP3   OH222112   6.441   3.554   4.713
 7397TIP3    H122113   6.479   3.548   4.801
 7397TIP3    H222114   6.505   3.605   4.663
 7398TIP3   OH222115   6.636   3.704   4.584
 7398TIP3    H122116   6.702   3.647   4.544
 7398TIP3    H222117   6.687   3.767   4.635
 7399TIP3   OH222118   7.432   2.035   4.675
 7399TIP3    H122119   7.347   2.027   4.632
 7399TIP3    H222120   7.471   1.948   4.668
 7400TIP3   OH222121   5.699   3.549   4.628
 7400TIP3    H122122   5.609   3.567   4.605
 7400TIP3    H222123   5.725   3.620   4.686
 7401TIP3   OH222124   5.926   3.530   4.469
 7401TIP3    H122125   5.843   3.544   4.515
 7401TIP3    H222126   5.908   3.559   4.379
 7402TIP3   OH222127   6.342   3.565   4.257
 7402TIP3    H122128   6.268   3.576   4.197
 7402TIP3    H222129   6.352   3.652   4.298
 7403TIP3   OH222130   6.601   3.487   4.303
 7403TIP3    H122131   6.513   3.518   4.282
 7403TIP3    H222132   6.659   3.558   4.274
 7404TIP3   OH222133   6.800   3.667   4.224
 7404TIP3    H122134   6.806   3.757   4.190
 7404TIP3    H222135   6.844   3.613   4.158
 7405TIP3   OH222136   5.611   3.337   4.333
 7405TIP3    H122137   5.636   3.315   4.423
 7405TIP3    H222138   5.684   3.306   4.280
 7406TIP3   OH222139   5.816   3.220   4.197
 7406TIP3    H122140   5.828   3.137   4.242
 7406TIP3    H222141   5.902   3.262   4.202
 7407TIP3   OH222142   6.085   3.300   4.224
 7407TIP3    H122143   6.105   3.208   4.212
 7407TIP3    H222144   6.140   3.328   4.298
 7408TIP3   OH222145   6.640   1.957   4.311
 7408TIP3    H122146   6.601   1.886   4.362
 7408TIP3    H222147   6.708   1.915   4.259
 7409TIP3   OH222148   7.143   1.873   4.193
 7409TIP3    H122149   7.182   1.923   4.122
 7409TIP3    H222150   7.052   1.903   4.197
 7410TIP3   OH222151   7.260   1.951   3.958
 7410TIP3    H122152   7.328   1.889   3.933
 7410TIP3    H222153   7.299   2.037   3.944
 7411TIP3   OH222154   5.877   1.661   4.310
 7411TIP3    H122155   5.788   1.625   4.318
 7411TIP3    H222156   5.933   1.583   4.302
 7412TIP3   OH222157   5.701   1.568   3.962
 7412TIP3    H122158   5.727   1.617   3.884
 7412TIP3    H222159   5.666   1.635   4.021
 7413TIP3   OH222160   6.364   1.700   4.205
 7413TIP3    H122161   6.412   1.746   4.136
 7413TIP3    H222162   6.405   1.728   4.287
 7414TIP3   OH222163   6.851   1.839   4.180
 7414TIP3    H122164   6.872   1.804   4.093
 7414TIP3    H222165   6.861   1.764   4.239
 7415TIP3   OH222166   6.916   1.793   3.747
 7415TIP3    H122167   6.836   1.841   3.772
 7415TIP3    H222168   6.905   1.706   3.785
 7416TIP3   OH222169   5.331   3.130   3.744
 7416TIP3    H122170   5.264   3.092   3.687
 7416TIP3    H222171   5.349   3.216   3.706
 7417TIP3   OH222172   5.810   1.696   3.724
 7417TIP3    H122173   5.855   1.634   3.667
 7417TIP3    H222174   5.879   1.752   3.759
 7418TIP3   OH222175   6.295   1.892   3.822
 7418TIP3    H122176   6.355   1.840   3.876
 7418TIP3    H222177   6.310   1.982   3.851
 7419TIP3   OH222178   6.179   3.287   3.318
 7419TIP3    H122179   6.263   3.314   3.281
 7419TIP3    H222180   6.149   3.216   3.262
 7420TIP3   OH222181   6.881   3.434   3.418
 7420TIP3    H122182   6.875   3.339   3.412
 7420TIP3    H222183   6.837   3.466   3.340
 7421TIP3   OH222184   6.101   1.936   5.179
 7421TIP3    H122185   6.067   1.869   5.238
 7421TIP3    H222186   6.195   1.940   5.199
 7422TIP3   OH222187   6.352   1.924   5.279
 7422TIP3    H122188   6.436   1.911   5.235
 7422TIP3    H222189   6.359   1.873   5.360
 7423TIP3   OH222190   5.493   3.136   3.375
 7423TIP3    H122191   5.499   3.157   3.468
 7423TIP3    H222192   5.573   3.088   3.356
 7424TIP3   OH222193   7.181   2.040   5.101
 7424TIP3    H122194   7.198   2.010   5.191
 7424TIP3    H222195   7.266   2.034   5.057
 7425TIP3   OH222196   7.096   3.574   4.610
 7425TIP3    H122197   7.021   3.542   4.559
 7425TIP3    H222198   7.086   3.669   4.609
 7426TIP3   OH222199   8.358   2.898   3.353
 7426TIP3    H122200   8.309   2.980   3.366
 7426TIP3    H222201   8.300   2.844   3.299
 7427TIP3   OH222202   8.238   2.939   3.722
 7427TIP3    H122203   8.290   2.945   3.802
 7427TIP3    H222204   8.227   2.845   3.707
 7428TIP3   OH222205   7.660   2.809   4.118
 7428TIP3    H122206   7.694   2.751   4.186
 7428TIP3    H222207   7.737   2.834   4.067
 7429TIP3   OH222208   8.490   3.303   3.399
 7429TIP3    H122209   8.455   3.258   3.476
 7429TIP3    H222210   8.552   3.366   3.435
 7430TIP3   OH222211   7.642   3.226   3.793
 7430TIP3    H122212   7.628   3.132   3.805
 7430TIP3    H222213   7.738   3.235   3.788
 7431TIP3   OH222214   7.338   2.440   3.580
 7431TIP3    H122215   7.304   2.525   3.607
 7431TIP3    H222216   7.263   2.395   3.541
 7432TIP3   OH222217   7.424   2.757   3.805
 7432TIP3    H122218   7.473   2.680   3.831
 7432TIP3    H222219   7.491   2.823   3.786
 7433TIP3   OH222220   8.213   3.748   3.432
 7433TIP3    H122221   8.225   3.660   3.396
 7433TIP3    H222222   8.272   3.752   3.507
 7434TIP3   OH222223   8.130   3.185   3.772
 7434TIP3    H122224   8.157   3.098   3.744
 7434TIP3    H222225   8.212   3.231   3.790
 7435TIP3   OH222226   7.900   2.315   3.776
 7435TIP3    H122227   7.886   2.389   3.717
 7435TIP3    H222228   7.848   2.244   3.739
 7436TIP3   OH222229   7.555   2.530   3.893
 7436TIP3    H122230   7.635   2.509   3.941
 7436TIP3    H222231   7.559   2.477   3.814
 7437TIP3   OH222232   7.954   2.731   3.705
 7437TIP3    H122233   8.047   2.710   3.702
 7437TIP3    H222234   7.910   2.652   3.675
 7438TIP3   OH222235   7.901   2.322   4.233
 7438TIP3    H122236   7.853   2.363   4.161
 7438TIP3    H222237   7.845   2.338   4.310
 7439TIP3   OH222238   8.224   3.139   3.335
 7439TIP3    H122239   8.270   3.168   3.257
 7439TIP3    H222240   8.144   3.192   3.337
 7440TIP3   OH222241   7.987   3.104   3.994
 7440TIP3    H122242   7.932   3.175   4.027
 7440TIP3    H222243   8.034   3.142   3.920
 7441TIP3   OH222244   7.788   2.422   4.001
 7441TIP3    H122245   7.842   2.499   4.019
 7441TIP3    H222246   7.833   2.378   3.928
 7442TIP3   OH222247   7.841   3.310   4.094
 7442TIP3    H122248   7.829   3.400   4.064
 7442TIP3    H222249   7.765   3.293   4.150
 7443TIP3   OH222250   7.239   3.006   3.346
 7443TIP3    H122251   7.202   3.031   3.262
 7443TIP3    H222252   7.263   3.089   3.387
 7444TIP3   OH222253   8.647   3.513   3.462
 7444TIP3    H122254   8.620   3.518   3.554
 7444TIP3    H222255   8.672   3.603   3.439
 7445TIP3   OH222256   8.203   2.037   3.926
 7445TIP3    H122257   8.211   1.950   3.965
 7445TIP3    H222258   8.133   2.079   3.976
 7446TIP3   OH222259   8.324   3.522   3.320
 7446TIP3    H122260   8.376   3.450   3.356
 7446TIP3    H222261   8.376   3.553   3.245
 7447TIP3   OH222262   8.586   3.319   3.141
 7447TIP3    H122263   8.500   3.289   3.112
 7447TIP3    H222264   8.581   3.313   3.237
 7448TIP3   OH222265   8.193   2.764   3.183
 7448TIP3    H122266   8.113   2.816   3.172
 7448TIP3    H222267   8.236   2.769   3.098
 7449TIP3   OH222268   8.165   2.554   2.917
 7449TIP3    H122269   8.240   2.607   2.943
 7449TIP3    H222270   8.186   2.466   2.949
 7450TIP3   OH222271   7.777   2.878   3.549
 7450TIP3    H122272   7.739   2.816   3.487
 7450TIP3    H222273   7.846   2.829   3.594
 7451TIP3   OH222274   7.895   3.303   3.698
 7451TIP3    H122275   7.880   3.283   3.606
 7451TIP3    H222276   7.981   3.265   3.717
 7452TIP3   OH222277   7.871   2.863   3.936
 7452TIP3    H122278   7.911   2.830   3.855
 7452TIP3    H222279   7.918   2.946   3.953
 7453TIP3   OH222280   8.317   3.493   3.683
 7453TIP3    H122281   8.321   3.566   3.745
 7453TIP3    H222282   8.333   3.415   3.736
 7454TIP3   OH222283   8.049   3.395   4.259
 7454TIP3    H122284   7.992   3.455   4.306
 7454TIP3    H222285   7.991   3.347   4.201
 7455TIP3   OH222286   8.364   2.751   2.965
 7455TIP3    H122287   8.453   2.775   2.993
 7455TIP3    H222288   8.350   2.802   2.886
 7456TIP3   OH222289   7.796   2.959   4.422
 7456TIP3    H122290   7.796   3.054   4.434
 7456TIP3    H222291   7.704   2.936   4.410
 7457TIP3   OH222292   8.099   3.389   3.250
 7457TIP3    H122293   8.167   3.442   3.291
 7457TIP3    H222294   8.042   3.452   3.206
 7458TIP3   OH222295   7.841   3.557   4.340
 7458TIP3    H122296   7.813   3.566   4.249
 7458TIP3    H222297   7.761   3.538   4.388
 7459TIP3   OH222298   7.657   2.709   3.357
 7459TIP3    H122299   7.576   2.753   3.329
 7459TIP3    H222300   7.629   2.620   3.379
 7460TIP3   OH222301   7.438   3.118   4.298
 7460TIP3    H122302   7.369   3.101   4.234
 7460TIP3    H222303   7.470   3.031   4.324
 7461TIP3   OH222304   7.272   3.321   3.953
 7461TIP3    H122305   7.363   3.342   3.970
 7461TIP3    H222306   7.223   3.389   3.999
 7462TIP3   OH222307   8.234   3.542   4.119
 7462TIP3    H122308   8.225   3.630   4.153
 7462TIP3    H222309   8.169   3.491   4.166
 7463TIP3   OH222310   7.986   3.618   3.106
 7463TIP3    H122311   7.927   3.595   3.033
 7463TIP3    H222312   7.959   3.705   3.133
 7464TIP3   OH222313   7.462   3.496   3.460
 7464TIP3    H122314   7.503   3.492   3.547
 7464TIP3    H222315   7.413   3.414   3.453
 7465TIP3   OH222316   8.208   3.613   2.698
 7465TIP3    H122317   8.271   3.545   2.672
 7465TIP3    H222318   8.221   3.622   2.792
 7466TIP3   OH222319   8.221   3.655   2.969
 7466TIP3    H122320   8.144   3.635   3.022
 7466TIP3    H222321   8.294   3.614   3.015
 7467TIP3   OH222322   7.634   3.308   4.273
 7467TIP3    H122323   7.683   3.297   4.354
 7467TIP3    H222324   7.563   3.244   4.278
 7468TIP3   OH222325   7.992   2.109   4.087
 7468TIP3    H122326   7.905   2.080   4.057
 7468TIP3    H222327   7.974   2.190   4.135
 7469TIP3   OH222328   8.483   2.114   4.275
 7469TIP3    H122329   8.540   2.187   4.298
 7469TIP3    H222330   8.404   2.127   4.327
 7470TIP3   OH222331   8.159   2.180   3.030
 7470TIP3    H122332   8.144   2.179   3.125
 7470TIP3    H222333   8.137   2.091   3.002
 7471TIP3   OH222334   7.940   2.634   4.071
 7471TIP3    H122335   7.904   2.647   4.159
 7471TIP3    H222336   7.925   2.718   4.027
 7472TIP3   OH222337   7.821   2.514   3.602
 7472TIP3    H122338   7.733   2.485   3.626
 7472TIP3    H222339   7.836   2.477   3.515
 7473TIP3   OH222340   8.328   2.562   3.315
 7473TIP3    H122341   8.271   2.631   3.281
 7473TIP3    H222342   8.397   2.554   3.249
 7474TIP3   OH222343   8.464   2.862   4.402
 7474TIP3    H122344   8.476   2.793   4.468
 7474TIP3    H222345   8.553   2.880   4.370
 7475TIP3   OH222346   8.439   2.521   3.566
 7475TIP3    H122347   8.397   2.518   3.480
 7475TIP3    H222348   8.527   2.488   3.550
 7476TIP3   OH222349   7.776   2.629   4.300
 7476TIP3    H122350   7.842   2.678   4.348
 7476TIP3    H222351   7.759   2.552   4.355
 7477TIP3   OH222352   7.837   2.113   3.026
 7477TIP3    H122353   7.832   2.118   3.122
 7477TIP3    H222354   7.758   2.157   2.996
 7478TIP3   OH222355   7.390   2.174   3.884
 7478TIP3    H122356   7.453   2.212   3.945
 7478TIP3    H222357   7.439   2.164   3.802
 7479TIP3   OH222358   7.296   2.149   3.390
 7479TIP3    H122359   7.342   2.185   3.315
 7479TIP3    H222360   7.233   2.217   3.415
 7480TIP3   OH222361   8.565   2.794   4.112
 7480TIP3    H122362   8.619   2.795   4.033
 7480TIP3    H222363   8.475   2.785   4.080
 7481TIP3   OH222364   8.148   2.315   3.650
 7481TIP3    H122365   8.072   2.302   3.706
 7481TIP3    H222366   8.219   2.338   3.710
 7482TIP3   OH222367   7.592   2.380   3.666
 7482TIP3    H122368   7.505   2.387   3.627
 7482TIP3    H222369   7.620   2.291   3.645
 7483TIP3   OH222370   7.849   2.383   3.362
 7483TIP3    H122371   7.943   2.394   3.353
 7483TIP3    H222372   7.814   2.402   3.275
 7484TIP3   OH222373   7.743   2.413   3.113
 7484TIP3    H122374   7.682   2.362   3.059
 7484TIP3    H222375   7.793   2.465   3.050
 7485TIP3   OH222376   8.757   4.221   4.180
 7485TIP3    H122377   8.779   4.240   4.088
 7485TIP3    H222378   8.790   4.133   4.194
 7486TIP3   OH222379   7.785   3.224   4.504
 7486TIP3    H122380   7.867   3.241   4.552
 7486TIP3    H222381   7.717   3.232   4.571
 7487TIP3   OH222382   8.220   2.656   3.712
 7487TIP3    H122383   8.286   2.618   3.655
 7487TIP3    H222384   8.222   2.601   3.791
 7488TIP3   OH222385   7.735   2.134   3.644
 7488TIP3    H122386   7.708   2.059   3.697
 7488TIP3    H222387   7.777   2.096   3.567
 7489TIP3   OH222388   8.191   2.525   4.078
 7489TIP3    H122389   8.101   2.556   4.069
 7489TIP3    H222390   8.245   2.600   4.054
 7490TIP3   OH222391   7.974   2.928   3.137
 7490TIP3    H122392   7.896   2.880   3.111
 7490TIP3    H222393   7.947   2.977   3.215
 7491TIP3   OH222394   8.354   3.273   4.136
 7491TIP3    H122395   8.396   3.243   4.217
 7491TIP3    H222396   8.320   3.360   4.158
 7492TIP3   OH222397   7.642   2.937   3.786
 7492TIP3    H122398   7.682   2.927   3.700
 7492TIP3    H222399   7.710   2.910   3.847
 7493TIP3   OH222400   8.113   3.082   2.952
 7493TIP3    H122401   8.073   3.168   2.964
 7493TIP3    H222402   8.071   3.027   3.018
 7494TIP3   OH222403   7.525   2.886   4.429
 7494TIP3    H122404   7.530   2.853   4.519
 7494TIP3    H222405   7.455   2.834   4.389
 7495TIP3   OH222406   8.246   3.016   4.448
 7495TIP3    H122407   8.189   3.005   4.372
 7495TIP3    H222408   8.322   2.962   4.429
 7496TIP3   OH222409   8.488   3.522   4.001
 7496TIP3    H122410   8.397   3.533   4.027
 7496TIP3    H222411   8.537   3.578   4.062
 7497TIP3   OH222412   8.636   3.018   3.686
 7497TIP3    H122413   8.565   3.063   3.640
 7497TIP3    H222414   8.692   2.985   3.616
 7498TIP3   OH222415   7.767   3.293   3.450
 7498TIP3    H122416   7.758   3.370   3.394
 7498TIP3    H222417   7.684   3.290   3.499
 7499TIP3   OH222418   7.337   2.575   3.169
 7499TIP3    H122419   7.379   2.658   3.191
 7499TIP3    H222420   7.257   2.574   3.222
 7500TIP3   OH222421   7.858   3.056   3.348
 7500TIP3    H122422   7.836   3.144   3.379
 7500TIP3    H222423   7.833   2.998   3.419
 7501TIP3   OH222424   8.048   3.621   3.916
 7501TIP3    H122425   8.078   3.699   3.869
 7501TIP3    H222426   8.125   3.590   3.964
 7502TIP3   OH222427   7.686   3.517   3.304
 7502TIP3    H122428   7.602   3.519   3.349
 7502TIP3    H222429   7.719   3.606   3.311
 7503TIP3   OH222430   8.377   3.282   3.849
 7503TIP3    H122431   8.394   3.293   3.943
 7503TIP3    H222432   8.464   3.273   3.811
 7504TIP3   OH222433   8.358   3.111   2.818
 7504TIP3    H122434   8.426   3.117   2.885
 7504TIP3    H222435   8.277   3.102   2.867
 7505TIP3   OH222436   8.589   3.801   3.929
 7505TIP3    H122437   8.517   3.742   3.909
 7505TIP3    H222438   8.604   3.850   3.847
 7506TIP3   OH222439   7.739   2.388   4.444
 7506TIP3    H122440   7.644   2.395   4.452
 7506TIP3    H222441   7.765   2.333   4.518
 7507TIP3   OH222442   7.483   3.462   4.069
 7507TIP3    H122443   7.537   3.428   4.140
 7507TIP3    H222444   7.413   3.510   4.114
 7508TIP3   OH222445   7.747   3.123   2.780
 7508TIP3    H122446   7.766   3.034   2.750
 7508TIP3    H222447   7.740   3.114   2.875
 7509TIP3   OH222448   7.702   3.135   3.056
 7509TIP3    H122449   7.759   3.109   3.128
 7509TIP3    H222450   7.704   3.230   3.057
 7510TIP3   OH222451   7.429   2.826   3.251
 7510TIP3    H122452   7.366   2.875   3.304
 7510TIP3    H222453   7.450   2.885   3.178
 7511TIP3   OH222454   7.978   3.319   2.975
 7511TIP3    H122455   7.893   3.338   3.016
 7511TIP3    H222456   7.994   3.394   2.918
 7512TIP3   OH222457   8.124   2.391   3.390
 7512TIP3    H122458   8.195   2.451   3.369
 7512TIP3    H222459   8.136   2.371   3.482
 7513TIP3   OH222460   8.430   2.596   4.278
 7513TIP3    H122461   8.419   2.690   4.293
 7513TIP3    H222462   8.445   2.589   4.184
 7514TIP3   OH222463   8.319   2.070   3.476
 7514TIP3    H122464   8.350   2.080   3.566
 7514TIP3    H222465   8.384   2.116   3.423
 7515TIP3   OH222466   7.727   3.408   3.057
 7515TIP3    H122467   7.697   3.476   2.996
 7515TIP3    H222468   7.712   3.445   3.144
 7516TIP3   OH222469   7.824   2.110   3.304
 7516TIP3    H122470   7.812   2.200   3.334
 7516TIP3    H222471   7.918   2.095   3.310
 7517TIP3   OH222472   7.457   3.005   3.037
 7517TIP3    H122473   7.530   3.065   3.049
 7517TIP3    H222474   7.488   2.942   2.972
 7518TIP3   OH222475   7.362   2.297   3.169
 7518TIP3    H122476   7.378   2.391   3.178
 7518TIP3    H222477   7.299   2.290   3.098
 7519TIP3   OH222478   8.714   3.768   3.395
 7519TIP3    H122479   8.662   3.847   3.381
 7519TIP3    H222480   8.791   3.798   3.443
 7520TIP3   OH222481   7.737   2.017   4.041
 7520TIP3    H122482   7.715   1.983   3.954
 7520TIP3    H222483   7.737   1.939   4.097
 7521TIP3   OH222484   7.287   3.273   3.436
 7521TIP3    H122485   7.247   3.310   3.514
 7521TIP3    H222486   7.244   3.318   3.363
 7522TIP3   OH222487   7.476   3.803   4.492
 7522TIP3    H122488   7.559   3.800   4.540
 7522TIP3    H222489   7.449   3.712   4.484
 7523TIP3   OH222490   7.933   3.726   4.534
 7523TIP3    H122491   8.020   3.691   4.550
 7523TIP3    H222492   7.900   3.673   4.461
 7524TIP3   OH222493   7.899   3.320   2.663
 7524TIP3    H122494   7.851   3.253   2.711
 7524TIP3    H222495   7.969   3.272   2.619
 7525TIP3   OH222496   8.507   3.705   4.391
 7525TIP3    H122497   8.474   3.618   4.412
 7525TIP3    H222498   8.585   3.715   4.446
 7526TIP3   OH222499   8.299   3.318   2.641
 7526TIP3    H122500   8.330   3.235   2.678
 7526TIP3    H222501   8.345   3.326   2.558
 7527TIP3   OH222502   7.585   3.209   4.697
 7527TIP3    H122503   7.603   3.116   4.705
 7527TIP3    H222504   7.500   3.213   4.652
 7528TIP3   OH222505   7.576   2.813   2.883
 7528TIP3    H122506   7.628   2.791   2.960
 7528TIP3    H222507   7.640   2.830   2.814
 7529TIP3   OH222508   8.188   3.287   4.473
 7529TIP3    H122509   8.148   3.316   4.391
 7529TIP3    H222510   8.219   3.199   4.455
 7530TIP3   OH222511   8.065   3.008   2.692
 7530TIP3    H122512   8.076   3.037   2.782
 7530TIP3    H222513   8.086   2.915   2.693
 7531TIP3   OH222514   8.669   3.319   4.035
 7531TIP3    H122515   8.736   3.344   3.972
 7531TIP3    H222516   8.599   3.384   4.022
 7532TIP3   OH222517   7.699   2.953   4.699
 7532TIP3    H122518   7.767   2.942   4.632
 7532TIP3    H222519   7.747   2.973   4.779
 7533TIP3   OH222520   7.752   2.764   3.095
 7533TIP3    H122521   7.731   2.736   3.184
 7533TIP3    H222522   7.799   2.690   3.057
 7534TIP3   OH222523   7.995   2.794   4.337
 7534TIP3    H122524   7.932   2.855   4.374
 7534TIP3    H222525   8.052   2.848   4.283
 7535TIP3   OH222526   7.888   2.575   2.945
 7535TIP3    H122527   7.858   2.584   2.855
 7535TIP3    H222528   7.983   2.571   2.939
 7536TIP3   OH222529   8.495   3.204   4.372
 7536TIP3    H122530   8.584   3.225   4.343
 7536TIP3    H222531   8.507   3.132   4.434
 7537TIP3   OH222532   8.143   2.601   4.465
 7537TIP3    H122533   8.156   2.522   4.413
 7537TIP3    H222534   8.097   2.661   4.407
 7538TIP3   OH222535   8.160   2.373   4.302
 7538TIP3    H122536   8.197   2.418   4.226
 7538TIP3    H222537   8.070   2.355   4.278
 7539TIP3   OH222538   8.133   2.985   4.198
 7539TIP3    H122539   8.214   2.991   4.148
 7539TIP3    H222540   8.067   3.028   4.142
 7540TIP3   OH222541   8.040   2.680   4.710
 7540TIP3    H122542   7.970   2.618   4.727
 7540TIP3    H222543   8.068   2.661   4.620
 7541TIP3   OH222544   8.247   2.135   4.409
 7541TIP3    H122545   8.218   2.220   4.377
 7541TIP3    H222546   8.182   2.074   4.376
 7542TIP3   OH222547   8.374   2.672   4.598
 7542TIP3    H122548   8.348   2.625   4.678
 7542TIP3    H222549   8.303   2.653   4.536
 7543TIP3   OH222550   8.643   2.633   4.529
 7543TIP3    H122551   8.557   2.609   4.563
 7543TIP3    H222552   8.701   2.563   4.560
 7544TIP3   OH222553   7.878   2.462   4.770
 7544TIP3    H122554   7.887   2.375   4.731
 7544TIP3    H222555   7.914   2.453   4.858
 7545TIP3   OH222556   8.364   2.144   4.658
 7545TIP3    H122557   8.379   2.055   4.689
 7545TIP3    H222558   8.329   2.134   4.569
 7546TIP3   OH222559   8.463   2.396   4.694
 7546TIP3    H122560   8.440   2.304   4.685
 7546TIP3    H222561   8.388   2.435   4.738
 7547TIP3   OH222562   7.703   3.622   2.880
 7547TIP3    H122563   7.791   3.598   2.851
 7547TIP3    H222564   7.664   3.664   2.804
 7548TIP3   OH222565   7.183   3.005   3.041
 7548TIP3    H122566   7.278   3.014   3.045
 7548TIP3    H222567   7.168   2.917   3.006
 7549TIP3   OH222568   7.086   3.587   3.516
 7549TIP3    H122569   7.022   3.532   3.471
 7549TIP3    H222570   7.131   3.528   3.576
 7550TIP3   OH222571   7.230   3.417   3.681
 7550TIP3    H122572   7.222   3.354   3.752
 7550TIP3    H222573   7.281   3.489   3.717
 7551TIP3   OH222574   7.400   2.853   4.060
 7551TIP3    H122575   7.392   2.821   3.970
 7551TIP3    H222576   7.494   2.848   4.079
 7552TIP3   OH222577   7.618   2.527   4.707
 7552TIP3    H122578   7.712   2.524   4.723
 7552TIP3    H222579   7.584   2.446   4.745
 7553TIP3   OH222580   7.583   2.244   4.071
 7553TIP3    H122581   7.635   2.163   4.071
 7553TIP3    H222582   7.647   2.313   4.053
 7554TIP3   OH222583   7.376   2.512   4.113
 7554TIP3    H122584   7.426   2.504   4.031
 7554TIP3    H222585   7.410   2.592   4.153
 7555TIP3   OH222586   7.367   2.007   3.612
 7555TIP3    H122587   7.283   2.002   3.658
 7555TIP3    H222588   7.351   2.066   3.538
 7556TIP3   OH222589   8.460   3.616   3.103
 7556TIP3    H122590   8.511   3.555   3.049
 7556TIP3    H222591   8.515   3.694   3.110
 7557TIP3   OH222592   7.591   2.084   4.446
 7557TIP3    H122593   7.538   2.074   4.525
 7557TIP3    H222594   7.534   2.128   4.384
 7558TIP3   OH222595   7.634   3.527   4.522
 7558TIP3    H122596   7.539   3.515   4.520
 7558TIP3    H222597   7.657   3.523   4.615
 7559TIP3   OH222598   7.820   3.582   4.062
 7559TIP3    H122599   7.765   3.655   4.032
 7559TIP3    H222600   7.904   3.595   4.017
 7560TIP3   OH222601   8.206   3.799   4.211
 7560TIP3    H122602   8.229   3.811   4.303
 7560TIP3    H222603   8.273   3.847   4.163
 7561TIP3   OH222604   8.397   3.942   4.080
 7561TIP3    H122605   8.470   3.900   4.034
 7561TIP3    H222606   8.439   4.004   4.140
 7562TIP3   OH222607   7.457   3.824   4.080
 7562TIP3    H122608   7.383   3.764   4.085
 7562TIP3    H222609   7.460   3.866   4.166
 7563TIP3   OH222610   7.706   3.815   3.962
 7563TIP3    H122611   7.621   3.816   4.004
 7563TIP3    H222612   7.688   3.831   3.869
 7564TIP3   OH222613   8.101   3.843   3.760
 7564TIP3    H122614   8.030   3.851   3.696
 7564TIP3    H222615   8.113   3.932   3.793
 7565TIP3   OH222616   8.340   3.735   3.824
 7565TIP3    H122617   8.255   3.777   3.817
 7565TIP3    H222618   8.383   3.753   3.740
 7566TIP3   OH222619   8.653   3.950   3.696
 7566TIP3    H122620   8.592   3.984   3.631
 7566TIP3    H222621   8.722   3.909   3.644
 7567TIP3   OH222622   7.389   3.606   3.810
 7567TIP3    H122623   7.380   3.596   3.905
 7567TIP3    H222624   7.471   3.561   3.789
 7568TIP3   OH222625   7.604   3.478   3.695
 7568TIP3    H122626   7.611   3.392   3.739
 7568TIP3    H222627   7.691   3.517   3.706
 7569TIP3   OH222628   7.869   3.577   3.709
 7569TIP3    H122629   7.884   3.484   3.692
 7569TIP3    H222630   7.924   3.597   3.784
 7570TIP3   OH222631   8.399   2.096   3.732
 7570TIP3    H122632   8.327   2.091   3.795
 7570TIP3    H222633   8.478   2.104   3.786
 7571TIP3   OH222634   7.671   1.911   3.794
 7571TIP3    H122635   7.583   1.874   3.804
 7571TIP3    H222636   7.728   1.834   3.787
 7572TIP3   OH222637   7.491   1.818   3.444
 7572TIP3    H122638   7.519   1.871   3.370
 7572TIP3    H222639   7.455   1.882   3.506
 7573TIP3   OH222640   8.110   1.974   3.666
 7573TIP3    H122641   8.164   2.024   3.605
 7573TIP3    H222642   8.137   2.005   3.753
 7574TIP3   OH222643   7.173   3.395   3.217
 7574TIP3    H122644   7.089   3.359   3.188
 7574TIP3    H222645   7.174   3.485   3.182
 7575TIP3   OH222646   7.600   1.957   3.217
 7575TIP3    H122647   7.643   1.897   3.157
 7575TIP3    H222648   7.672   2.009   3.253
 7576TIP3   OH222649   8.103   2.133   3.305
 7576TIP3    H122650   8.166   2.088   3.361
 7576TIP3    H222651   8.107   2.225   3.333
 7577TIP3   OH222652   7.954   3.544   2.806
 7577TIP3    H122653   8.032   3.581   2.765
 7577TIP3    H222654   7.929   3.471   2.749
 7578TIP3   OH222655   7.900   2.194   4.679
 7578TIP3    H122656   7.868   2.127   4.740
 7578TIP3    H222657   7.992   2.205   4.703
 7579TIP3   OH222658   8.141   2.205   4.814
 7579TIP3    H122659   8.222   2.188   4.766
 7579TIP3    H222660   8.137   2.135   4.879
 7580TIP3   OH222661   7.285   3.389   2.865
 7580TIP3    H122662   7.287   3.393   2.960
 7580TIP3    H222663   7.365   3.341   2.841
 7581TIP3   OH222664   8.876   3.804   4.048
 7581TIP3    H122665   8.789   3.767   4.062
 7581TIP3    H222666   8.862   3.879   3.992
 7582TIP3   OH222667   0.811   3.750   5.027
 7582TIP3    H122668   0.772   3.836   5.011
 7582TIP3    H222669   0.738   3.689   5.024
 7583TIP3   OH222670   0.802   3.726   5.475
 7583TIP3    H122671   0.852   3.712   5.556
 7583TIP3    H222672   0.781   3.638   5.444
 7584TIP3   OH222673   0.123   3.519   5.783
 7584TIP3    H122674   0.166   3.463   5.847
 7584TIP3    H222675   0.169   3.603   5.789
 7585TIP3   OH222676   1.109   4.073   5.095
 7585TIP3    H122677   1.173   4.003   5.108
 7585TIP3    H222678   1.129   4.136   5.164
 7586TIP3   OH222679   0.157   4.019   5.486
 7586TIP3    H122680   0.139   3.936   5.530
 7586TIP3    H222681   0.252   4.025   5.482
 7587TIP3   OH222682   8.361   1.577   3.610
 7587TIP3    H122683   8.360   1.649   3.548
 7587TIP3    H222684   8.268   1.562   3.630
 7588TIP3   OH222685   8.855   3.553   5.384
 7588TIP3    H122686   8.795   3.514   5.447
 7588TIP3    H222687   8.838   3.505   5.303
 7589TIP3   OH222688   0.772   4.450   5.164
 7589TIP3    H122689   0.784   4.391   5.090
 7589TIP3    H222690   0.797   4.399   5.241
 7590TIP3   OH222691   0.679   3.972   5.454
 7590TIP3    H122692   0.711   3.884   5.434
 7590TIP3    H222693   0.757   4.023   5.474
 7591TIP3   OH222694   1.673   3.271   5.482
 7591TIP3    H122695   1.682   3.358   5.522
 7591TIP3    H222696   1.707   3.282   5.393
 7592TIP3   OH222697   1.056   3.460   5.538
 7592TIP3    H122698   1.071   3.366   5.528
 7592TIP3    H222699   1.079   3.498   5.454
 7593TIP3   OH222700   0.416   3.118   5.457
 7593TIP3    H122701   0.417   3.196   5.402
 7593TIP3    H222702   0.358   3.057   5.410
 7594TIP3   OH222703   1.099   3.199   5.093
 7594TIP3    H122704   1.163   3.198   5.163
 7594TIP3    H222705   1.145   3.238   5.019
 7595TIP3   OH222706   0.023   3.225   5.576
 7595TIP3    H122707   0.091   3.292   5.571
 7595TIP3    H222708   0.009   3.198   5.486
 7596TIP3   OH222709   0.502   3.533   5.392
 7596TIP3    H122710   0.595   3.514   5.406
 7596TIP3    H222711   0.467   3.452   5.355
 7597TIP3   OH222712   1.714   3.493   5.653
 7597TIP3    H122713   1.637   3.545   5.631
 7597TIP3    H222714   1.756   3.541   5.724
 7598TIP3   OH222715   0.417   3.091   5.914
 7598TIP3    H122716   0.367   3.127   5.841
 7598TIP3    H222717   0.371   3.122   5.992
 7599TIP3   OH222718   0.674   3.969   4.925
 7599TIP3    H122719   0.670   3.972   4.829
 7599TIP3    H222720   0.620   4.042   4.953
 7600TIP3   OH222721   0.566   3.873   5.681
 7600TIP3    H122722   0.489   3.927   5.697
 7600TIP3    H222723   0.610   3.914   5.607
 7601TIP3   OH222724   1.257   3.221   5.317
 7601TIP3    H122725   1.207   3.208   5.398
 7601TIP3    H222726   1.310   3.299   5.334
 7602TIP3   OH222727   0.299   3.201   5.695
 7602TIP3    H122728   0.343   3.285   5.700
 7602TIP3    H222729   0.333   3.161   5.614
 7603TIP3   OH222730   0.333   4.001   5.720
 7603TIP3    H122731   0.321   4.077   5.663
 7603TIP3    H222732   0.296   4.027   5.804
 7604TIP3   OH222733   1.129   4.303   5.272
 7604TIP3    H122734   1.037   4.289   5.294
 7604TIP3    H222735   1.131   4.388   5.228
 7605TIP3   OH222736   1.475   3.147   5.643
 7605TIP3    H122737   1.391   3.180   5.613
 7605TIP3    H222738   1.538   3.181   5.579
 7606TIP3   OH222739   0.737   2.793   5.630
 7606TIP3    H122740   0.728   2.701   5.655
 7606TIP3    H222741   0.664   2.837   5.672
 7607TIP3   OH222742   0.825   4.312   4.929
 7607TIP3    H122743   0.871   4.230   4.911
 7607TIP3    H222744   0.887   4.380   4.905
 7608TIP3   OH222745   0.982   4.102   4.855
 7608TIP3    H122746   0.997   4.021   4.807
 7608TIP3    H222747   1.026   4.089   4.939
 7609TIP3   OH222748   1.375   4.169   5.602
 7609TIP3    H122749   1.357   4.097   5.542
 7609TIP3    H222750   1.360   4.248   5.551
 7610TIP3   OH222751   0.653   3.560   4.875
 7610TIP3    H122752   0.581   3.619   4.853
 7610TIP3    H222753   0.715   3.570   4.803
 7611TIP3   OH222754   0.646   3.398   4.561
 7611TIP3    H122755   0.708   3.447   4.615
 7611TIP3    H222756   0.698   3.329   4.521
 7612TIP3   OH222757   1.541   3.840   5.500
 7612TIP3    H122758   1.459   3.887   5.482
 7612TIP3    H222759   1.583   3.833   5.415
 7613TIP3   OH222760   1.012   3.678   4.860
 7613TIP3    H122761   0.947   3.706   4.924
 7613TIP3    H222762   1.086   3.648   4.913
 7614TIP3   OH222763   1.233   3.699   5.792
 7614TIP3    H122764   1.232   3.784   5.838
 7614TIP3    H222765   1.150   3.697   5.744
 7615TIP3   OH222766   0.280   3.648   5.265
 7615TIP3    H122767   0.253   3.585   5.198
 7615TIP3    H222768   0.361   3.611   5.301
 7616TIP3   OH222769   0.422   4.043   5.404
 7616TIP3    H122770   0.407   3.988   5.327
 7616TIP3    H222771   0.513   4.026   5.428
 7617TIP3   OH222772   0.411   3.657   5.616
 7617TIP3    H122773   0.442   3.613   5.536
 7617TIP3    H222774   0.478   3.723   5.634
 7618TIP3   OH222775   0.873   4.286   5.382
 7618TIP3    H122776   0.895   4.361   5.438
 7618TIP3    H222777   0.887   4.209   5.438
 7619TIP3   OH222778   0.622   4.170   5.970
 7619TIP3    H122779   0.616   4.236   6.039
 7619TIP3    H222780   0.545   4.184   5.916
 7620TIP3   OH222781   0.855   3.539   4.682
 7620TIP3    H122782   0.915   3.594   4.733
 7620TIP3    H222783   0.888   3.545   4.592
 7621TIP3   OH222784   0.283   3.705   6.079
 7621TIP3    H122785   0.313   3.789   6.115
 7621TIP3    H222786   0.262   3.725   5.987
 7622TIP3   OH222787   0.552   4.233   4.985
 7622TIP3    H122788   0.646   4.251   4.982
 7622TIP3    H222789   0.517   4.281   4.910
 7623TIP3   OH222790   0.336   4.413   6.001
 7623TIP3    H122791   0.367   4.373   5.920
 7623TIP3    H222792   0.305   4.340   6.054
 7624TIP3   OH222793   1.354   2.760   4.734
 7624TIP3    H122794   1.278   2.781   4.789
 7624TIP3    H222795   1.365   2.837   4.678
 7625TIP3   OH222796   0.128   3.470   5.054
 7625TIP3    H122797   0.070   3.524   5.000
 7625TIP3    H222798   0.069   3.425   5.114
 7626TIP3   OH222799   1.179   4.131   4.297
 7626TIP3    H122800   1.174   4.224   4.276
 7626TIP3    H222801   1.268   4.105   4.271
 7627TIP3   OH222802   1.589   4.547   5.678
 7627TIP3    H122803   1.606   4.453   5.686
 7627TIP3    H222804   1.514   4.563   5.736
 7628TIP3   OH222805   0.749   4.326   5.779
 7628TIP3    H122806   0.741   4.412   5.818
 7628TIP3    H222807   0.721   4.265   5.848
 7629TIP3   OH222808   0.481   4.402   4.773
 7629TIP3    H122809   0.430   4.397   4.693
 7629TIP3    H222810   0.473   4.493   4.801
 7630TIP3   OH222811   0.706   4.355   4.393
 7630TIP3    H122812   0.755   4.278   4.363
 7630TIP3    H222813   0.738   4.370   4.482
 7631TIP3   OH222814   0.736   4.403   4.663
 7631TIP3    H122815   0.649   4.397   4.704
 7631TIP3    H222816   0.795   4.362   4.727
 7632TIP3   OH222817   1.469   3.670   5.971
 7632TIP3    H122818   1.398   3.676   5.908
 7632TIP3    H222819   1.497   3.578   5.966
 7633TIP3   OH222820   0.207   4.078   5.953
 7633TIP3    H122821   0.264   4.036   6.017
 7633TIP3    H222822   0.140   4.122   6.005
 7634TIP3   OH222823   0.514   2.884   5.761
 7634TIP3    H122824   0.431   2.854   5.725
 7634TIP3    H222825   0.492   2.962   5.812
 7635TIP3   OH222826   1.029   3.011   5.970
 7635TIP3    H122827   1.097   2.986   6.031
 7635TIP3    H222828   0.947   2.992   6.015
 7636TIP3   OH222829   1.256   3.430   5.875
 7636TIP3    H122830   1.215   3.425   5.961
 7636TIP3    H222831   1.232   3.516   5.841
 7637TIP3   OH222832   0.930   3.517   4.419
 7637TIP3    H122833   0.884   3.517   4.334
 7637TIP3    H222834   1.012   3.563   4.401
 7638TIP3   OH222835   0.626   2.938   4.730
 7638TIP3    H122836   0.600   2.938   4.822
 7638TIP3    H222837   0.600   2.852   4.698
 7639TIP3   OH222838   0.451   3.423   5.755
 7639TIP3    H122839   0.414   3.437   5.842
 7639TIP3    H222840   0.426   3.501   5.706
 7640TIP3   OH222841   0.394   3.320   5.269
 7640TIP3    H122842   0.299   3.310   5.277
 7640TIP3    H222843   0.414   3.284   5.183
 7641TIP3   OH222844   0.781   3.365   5.013
 7641TIP3    H122845   0.733   3.438   4.974
 7641TIP3    H222846   0.843   3.338   4.945
 7642TIP3   OH222847   0.994   3.636   6.095
 7642TIP3    H122848   0.968   3.569   6.159
 7642TIP3    H222849   1.087   3.652   6.112
 7643TIP3   OH222850   0.925   3.361   5.250
 7643TIP3    H122851   0.870   3.383   5.175
 7643TIP3    H222852   0.994   3.305   5.212
 7644TIP3   OH222853   0.329   3.450   5.995
 7644TIP3    H122854   0.305   3.523   6.052
 7644TIP3    H222855   0.316   3.372   6.048
 7645TIP3   OH222856   0.296   2.908   4.708
 7645TIP3    H122857   0.287   2.896   4.802
 7645TIP3    H222858   0.206   2.902   4.675
 7646TIP3   OH222859   8.805   2.888   5.620
 7646TIP3    H122860   8.774   2.898   5.709
 7646TIP3    H222861   8.900   2.903   5.626
 7647TIP3   OH222862   8.682   2.942   5.101
 7647TIP3    H122863   8.711   2.946   5.010
 7647TIP3    H222864   8.649   3.030   5.120
 7648TIP3   OH222865   0.956   3.645   5.702
 7648TIP3    H122866   0.993   3.589   5.634
 7648TIP3    H222867   0.931   3.585   5.772
 7649TIP3   OH222868   0.678   3.081   5.346
 7649TIP3    H122869   0.603   3.091   5.405
 7649TIP3    H222870   0.754   3.083   5.404
 7650TIP3   OH222871   0.138   3.241   5.294
 7650TIP3    H122872   0.080   3.234   5.218
 7650TIP3    H222873   0.165   3.151   5.312
 7651TIP3   OH222874   0.337   3.153   5.045
 7651TIP3    H122875   0.433   3.158   5.048
 7651TIP3    H222876   0.314   3.181   4.956
 7652TIP3   OH222877   1.107   3.185   5.552
 7652TIP3    H122878   1.089   3.204   5.644
 7652TIP3    H222879   1.037   3.125   5.525
 7653TIP3   OH222880   0.257   3.181   4.790
 7653TIP3    H122881   0.261   3.099   4.741
 7653TIP3    H222882   0.307   3.243   4.739
 7654TIP3   OH222883   1.320   4.888   5.779
 7654TIP3    H122884   1.316   4.894   5.683
 7654TIP3    H222885   1.401   4.933   5.803
 7655TIP3   OH222886   0.344   3.961   6.163
 7655TIP3    H122887   0.425   4.001   6.195
 7655TIP3    H222888   0.305   3.921   6.240
 7656TIP3   OH222889   0.757   3.453   5.448
 7656TIP3    H122890   0.824   3.418   5.389
 7656TIP3    H222891   0.764   3.400   5.527
 7657TIP3   OH222892   0.224   2.971   5.317
 7657TIP3    H122893   0.211   2.891   5.369
 7657TIP3    H222894   0.243   2.939   5.229
 7658TIP3   OH222895   0.713   3.345   5.712
 7658TIP3    H122896   0.624   3.380   5.722
 7658TIP3    H222897   0.767   3.400   5.769
 7659TIP3   OH222898   0.443   3.730   4.822
 7659TIP3    H122899   0.362   3.680   4.816
 7659TIP3    H222900   0.446   3.762   4.912
 7660TIP3   OH222901   1.301   3.961   5.437
 7660TIP3    H122902   1.321   3.944   5.345
 7660TIP3    H222903   1.212   3.927   5.449
 7661TIP3   OH222904   0.883   3.035   4.738
 7661TIP3    H122905   0.788   3.020   4.732
 7661TIP3    H222906   0.891   3.130   4.749
 7662TIP3   OH222907   0.861   4.030   5.825
 7662TIP3    H122908   0.919   4.015   5.900
 7662TIP3    H222909   0.776   4.052   5.865
 7663TIP3   OH222910   0.944   3.297   4.798
 7663TIP3    H122911   1.039   3.293   4.813
 7663TIP3    H222912   0.931   3.380   4.753
 7664TIP3   OH222913   0.171   3.737   5.508
 7664TIP3    H122914   0.194   3.713   5.418
 7664TIP3    H222915   0.244   3.703   5.561
 7665TIP3   OH222916   0.604   3.864   4.637
 7665TIP3    H122917   0.566   3.952   4.646
 7665TIP3    H222918   0.555   3.811   4.700
 7666TIP3   OH222919   0.764   3.770   6.163
 7666TIP3    H122920   0.692   3.719   6.126
 7666TIP3    H222921   0.843   3.736   6.121
 7667TIP3   OH222922   1.014   4.350   5.716
 7667TIP3    H122923   0.922   4.326   5.715
 7667TIP3    H222924   1.029   4.384   5.804
 7668TIP3   OH222925   1.352   3.391   4.622
 7668TIP3    H122926   1.297   3.344   4.560
 7668TIP3    H222927   1.358   3.480   4.587
 7669TIP3   OH222928   1.617   4.268   5.692
 7669TIP3    H122929   1.524   4.244   5.687
 7669TIP3    H222930   1.654   4.235   5.610
 7670TIP3   OH222931   1.089   4.210   4.554
 7670TIP3    H122932   1.073   4.141   4.619
 7670TIP3    H222933   1.118   4.164   4.476
 7671TIP3   OH222934   1.057   3.833   5.430
 7671TIP3    H122935   0.965   3.812   5.416
 7671TIP3    H222936   1.105   3.762   5.387
 7672TIP3   OH222937   0.288   4.008   4.943
 7672TIP3    H122938   0.286   4.075   5.010
 7672TIP3    H222939   0.234   3.937   4.978
 7673TIP3   OH222940   8.654   3.364   4.891
 7673TIP3    H122941   8.726   3.425   4.901
 7673TIP3    H222942   8.595   3.405   4.828
 7674TIP3   OH222943   0.438   3.808   5.089
 7674TIP3    H122944   0.397   3.889   5.055
 7674TIP3    H222945   0.372   3.771   5.147
 7675TIP3   OH222946   0.573   4.388   5.585
 7675TIP3    H122947   0.614   4.462   5.540
 7675TIP3    H222948   0.642   4.353   5.642
 7676TIP3   OH222949   0.136   4.341   4.913
 7676TIP3    H122950   0.102   4.333   5.002
 7676TIP3    H222951   0.206   4.406   4.919
 7677TIP3   OH222952   0.919   4.064   5.550
 7677TIP3    H122953   0.910   4.051   5.645
 7677TIP3    H222954   0.983   3.998   5.523
 7678TIP3   OH222955   0.864   3.935   4.484
 7678TIP3    H122956   0.927   3.921   4.554
 7678TIP3    H222957   0.780   3.909   4.522
 7679TIP3   OH222958   1.140   4.589   5.634
 7679TIP3    H122959   1.078   4.516   5.634
 7679TIP3    H222960   1.125   4.634   5.551
 7680TIP3   OH222961   1.176   4.404   4.255
 7680TIP3    H122962   1.201   4.468   4.188
 7680TIP3    H222963   1.104   4.446   4.302
 7681TIP3   OH222964   0.267   3.209   6.115
 7681TIP3    H122965   0.195   3.223   6.053
 7681TIP3    H222966   0.234   3.143   6.176
 7682TIP3   OH222967   1.050   3.887   4.683
 7682TIP3    H122968   1.033   3.815   4.744
 7682TIP3    H222969   1.144   3.882   4.665
 7683TIP3   OH222970   0.244   3.864   4.431
 7683TIP3    H122971   0.289   3.781   4.444
 7683TIP3    H222972   0.215   3.890   4.519
 7684TIP3   OH222973   0.201   3.926   4.694
 7684TIP3    H122974   0.257   3.910   4.770
 7684TIP3    H222975   0.205   4.021   4.681
 7685TIP3   OH222976   8.816   3.598   4.920
 7685TIP3    H122977   8.746   3.612   4.983
 7685TIP3    H222978   8.822   3.681   4.872
 7686TIP3   OH222979   1.060   3.239   5.819
 7686TIP3    H122980   1.142   3.280   5.845
 7686TIP3    H222981   1.053   3.161   5.874
 7687TIP3   OH222982   0.946   2.985   5.005
 7687TIP3    H122983   0.926   3.006   4.914
 7687TIP3    H222984   0.991   3.063   5.038
 7688TIP3   OH222985   0.494   4.107   4.675
 7688TIP3    H122986   0.408   4.120   4.715
 7688TIP3    H222987   0.504   4.182   4.616
 7689TIP3   OH222988   0.605   3.175   5.097
 7689TIP3    H122989   0.666   3.243   5.066
 7689TIP3    H222990   0.634   3.156   5.186
 7690TIP3   OH222991   0.898   3.456   5.889
 7690TIP3    H122992   0.937   3.499   5.965
 7690TIP3    H222993   0.952   3.379   5.874
 7691TIP3   OH222994   0.767   2.873   5.183
 7691TIP3    H122995   0.745   2.948   5.237
 7691TIP3    H222996   0.836   2.905   5.125
 7692TIP3   OH222997   0.224   4.198   4.694
 7692TIP3    H122998   0.212   4.264   4.625
 7692TIP3    H222999   0.205   4.245   4.775
 7693TIP3   OH223000   0.286   2.890   4.987
 7693TIP3    H123001   0.287   2.982   5.012
 7693TIP3    H223002   0.377   2.862   4.993
 7694TIP3   OH223003   1.527   3.413   5.873
 7694TIP3    H123004   1.432   3.399   5.869
 7694TIP3    H223005   1.554   3.413   5.781
 7695TIP3   OH223006   1.152   3.590   5.320
 7695TIP3    H123007   1.130   3.584   5.227
 7695TIP3    H223008   1.241   3.557   5.326
 7696TIP3   OH223009   8.855   3.828   4.776
 7696TIP3    H123010   8.928   3.862   4.724
 7696TIP3    H223011   8.791   3.798   4.711
 7697TIP3   OH223012   8.725   3.071   4.863
 7697TIP3    H123013   8.765   3.145   4.817
 7697TIP3    H223014   8.644   3.054   4.814
 7698TIP3   OH223015   1.160   4.568   5.189
 7698TIP3    H123016   1.115   4.622   5.124
 7698TIP3    H223017   1.253   4.588   5.176
 7699TIP3   OH223018   0.260   2.803   5.701
 7699TIP3    H123019   0.233   2.765   5.617
 7699TIP3    H223020   0.256   2.730   5.763
 7700TIP3   OH223021   0.449   4.469   6.250
 7700TIP3    H123022   0.505   4.545   6.265
 7700TIP3    H223023   0.424   4.475   6.158
 7701TIP3   OH223024   0.403   4.079   4.357
 7701TIP3    H123025   0.342   4.014   4.391
 7701TIP3    H223026   0.477   4.027   4.325
 7702TIP3   OH223027   1.042   4.443   5.974
 7702TIP3    H123028   1.049   4.367   6.033
 7702TIP3    H223029   1.119   4.496   5.995
 7703TIP3   OH223030   0.820   4.131   4.288
 7703TIP3    H123031   0.852   4.069   4.353
 7703TIP3    H223032   0.884   4.126   4.217
 7704TIP3   OH223033   0.074   3.588   4.590
 7704TIP3    H123034   0.116   3.570   4.674
 7704TIP3    H223035   0.147   3.596   4.528
 7705TIP3   OH223036   0.716   4.036   6.190
 7705TIP3    H123037   0.692   4.063   6.101
 7705TIP3    H223038   0.748   3.947   6.181
 7706TIP3   OH223039   0.558   3.810   4.372
 7706TIP3    H123040   0.572   3.820   4.467
 7706TIP3    H223041   0.563   3.716   4.357
 7707TIP3   OH223042   1.165   4.122   5.774
 7707TIP3    H123043   1.241   4.139   5.718
 7707TIP3    H223044   1.101   4.189   5.749
 7708TIP3   OH223045   0.269   3.822   6.381
 7708TIP3    H123046   0.206   3.754   6.359
 7708TIP3    H223047   0.326   3.781   6.446
 7709TIP3   OH223048   0.239   3.530   4.801
 7709TIP3    H123049   0.231   3.493   4.889
 7709TIP3    H223050   0.297   3.470   4.754
 7710TIP3   OH223051   0.573   3.614   6.042
 7710TIP3    H123052   0.480   3.623   6.023
 7710TIP3    H223053   0.617   3.641   5.961
 7711TIP3   OH223054   0.387   3.360   4.639
 7711TIP3    H123055   0.353   3.348   4.551
 7711TIP3    H223056   0.480   3.375   4.628
 7712TIP3   OH223057   1.036   3.984   6.111
 7712TIP3    H123058   1.110   3.955   6.057
 7712TIP3    H223059   1.041   3.928   6.189
 7713TIP3   OH223060   1.144   3.653   4.311
 7713TIP3    H123061   1.134   3.611   4.226
 7713TIP3    H223062   1.114   3.743   4.297
 7714TIP3   OH223063   0.661   3.374   6.139
 7714TIP3    H123064   0.667   3.306   6.072
 7714TIP3    H223065   0.633   3.452   6.091
 7715TIP3   OH223066   0.671   3.183   5.937
 7715TIP3    H123067   0.698   3.221   5.853
 7715TIP3    H223068   0.581   3.155   5.923
 7716TIP3   OH223069   0.713   3.711   5.835
 7716TIP3    H123070   0.800   3.709   5.795
 7716TIP3    H223071   0.663   3.773   5.781
 7717TIP3   OH223072   1.259   3.668   6.188
 7717TIP3    H123073   1.293   3.579   6.203
 7717TIP3    H223074   1.330   3.712   6.141
 7718TIP3   OH223075   1.266   3.941   5.944
 7718TIP3    H123076   1.219   4.005   5.891
 7718TIP3    H223077   1.357   3.948   5.915
 7719TIP3   OH223078   0.523   3.439   6.367
 7719TIP3    H123079   0.460   3.369   6.380
 7719TIP3    H223080   0.560   3.422   6.280
 7720TIP3   OH223081   0.766   2.950   6.048
 7720TIP3    H123082   0.733   3.030   6.008
 7720TIP3    H223083   0.697   2.885   6.033
 7721TIP3   OH223084   0.905   3.429   6.253
 7721TIP3    H123085   0.890   3.416   6.347
 7721TIP3    H223086   0.822   3.405   6.212
 7722TIP3   OH223087   1.144   3.381   6.116
 7722TIP3    H123088   1.066   3.381   6.172
 7722TIP3    H223089   1.216   3.359   6.176
 7723TIP3   OH223090   1.367   3.351   6.277
 7723TIP3    H123091   1.382   3.256   6.283
 7723TIP3    H223092   1.365   3.380   6.368
 7724TIP3   OH223093   0.368   3.236   6.463
 7724TIP3    H123094   0.378   3.147   6.429
 7724TIP3    H223095   0.400   3.231   6.553
 7725TIP3   OH223096   0.842   2.942   6.307
 7725TIP3    H123097   0.908   2.873   6.299
 7725TIP3    H223098   0.805   2.950   6.219
 7726TIP3   OH223099   0.938   3.154   6.453
 7726TIP3    H123100   0.912   3.083   6.393
 7726TIP3    H223101   0.863   3.214   6.451
 7727TIP3   OH223102   0.232   4.449   4.557
 7727TIP3    H123103   0.315   4.410   4.528
 7727TIP3    H223104   0.212   4.515   4.492
 7728TIP3   OH223105   1.417   4.661   5.174
 7728TIP3    H123106   1.454   4.654   5.262
 7728TIP3    H223107   1.493   4.660   5.116
 7729TIP3   OH223108   1.450   4.632   5.455
 7729TIP3    H123109   1.401   4.550   5.447
 7729TIP3    H223110   1.518   4.614   5.520
 7730TIP3   OH223111   1.495   4.338   6.047
 7730TIP3    H123112   1.426   4.348   6.113
 7730TIP3    H223113   1.540   4.423   6.047
 7731TIP3   OH223114   1.324   3.858   4.648
 7731TIP3    H123115   1.381   3.928   4.615
 7731TIP3    H223116   1.368   3.825   4.725
 7732TIP3   OH223117   1.452   3.741   4.868
 7732TIP3    H123118   1.398   3.774   4.941
 7732TIP3    H223119   1.542   3.763   4.894
 7733TIP3   OH223120   1.516   4.109   5.245
 7733TIP3    H123121   1.476   4.029   5.211
 7733TIP3    H223122   1.465   4.180   5.206
 7734TIP3   OH223123   1.298   4.399   5.469
 7734TIP3    H123124   1.231   4.434   5.528
 7734TIP3    H223125   1.249   4.360   5.397
 7735TIP3   OH223126   1.349   3.633   4.492
 7735TIP3    H123127   1.277   3.636   4.429
 7735TIP3    H223128   1.338   3.711   4.546
 7736TIP3   OH223129   1.200   3.277   4.423
 7736TIP3    H123130   1.155   3.309   4.344
 7736TIP3    H223131   1.197   3.182   4.415
 7737TIP3   OH223132   1.212   3.606   5.040
 7737TIP3    H123133   1.293   3.558   5.025
 7737TIP3    H223134   1.240   3.690   5.076
 7738TIP3   OH223135   8.759   3.481   5.766
 7738TIP3    H123136   8.732   3.571   5.785
 7738TIP3    H223137   8.855   3.484   5.764
 7739TIP3   OH223138   1.517   3.986   5.836
 7739TIP3    H123139   1.584   3.920   5.820
 7739TIP3    H223140   1.514   4.038   5.756
 7740TIP3   OH223141   1.692   3.774   5.837
 7740TIP3    H123142   1.620   3.736   5.887
 7740TIP3    H223143   1.768   3.720   5.860
 7741TIP3   OH223144   1.169   3.004   4.390
 7741TIP3    H123145   1.236   2.981   4.455
 7741TIP3    H223146   1.088   2.967   4.425
 7742TIP3   OH223147   1.221   3.270   4.846
 7742TIP3    H123148   1.274   3.192   4.861
 7742TIP3    H223149   1.270   3.320   4.781
 7743TIP3   OH223150   1.393   3.458   5.387
 7743TIP3    H123151   1.473   3.479   5.337
 7743TIP3    H223152   1.407   3.499   5.472
 7744TIP3   OH223153   1.458   3.609   5.621
 7744TIP3    H123154   1.378   3.635   5.667
 7744TIP3    H223155   1.488   3.689   5.578
 7745TIP3   OH223156   0.096   3.303   6.442
 7745TIP3    H123157   0.185   3.273   6.464
 7745TIP3    H223158   0.043   3.223   6.445
 7746TIP3   OH223159   1.923   3.203   6.155
 7746TIP3    H123160   1.990   3.151   6.111
 7746TIP3    H223161   1.883   3.255   6.086
 7747TIP3   OH223162   1.360   3.037   4.912
 7747TIP3    H123163   1.404   3.027   4.997
 7747TIP3    H223164   1.295   2.967   4.911
 7748TIP3   OH223165   0.102   3.002   5.794
 7748TIP3    H123166   0.159   2.926   5.782
 7748TIP3    H223167   0.143   3.071   5.741
 7749TIP3   OH223168   8.761   3.210   5.790
 7749TIP3    H123169   8.815   3.201   5.712
 7749TIP3    H223170   8.736   3.302   5.792
 7750TIP3   OH223171   1.771   3.321   5.962
 7750TIP3    H123172   1.688   3.367   5.971
 7750TIP3    H223173   1.752   3.246   5.906
 7751TIP3   OH223174   1.392   2.962   4.549
 7751TIP3    H123175   1.442   2.901   4.495
 7751TIP3    H223176   1.448   3.039   4.558
 7752TIP3   OH223177   8.830   2.800   5.288
 7752TIP3    H123178   8.763   2.785   5.356
 7752TIP3    H223179   8.784   2.850   5.221
 7753TIP3   OH223180   0.977   4.521   4.832
 7753TIP3    H123181   1.024   4.505   4.751
 7753TIP3    H223182   1.035   4.578   4.883
 7754TIP3   OH223183   0.065   2.828   6.134
 7754TIP3    H123184   0.099   2.892   6.197
 7754TIP3    H223185  -0.000   2.876   6.083
 7755TIP3   OH223186   0.299   4.499   5.715
 7755TIP3    H123187   0.219   4.550   5.726
 7755TIP3    H223188   0.277   4.435   5.646
 7756TIP3   OH223189   0.742   4.583   5.868
 7756TIP3    H123190   0.781   4.574   5.955
 7756TIP3    H223191   0.807   4.632   5.818
 7757TIP3   OH223192   0.927   4.742   5.744
 7757TIP3    H123193   0.999   4.690   5.708
 7757TIP3    H223194   0.970   4.801   5.806
 7758TIP3   OH223195   1.679   3.086   5.845
 7758TIP3    H123196   1.600   3.095   5.790
 7758TIP3    H223197   1.704   2.994   5.835
 7759TIP3   OH223198   0.062   4.628   5.716
 7759TIP3    H123199  -0.026   4.643   5.750
 7759TIP3    H223200   0.066   4.679   5.635
 7760TIP3   OH223201   0.658   4.601   5.436
 7760TIP3    H123202   0.626   4.607   5.347
 7760TIP3    H223203   0.659   4.691   5.468
 7761TIP3   OH223204   0.916   4.539   5.477
 7761TIP3    H123205   0.823   4.556   5.463
 7761TIP3    H223206   0.961   4.612   5.435
 7762TIP3   OH223207   1.095   4.738   5.395
 7762TIP3    H123208   1.084   4.822   5.351
 7762TIP3    H223209   1.122   4.678   5.325
 7763TIP3   OH223210  -0.013   4.201   5.371
 7763TIP3    H123211   0.047   4.131   5.397
 7763TIP3    H223212   0.032   4.246   5.299
 7764TIP3   OH223213   0.435   4.322   5.362
 7764TIP3    H123214   0.432   4.226   5.354
 7764TIP3    H223215   0.494   4.337   5.436
 7765TIP3   OH223216   0.900   2.999   5.493
 7765TIP3    H123217   0.857   2.925   5.536
 7765TIP3    H223218   0.967   2.958   5.438
 7766TIP3   OH223219   1.396   2.912   5.370
 7766TIP3    H123220   1.438   2.962   5.299
 7766TIP3    H223221   1.308   2.950   5.377
 7767TIP3   OH223222   1.516   2.992   5.137
 7767TIP3    H123223   1.584   2.932   5.109
 7767TIP3    H223224   1.554   3.079   5.125
 7768TIP3   OH223225   0.174   2.728   5.444
 7768TIP3    H123226   0.086   2.717   5.409
 7768TIP3    H223227   0.208   2.639   5.455
 7769TIP3   OH223228   8.877   2.596   5.112
 7769TIP3    H123229   8.899   2.625   5.023
 7769TIP3    H223230   8.880   2.676   5.164
 7770TIP3   OH223231   0.612   2.739   5.378
 7770TIP3    H123232   0.660   2.782   5.308
 7770TIP3    H223233   0.655   2.767   5.459
 7771TIP3   OH223234   1.103   2.878   5.353
 7771TIP3    H123235   1.130   2.846   5.267
 7771TIP3    H223236   1.111   2.802   5.410
 7772TIP3   OH223237   1.166   2.836   4.921
 7772TIP3    H123238   1.088   2.885   4.946
 7772TIP3    H223239   1.154   2.749   4.960
 7773TIP3   OH223240   0.081   2.728   4.891
 7773TIP3    H123241   0.128   2.665   4.836
 7773TIP3    H223242   0.150   2.779   4.933
 7774TIP3   OH223243   0.562   2.924   4.997
 7774TIP3    H123244   0.620   2.869   5.050
 7774TIP3    H223245   0.580   3.013   5.027
 7775TIP3   OH223246   0.452   4.316   4.484
 7775TIP3    H123247   0.536   4.341   4.445
 7775TIP3    H223248   0.426   4.238   4.435
 7776TIP3   OH223249   1.120   4.477   4.599
 7776TIP3    H123250   1.115   4.382   4.589
 7776TIP3    H223251   1.082   4.511   4.518
 7777TIP3   OH223252   0.411   2.963   6.415
 7777TIP3    H123253   0.378   2.891   6.469
 7777TIP3    H223254   0.504   2.970   6.439
 7778TIP3   OH223255   0.669   2.974   6.519
 7778TIP3    H123256   0.725   2.975   6.441
 7778TIP3    H223257   0.696   2.896   6.567
 7779TIP3   OH223258   1.431   3.081   6.279
 7779TIP3    H123259   1.451   3.051   6.367
 7779TIP3    H223260   1.515   3.075   6.232
 7780TIP3   OH223261   1.353   4.615   5.805
 7780TIP3    H123262   1.282   4.589   5.747
 7780TIP3    H223263   1.350   4.710   5.807
 7781TIP3   OH223264   1.941   3.911   5.259
 7781TIP3    H123265   1.985   3.855   5.322
 7781TIP3    H223266   2.010   3.967   5.224
 7782TIP3   OH223267   1.964   4.257   4.988
 7782TIP3    H123268   1.919   4.175   4.966
 7782TIP3    H223269   2.041   4.229   5.037
 7783TIP3   OH223270   1.576   3.486   4.774
 7783TIP3    H123271   1.544   3.569   4.807
 7783TIP3    H223272   1.501   3.447   4.728
 7784TIP3   OH223273   1.703   3.788   4.964
 7784TIP3    H123274   1.737   3.711   5.012
 7784TIP3    H223275   1.782   3.836   4.937
 7785TIP3   OH223276   2.531   4.745   4.622
 7785TIP3    H123277   2.565   4.673   4.568
 7785TIP3    H223278   2.503   4.704   4.703
 7786TIP3   OH223279   3.486   3.522   4.967
 7786TIP3    H123280   3.486   3.605   5.014
 7786TIP3    H223281   3.537   3.539   4.887
 7787TIP3   OH223282   2.873   3.740   4.963
 7787TIP3    H123283   2.880   3.649   4.990
 7787TIP3    H223284   2.837   3.737   4.874
 7788TIP3   OH223285   2.175   3.374   4.931
 7788TIP3    H123286   2.154   3.453   4.881
 7788TIP3    H223287   2.120   3.305   4.892
 7789TIP3   OH223288   2.876   3.506   4.609
 7789TIP3    H123289   2.939   3.474   4.674
 7789TIP3    H223290   2.904   3.465   4.527
 7790TIP3   OH223291   1.813   3.559   5.075
 7790TIP3    H123292   1.899   3.546   5.115
 7790TIP3    H223293   1.817   3.512   4.992
 7791TIP3   OH223294   3.463   3.752   5.113
 7791TIP3    H123295   3.389   3.813   5.110
 7791TIP3    H223296   3.523   3.790   5.178
 7792TIP3   OH223297   2.164   3.360   5.401
 7792TIP3    H123298   2.122   3.397   5.324
 7792TIP3    H223299   2.107   3.384   5.474
 7793TIP3   OH223300   2.529   4.222   4.427
 7793TIP3    H123301   2.477   4.141   4.425
 7793TIP3    H223302   2.465   4.292   4.437
 7794TIP3   OH223303   3.051   3.448   4.822
 7794TIP3    H123304   2.989   3.442   4.895
 7794TIP3    H223305   3.107   3.522   4.844
 7795TIP3   OH223306   2.058   3.459   5.166
 7795TIP3    H123307   2.116   3.532   5.191
 7795TIP3    H223308   2.099   3.422   5.088
 7796TIP3   OH223309   1.487   4.050   4.523
 7796TIP3    H123310   1.458   4.073   4.435
 7796TIP3    H223311   1.514   4.134   4.562
 7797TIP3   OH223312   3.260   3.412   5.118
 7797TIP3    H123313   3.178   3.450   5.087
 7797TIP3    H223314   3.325   3.440   5.054
 7798TIP3   OH223315   2.501   3.052   5.124
 7798TIP3    H123316   2.495   2.962   5.155
 7798TIP3    H223317   2.427   3.097   5.166
 7799TIP3   OH223318   2.639   4.573   4.428
 7799TIP3    H123319   2.690   4.493   4.417
 7799TIP3    H223320   2.696   4.643   4.395
 7800TIP3   OH223321   2.769   4.336   4.373
 7800TIP3    H123322   2.802   4.283   4.301
 7800TIP3    H223323   2.689   4.292   4.401
 7801TIP3   OH223324   2.490   3.880   4.373
 7801TIP3    H123325   2.399   3.907   4.363
 7801TIP3    H223326   2.518   3.860   4.284
 7802TIP3   OH223327   2.402   3.654   4.061
 7802TIP3    H123328   2.467   3.705   4.108
 7802TIP3    H223329   2.450   3.577   4.030
 7803TIP3   OH223330   2.790   3.931   4.326
 7803TIP3    H123331   2.718   3.938   4.389
 7803TIP3    H223332   2.862   3.892   4.376
 7804TIP3   OH223333   3.025   3.951   5.275
 7804TIP3    H123334   3.038   4.038   5.314
 7804TIP3    H223335   2.942   3.958   5.229
 7805TIP3   OH223336   2.041   3.894   4.703
 7805TIP3    H123337   1.998   3.835   4.640
 7805TIP3    H223338   2.088   3.836   4.762
 7806TIP3   OH223339   2.323   4.389   5.406
 7806TIP3    H123340   2.237   4.424   5.429
 7806TIP3    H223341   2.304   4.317   5.346
 7807TIP3   OH223342   2.624   3.798   4.144
 7807TIP3    H123343   2.694   3.838   4.196
 7807TIP3    H223344   2.663   3.782   4.058
 7808TIP3   OH223345   2.050   3.995   5.615
 7808TIP3    H123346   2.052   4.090   5.611
 7808TIP3    H223347   1.959   3.972   5.594
 7809TIP3   OH223348   2.386   4.463   4.435
 7809TIP3    H123349   2.470   4.508   4.434
 7809TIP3    H223350   2.331   4.513   4.375
 7810TIP3   OH223351   2.114   4.576   5.511
 7810TIP3    H123352   2.089   4.598   5.422
 7810TIP3    H223353   2.032   4.576   5.561
 7811TIP3   OH223354   3.164   3.019   4.210
 7811TIP3    H123355   3.089   3.042   4.264
 7811TIP3    H223356   3.182   3.097   4.158
 7812TIP3   OH223357   1.905   3.736   4.515
 7812TIP3    H123358   1.822   3.779   4.495
 7812TIP3    H223359   1.881   3.646   4.537
 7813TIP3   OH223360   2.971   4.394   3.773
 7813TIP3    H123361   2.966   4.487   3.750
 7813TIP3    H223362   3.060   4.369   3.751
 7814TIP3   OH223363   1.694   4.155   5.453
 7814TIP3    H123364   1.636   4.134   5.380
 7814TIP3    H223365   1.733   4.071   5.477
 7815TIP3   OH223366   1.563   4.356   5.107
 7815TIP3    H123367   1.618   4.278   5.114
 7815TIP3    H223368   1.601   4.418   5.169
 7816TIP3   OH223369   3.399   4.826   5.181
 7816TIP3    H123370   3.398   4.730   5.182
 7816TIP3    H223371   3.318   4.851   5.225
 7817TIP3   OH223372   2.425   4.623   5.283
 7817TIP3    H123373   2.439   4.695   5.345
 7817TIP3    H223374   2.401   4.549   5.338
 7818TIP3   OH223375   2.283   4.688   4.249
 7818TIP3    H123376   2.234   4.664   4.170
 7818TIP3    H223377   2.242   4.769   4.279
 7819TIP3   OH223378   1.713   4.538   4.648
 7819TIP3    H123379   1.764   4.521   4.727
 7819TIP3    H223380   1.667   4.456   4.630
 7820TIP3   OH223381   2.478   4.616   3.877
 7820TIP3    H123382   2.527   4.541   3.844
 7820TIP3    H223383   2.513   4.630   3.965
 7821TIP3   OH223384   2.536   4.660   4.147
 7821TIP3    H123385   2.450   4.662   4.189
 7821TIP3    H223386   2.596   4.628   4.214
 7822TIP3   OH223387   3.267   3.889   5.427
 7822TIP3    H123388   3.184   3.904   5.382
 7822TIP3    H223389   3.283   3.795   5.418
 7823TIP3   OH223390   1.847   4.381   5.480
 7823TIP3    H123391   1.930   4.347   5.513
 7823TIP3    H223392   1.795   4.303   5.461
 7824TIP3   OH223393   2.270   3.146   5.256
 7824TIP3    H123394   2.186   3.116   5.221
 7824TIP3    H223395   2.249   3.228   5.301
 7825TIP3   OH223396   2.813   3.278   5.448
 7825TIP3    H123397   2.881   3.253   5.511
 7825TIP3    H223398   2.731   3.260   5.493
 7826TIP3   OH223399   3.041   3.684   5.367
 7826TIP3    H123400   3.006   3.681   5.456
 7826TIP3    H223401   3.017   3.771   5.334
 7827TIP3   OH223402   2.726   3.743   3.892
 7827TIP3    H123403   2.681   3.747   3.808
 7827TIP3    H223404   2.805   3.795   3.879
 7828TIP3   OH223405   2.424   3.203   4.162
 7828TIP3    H123406   2.508   3.216   4.207
 7828TIP3    H223407   2.389   3.122   4.200
 7829TIP3   OH223408   2.235   3.645   5.258
 7829TIP3    H123409   2.180   3.690   5.322
 7829TIP3    H223410   2.269   3.715   5.202
 7830TIP3   OH223411   2.061   3.573   4.776
 7830TIP3    H123412   1.976   3.536   4.800
 7830TIP3    H223413   2.079   3.538   4.689
 7831TIP3   OH223414   2.546   3.634   4.493
 7831TIP3    H123415   2.524   3.723   4.467
 7831TIP3    H223416   2.626   3.613   4.445
 7832TIP3   OH223417   2.773   3.908   5.601
 7832TIP3    H123418   2.745   3.835   5.655
 7832TIP3    H223419   2.865   3.920   5.624
 7833TIP3   OH223420   2.772   3.740   4.707
 7833TIP3    H123421   2.678   3.741   4.724
 7833TIP3    H223422   2.789   3.653   4.671
 7834TIP3   OH223423   2.042   3.705   5.453
 7834TIP3    H123424   2.103   3.751   5.510
 7834TIP3    H223425   2.017   3.627   5.502
 7835TIP3   OH223426   2.068   3.166   4.193
 7835TIP3    H123427   2.071   3.176   4.288
 7835TIP3    H223428   1.994   3.218   4.165
 7836TIP3   OH223429   1.647   3.219   5.073
 7836TIP3    H123430   1.711   3.255   5.135
 7836TIP3    H223431   1.682   3.240   4.987
 7837TIP3   OH223432   1.544   3.194   4.571
 7837TIP3    H123433   1.590   3.230   4.494
 7837TIP3    H223434   1.484   3.264   4.597
 7838TIP3   OH223435   2.769   3.931   5.116
 7838TIP3    H123436   2.806   3.856   5.069
 7838TIP3    H223437   2.733   3.893   5.196
 7839TIP3   OH223438   2.447   3.391   4.841
 7839TIP3    H123439   2.363   3.378   4.886
 7839TIP3    H223440   2.482   3.471   4.878
 7840TIP3   OH223441   1.838   3.423   4.841
 7840TIP3    H123442   1.751   3.428   4.802
 7840TIP3    H223443   1.871   3.337   4.814
 7841TIP3   OH223444   2.094   3.435   4.539
 7841TIP3    H123445   2.189   3.442   4.535
 7841TIP3    H223446   2.064   3.453   4.450
 7842TIP3   OH223447   2.888   3.471   5.051
 7842TIP3    H123448   2.865   3.499   5.140
 7842TIP3    H223449   2.828   3.400   5.032
 7843TIP3   OH223450   1.986   3.460   4.287
 7843TIP3    H123451   1.922   3.415   4.232
 7843TIP3    H223452   2.042   3.507   4.225
 7844TIP3   OH223453   3.104   5.148   5.268
 7844TIP3    H123454   3.104   5.159   5.173
 7844TIP3    H223455   3.184   5.191   5.298
 7845TIP3   OH223456   2.041   4.267   5.672
 7845TIP3    H123457   2.124   4.286   5.717
 7845TIP3    H223458   1.975   4.274   5.741
 7846TIP3   OH223459   1.994   3.187   4.815
 7846TIP3    H123460   1.970   3.110   4.867
 7846TIP3    H223461   2.025   3.150   4.732
 7847TIP3   OH223462   2.233   3.973   4.315
 7847TIP3    H123463   2.159   3.919   4.287
 7847TIP3    H223464   2.202   4.019   4.393
 7848TIP3   OH223465   2.361   4.134   4.130
 7848TIP3    H123466   2.324   4.220   4.149
 7848TIP3    H223467   2.322   4.076   4.195
 7849TIP3   OH223468   1.777   3.932   5.613
 7849TIP3    H123469   1.779   3.895   5.702
 7849TIP3    H223470   1.702   3.888   5.572
 7850TIP3   OH223471   2.568   4.091   5.619
 7850TIP3    H123472   2.512   4.066   5.545
 7850TIP3    H223473   2.646   4.037   5.609
 7851TIP3   OH223474   3.161   3.642   4.097
 7851TIP3    H123475   3.108   3.594   4.033
 7851TIP3    H223476   3.158   3.733   4.066
 7852TIP3   OH223477   3.371   4.552   5.194
 7852TIP3    H123478   3.308   4.527   5.262
 7852TIP3    H223479   3.338   4.511   5.114
 7853TIP3   OH223480   2.901   4.456   4.037
 7853TIP3    H123481   2.871   4.378   4.084
 7853TIP3    H223482   2.921   4.424   3.949
 7854TIP3   OH223483   2.012   4.339   4.598
 7854TIP3    H123484   1.995   4.420   4.549
 7854TIP3    H223485   1.961   4.349   4.679
 7855TIP3   OH223486   1.578   3.618   4.338
 7855TIP3    H123487   1.624   3.699   4.360
 7855TIP3    H223488   1.501   3.618   4.395
 7856TIP3   OH223489   2.116   4.096   4.523
 7856TIP3    H123490   2.092   4.183   4.556
 7856TIP3    H223491   2.096   4.037   4.596
 7857TIP3   OH223492   2.277   4.664   5.060
 7857TIP3    H123493   2.328   4.732   5.016
 7857TIP3    H223494   2.331   4.636   5.133
 7858TIP3   OH223495   1.925   4.576   4.474
 7858TIP3    H123496   1.845   4.577   4.525
 7858TIP3    H223497   1.961   4.664   4.483
 7859TIP3   OH223498   2.655   4.200   3.953
 7859TIP3    H123499   2.707   4.186   4.032
 7859TIP3    H223500   2.568   4.166   3.975
 7860TIP3   OH223501   2.911   4.840   5.096
 7860TIP3    H123502   2.827   4.799   5.075
 7860TIP3    H223503   2.915   4.917   5.039
 7861TIP3   OH223504   2.966   4.668   3.733
 7861TIP3    H123505   2.973   4.723   3.656
 7861TIP3    H223506   2.900   4.710   3.787
 7862TIP3   OH223507   1.992   3.447   5.600
 7862TIP3    H123508   1.897   3.454   5.605
 7862TIP3    H223509   2.017   3.398   5.678
 7863TIP3   OH223510   2.836   4.157   4.164
 7863TIP3    H123511   2.811   4.081   4.217
 7863TIP3    H223512   2.928   4.142   4.143
 7864TIP3   OH223513   1.724   4.549   5.263
 7864TIP3    H123514   1.770   4.487   5.320
 7864TIP3    H223515   1.761   4.634   5.286
 7865TIP3   OH223516   2.005   4.165   3.957
 7865TIP3    H123517   2.020   4.074   3.930
 7865TIP3    H223518   1.996   4.161   4.052
 7866TIP3   OH223519   1.952   4.183   4.232
 7866TIP3    H123520   2.007   4.156   4.306
 7866TIP3    H223521   1.955   4.279   4.234
 7867TIP3   OH223522   1.675   3.865   4.424
 7867TIP3    H123523   1.616   3.915   4.480
 7867TIP3    H223524   1.701   3.926   4.356
 7868TIP3   OH223525   2.819   3.526   5.316
 7868TIP3    H123526   2.905   3.561   5.341
 7868TIP3    H223527   2.814   3.441   5.360
 7869TIP3   OH223528   2.229   4.372   4.163
 7869TIP3    H123529   2.143   4.391   4.201
 7869TIP3    H223530   2.245   4.445   4.103
 7870TIP3   OH223531   2.371   3.440   4.574
 7870TIP3    H123532   2.429   3.508   4.540
 7870TIP3    H223533   2.394   3.433   4.667
 7871TIP3   OH223534   2.698   3.799   5.347
 7871TIP3    H123535   2.718   3.826   5.437
 7871TIP3    H223536   2.716   3.705   5.345
 7872TIP3   OH223537   2.556   3.173   4.686
 7872TIP3    H123538   2.528   3.248   4.739
 7872TIP3    H223539   2.610   3.212   4.616
 7873TIP3   OH223540   1.973   4.458   4.231
 7873TIP3    H123541   1.954   4.528   4.168
 7873TIP3    H223542   1.955   4.497   4.316
 7874TIP3   OH223543   2.056   3.163   4.475
 7874TIP3    H123544   2.046   3.254   4.504
 7874TIP3    H223545   2.150   3.145   4.484
 7875TIP3   OH223546   3.306   3.624   5.342
 7875TIP3    H123547   3.211   3.621   5.349
 7875TIP3    H223548   3.324   3.609   5.249
 7876TIP3   OH223549   1.709   4.050   4.214
 7876TIP3    H123550   1.781   4.111   4.228
 7876TIP3    H223551   1.742   3.987   4.150
 7877TIP3   OH223552   1.610   3.340   4.349
 7877TIP3    H123553   1.624   3.435   4.353
 7877TIP3    H223554   1.554   3.327   4.272
 7878TIP3   OH223555   2.953   4.843   4.699
 7878TIP3    H123556   2.904   4.877   4.624
 7878TIP3    H223557   3.045   4.859   4.677
 7879TIP3   OH223558   2.008   3.062   5.211
 7879TIP3    H123559   1.981   3.033   5.123
 7879TIP3    H223560   1.999   2.984   5.265
 7880TIP3   OH223561   1.534   4.320   4.610
 7880TIP3    H123562   1.493   4.357   4.688
 7880TIP3    H223563   1.492   4.364   4.537
 7881TIP3   OH223564   1.748   4.846   5.674
 7881TIP3    H123565   1.832   4.852   5.720
 7881TIP3    H223566   1.738   4.752   5.656
 7882TIP3   OH223567   2.207   4.753   5.703
 7882TIP3    H123568   2.298   4.728   5.717
 7882TIP3    H223569   2.177   4.696   5.632
 7883TIP3   OH223570   2.161   4.361   3.839
 7883TIP3    H123571   2.115   4.292   3.887
 7883TIP3    H223572   2.236   4.317   3.799
 7884TIP3   OH223573   2.802   4.754   5.473
 7884TIP3    H123574   2.807   4.666   5.510
 7884TIP3    H223575   2.890   4.790   5.486
 7885TIP3   OH223576   2.606   4.400   3.766
 7885TIP3    H123577   2.638   4.336   3.829
 7885TIP3    H223578   2.665   4.393   3.691
 7886TIP3   OH223579   1.836   4.259   5.863
 7886TIP3    H123580   1.855   4.166   5.876
 7886TIP3    H223581   1.754   4.260   5.814
 7887TIP3   OH223582   1.831   3.861   4.058
 7887TIP3    H123583   1.882   3.838   4.135
 7887TIP3    H223584   1.896   3.875   3.989
 7888TIP3   OH223585   2.457   4.348   5.641
 7888TIP3    H123586   2.417   4.361   5.555
 7888TIP3    H223587   2.506   4.266   5.632
 7889TIP3   OH223588   2.372   4.076   3.867
 7889TIP3    H123589   2.361   4.090   3.961
 7889TIP3    H223590   2.366   3.981   3.855
 7890TIP3   OH223591   1.946   4.002   5.880
 7890TIP3    H123592   2.006   3.991   5.806
 7890TIP3    H223593   2.003   4.021   5.954
 7891TIP3   OH223594   2.008   3.808   4.266
 7891TIP3    H123595   1.985   3.780   4.354
 7891TIP3    H223596   2.053   3.733   4.227
 7892TIP3   OH223597   2.267   3.850   5.537
 7892TIP3    H123598   2.199   3.910   5.568
 7892TIP3    H223599   2.326   3.905   5.486
 7893TIP3   OH223600   2.134   3.615   4.114
 7893TIP3    H123601   2.108   3.619   4.022
 7893TIP3    H223602   2.229   3.624   4.113
 7894TIP3   OH223603   2.851   4.267   5.630
 7894TIP3    H123604   2.945   4.253   5.639
 7894TIP3    H223605   2.812   4.207   5.695
 7895TIP3   OH223606   2.933   3.901   3.791
 7895TIP3    H123607   2.925   3.864   3.703
 7895TIP3    H223608   2.906   3.992   3.781
 7896TIP3   OH223609   2.425   3.650   5.635
 7896TIP3    H123610   2.427   3.577   5.573
 7896TIP3    H223611   2.375   3.718   5.591
 7897TIP3   OH223612   2.421   3.455   5.434
 7897TIP3    H123613   2.441   3.501   5.353
 7897TIP3    H223614   2.330   3.426   5.424
 7898TIP3   OH223615   2.442   4.003   5.394
 7898TIP3    H123616   2.486   3.947   5.329
 7898TIP3    H223617   2.389   4.063   5.342
 7899TIP3   OH223618   3.038   3.945   5.702
 7899TIP3    H123619   3.086   3.863   5.687
 7899TIP3    H223620   3.100   4.013   5.679
 7900TIP3   OH223621   3.088   4.204   5.375
 7900TIP3    H123622   3.021   4.266   5.347
 7900TIP3    H223623   3.169   4.240   5.339
 7901TIP3   OH223624   2.310   3.729   5.882
 7901TIP3    H123625   2.239   3.667   5.896
 7901TIP3    H223626   2.337   3.715   5.791
 7902TIP3   OH223627   2.549   3.227   5.535
 7902TIP3    H123628   2.509   3.306   5.499
 7902TIP3    H223629   2.486   3.158   5.518
 7903TIP3   OH223630   2.683   3.686   5.737
 7903TIP3    H123631   2.666   3.673   5.830
 7903TIP3    H223632   2.598   3.670   5.695
 7904TIP3   OH223633   2.939   3.656   5.615
 7904TIP3    H123634   2.858   3.649   5.665
 7904TIP3    H223635   3.007   3.631   5.678
 7905TIP3   OH223636   3.172   3.613   5.768
 7905TIP3    H123637   3.181   3.518   5.772
 7905TIP3    H223638   3.164   3.641   5.859
 7906TIP3   OH223639   2.136   3.514   5.944
 7906TIP3    H123640   2.143   3.427   5.905
 7906TIP3    H223641   2.177   3.506   6.030
 7907TIP3   OH223642   2.610   3.201   5.800
 7907TIP3    H123643   2.680   3.136   5.794
 7907TIP3    H223644   2.582   3.215   5.710
 7908TIP3   OH223645   2.714   3.408   5.951
 7908TIP3    H123646   2.682   3.339   5.892
 7908TIP3    H223647   2.644   3.474   5.950
 7909TIP3   OH223648   1.971   4.669   4.049
 7909TIP3    H123649   2.059   4.644   4.022
 7909TIP3    H223650   1.934   4.713   3.972
 7910TIP3   OH223651   1.435   4.048   4.223
 7910TIP3    H123652   1.530   4.059   4.224
 7910TIP3    H223653   1.421   3.960   4.187
 7911TIP3   OH223654   1.332   4.628   4.691
 7911TIP3    H123655   1.267   4.573   4.647
 7911TIP3    H223656   1.377   4.569   4.751
 7912TIP3   OH223657   1.479   4.468   4.860
 7912TIP3    H123658   1.474   4.404   4.931
 7912TIP3    H223659   1.540   4.535   4.892
 7913TIP3   OH223660   3.216   4.906   4.662
 7913TIP3    H123661   3.256   4.918   4.748
 7913TIP3    H223662   3.288   4.922   4.600
 7914TIP3   OH223663   3.276   4.913   4.944
 7914TIP3    H123664   3.219   4.835   4.941
 7914TIP3    H223665   3.338   4.894   5.015
 7915TIP3   OH223666   3.266   4.590   5.524
 7915TIP3    H123667   3.202   4.600   5.594
 7915TIP3    H223668   3.318   4.670   5.527
 7916TIP3   OH223669   3.106   4.113   4.122
 7916TIP3    H123670   3.168   4.182   4.096
 7916TIP3    H223671   3.147   4.070   4.196
 7917TIP3   OH223672   3.218   3.962   4.324
 7917TIP3    H123673   3.162   3.924   4.392
 7917TIP3    H223674   3.294   3.997   4.370
 7918TIP3   OH223675   3.103   4.703   4.946
 7918TIP3    H123676   3.035   4.733   5.006
 7918TIP3    H223677   3.058   4.691   4.862
 7919TIP3   OH223678   3.143   3.886   3.967
 7919TIP3    H123679   3.071   3.886   3.905
 7919TIP3    H223680   3.128   3.964   4.021
 7920TIP3   OH223681   3.025   3.512   3.895
 7920TIP3    H123682   2.966   3.540   3.825
 7920TIP3    H223683   3.005   3.420   3.909
 7921TIP3   OH223684   2.987   3.802   4.480
 7921TIP3    H123685   3.019   3.719   4.445
 7921TIP3    H223686   2.942   3.778   4.561
 7922TIP3   OH223687   1.677   3.826   5.266
 7922TIP3    H123688   1.636   3.844   5.182
 7922TIP3    H223689   1.766   3.858   5.257
 7923TIP3   OH223690   3.384   4.261   5.321
 7923TIP3    H123691   3.423   4.178   5.351
 7923TIP3    H223692   3.454   4.304   5.272
 7924TIP3   OH223693   3.496   4.030   5.420
 7924TIP3    H123694   3.415   3.979   5.421
 7924TIP3    H223695   3.560   3.971   5.378
 7925TIP3   OH223696   2.955   3.241   3.929
 7925TIP3    H123697   3.001   3.235   4.012
 7925TIP3    H223698   2.864   3.221   3.950
 7926TIP3   OH223699   3.078   3.567   4.361
 7926TIP3    H123700   3.108   3.477   4.372
 7926TIP3    H223701   3.097   3.587   4.269
 7927TIP3   OH223702   3.203   3.655   4.928
 7927TIP3    H123703   3.290   3.666   4.889
 7927TIP3    H223704   3.187   3.737   4.975
 7928TIP3   OH223705   3.225   3.904   5.079
 7928TIP3    H123706   3.157   3.907   5.146
 7928TIP3    H223707   3.222   3.991   5.038
 7929TIP3   OH223708   1.871   3.569   5.883
 7929TIP3    H123709   1.965   3.569   5.898
 7929TIP3    H223710   1.840   3.487   5.921
 7930TIP3   OH223711   3.723   3.462   5.643
 7930TIP3    H123712   3.786   3.406   5.596
 7930TIP3    H223713   3.682   3.515   5.575
 7931TIP3   OH223714   3.163   3.300   4.397
 7931TIP3    H123715   3.204   3.286   4.482
 7931TIP3    H223716   3.092   3.236   4.393
 7932TIP3   OH223717   1.848   3.286   5.253
 7932TIP3    H123718   1.903   3.207   5.247
 7932TIP3    H223719   1.907   3.357   5.228
 7933TIP3   OH223720   1.629   3.552   5.285
 7933TIP3    H123721   1.687   3.530   5.212
 7933TIP3    H223722   1.635   3.648   5.292
 7934TIP3   OH223723   3.567   3.591   5.461
 7934TIP3    H123724   3.502   3.636   5.515
 7934TIP3    H223725   3.516   3.537   5.401
 7935TIP3   OH223726   3.224   3.217   4.031
 7935TIP3    H123727   3.278   3.171   3.967
 7935TIP3    H223728   3.268   3.301   4.044
 7936TIP3   OH223729   1.617   3.035   4.779
 7936TIP3    H123730   1.535   3.032   4.829
 7936TIP3    H223731   1.602   3.100   4.711
 7937TIP3   OH223732   2.779   4.770   4.310
 7937TIP3    H123733   2.837   4.764   4.234
 7937TIP3    H223734   2.816   4.841   4.363
 7938TIP3   OH223735   1.848   3.104   5.616
 7938TIP3    H123736   1.798   3.107   5.698
 7938TIP3    H223737   1.797   3.156   5.554
 7939TIP3   OH223738   1.883   4.583   5.667
 7939TIP3    H123739   1.845   4.519   5.607
 7939TIP3    H223740   1.857   4.553   5.754
 7940TIP3   OH223741   2.058   4.636   5.250
 7940TIP3    H123742   2.036   4.721   5.213
 7940TIP3    H223743   2.128   4.603   5.194
 7941TIP3   OH223744   2.480   4.871   5.418
 7941TIP3    H123745   2.526   4.862   5.501
 7941TIP3    H223746   2.546   4.909   5.359
 7942TIP3   OH223747   2.672   5.001   5.258
 7942TIP3    H123748   2.731   4.931   5.230
 7942TIP3    H223749   2.728   5.060   5.309
 7943TIP3   OH223750   3.471   3.336   5.337
 7943TIP3    H123751   3.388   3.347   5.291
 7943TIP3    H223752   3.491   3.243   5.329
 7944TIP3   OH223753   1.749   4.876   5.277
 7944TIP3    H123754   1.657   4.898   5.262
 7944TIP3    H223755   1.775   4.931   5.351
 7945TIP3   OH223756   1.982   4.874   5.133
 7945TIP3    H123757   1.898   4.873   5.178
 7945TIP3    H223758   1.960   4.887   5.041
 7946TIP3   OH223759   2.402   4.866   4.913
 7946TIP3    H123760   2.325   4.886   4.859
 7946TIP3    H223761   2.418   4.948   4.961
 7947TIP3   OH223762   2.673   4.802   4.965
 7947TIP3    H123763   2.578   4.800   4.962
 7947TIP3    H223764   2.698   4.858   4.891
 7948TIP3   OH223765   2.905   5.030   4.893
 7948TIP3    H123766   2.882   5.110   4.845
 7948TIP3    H223767   2.918   4.964   4.825
 7949TIP3   OH223768   1.671   4.633   5.001
 7949TIP3    H123769   1.688   4.608   5.092
 7949TIP3    H223770   1.740   4.590   4.951
 7950TIP3   OH223771   1.874   4.494   4.871
 7950TIP3    H123772   1.898   4.415   4.919
 7950TIP3    H223773   1.956   4.543   4.863
 7951TIP3   OH223774   2.127   4.610   4.840
 7951TIP3    H123775   2.170   4.535   4.799
 7951TIP3    H223776   2.171   4.621   4.924
 7952TIP3   OH223777   2.721   3.256   5.019
 7952TIP3    H123778   2.639   3.207   5.016
 7952TIP3    H223779   2.774   3.218   4.948
 7953TIP3   OH223780   3.185   3.153   4.837
 7953TIP3    H123781   3.229   3.209   4.773
 7953TIP3    H223782   3.098   3.193   4.848
 7954TIP3   OH223783   3.322   3.249   4.617
 7954TIP3    H123784   3.389   3.187   4.588
 7954TIP3    H223785   3.363   3.335   4.608
 7955TIP3   OH223786   1.928   2.959   4.966
 7955TIP3    H123787   1.839   2.927   4.975
 7955TIP3    H223788   1.982   2.880   4.959
 7956TIP3   OH223789   1.748   2.852   4.614
 7956TIP3    H123790   1.776   2.904   4.539
 7956TIP3    H223791   1.709   2.915   4.675
 7957TIP3   OH223792   2.417   2.998   4.861
 7957TIP3    H123793   2.455   3.061   4.800
 7957TIP3    H223794   2.447   3.026   4.947
 7958TIP3   OH223795   2.896   3.145   4.835
 7958TIP3    H123796   2.879   3.111   4.747
 7958TIP3    H223797   2.897   3.067   4.891
 7959TIP3   OH223798   2.974   3.095   4.389
 7959TIP3    H123799   2.895   3.138   4.355
 7959TIP3    H223800   2.942   3.015   4.430
 7960TIP3   OH223801   1.417   4.442   4.393
 7960TIP3    H123802   1.335   4.405   4.359
 7960TIP3    H223803   1.420   4.531   4.358
 7961TIP3   OH223804   1.851   2.993   4.389
 7961TIP3    H123805   1.896   2.935   4.327
 7961TIP3    H223806   1.920   3.050   4.422
 7962TIP3   OH223807   2.325   3.176   4.506
 7962TIP3    H123808   2.401   3.134   4.549
 7962TIP3    H223809   2.344   3.269   4.511
 7963TIP3   OH223810   2.223   4.587   3.980
 7963TIP3    H123811   2.307   4.614   3.941
 7963TIP3    H223812   2.193   4.514   3.925
 7964TIP3   OH223813   2.929   4.727   4.079
 7964TIP3    H123814   2.923   4.632   4.070
 7964TIP3    H223815   2.884   4.761   4.002
 7965TIP3   OH223816   2.152   3.245   5.853
 7965TIP3    H123817   2.120   3.178   5.913
 7965TIP3    H223818   2.245   3.254   5.874
 7966TIP3   OH223819   2.399   3.252   5.976
 7966TIP3    H123820   2.475   3.233   5.920
 7966TIP3    H223821   2.398   3.181   6.039
 7967TIP3   OH223822   1.539   4.435   4.043
 7967TIP3    H123823   1.543   4.440   4.138
 7967TIP3    H223824   1.619   4.387   4.018
 7968TIP3   OH223825   3.224   3.338   5.763
 7968TIP3    H123826   3.242   3.309   5.852
 7968TIP3    H223827   3.308   3.334   5.718
 7969TIP3   OH223828   3.139   4.873   5.267
 7969TIP3    H123829   3.062   4.842   5.220
 7969TIP3    H223830   3.123   4.967   5.281
 7970TIP3   OH223831   4.419   4.257   4.005
 7970TIP3    H123832   4.389   4.346   3.988
 7970TIP3    H223833   4.348   4.201   3.976
 7971TIP3   OH223834   3.383   3.729   4.257
 7971TIP3    H123835   3.356   3.818   4.278
 7971TIP3    H223836   3.307   3.690   4.213
 7972TIP3   OH223837   3.467   4.046   4.419
 7972TIP3    H123838   3.520   3.981   4.465
 7972TIP3    H223839   3.507   4.130   4.441
 7973TIP3   OH223840   4.351   5.002   4.114
 7973TIP3    H123841   4.364   4.913   4.083
 7973TIP3    H223842   4.387   5.002   4.203
 7974TIP3   OH223843   5.266   3.792   4.461
 7974TIP3    H123844   5.277   3.878   4.502
 7974TIP3    H223845   5.288   3.806   4.369
 7975TIP3   OH223846   4.647   3.979   4.446
 7975TIP3    H123847   4.675   3.895   4.483
 7975TIP3    H223848   4.586   3.955   4.376
 7976TIP3   OH223849   3.981   3.634   4.433
 7976TIP3    H123850   3.957   3.709   4.379
 7976TIP3    H223851   3.925   3.563   4.403
 7977TIP3   OH223852   4.685   3.723   4.078
 7977TIP3    H123853   4.749   3.718   4.150
 7977TIP3    H223854   4.733   3.766   4.007
 7978TIP3   OH223855   3.619   3.855   4.550
 7978TIP3    H123856   3.695   3.834   4.605
 7978TIP3    H223857   3.624   3.792   4.478
 7979TIP3   OH223858   5.314   4.024   4.614
 7979TIP3    H123859   5.225   4.060   4.609
 7979TIP3    H223860   5.348   4.056   4.697
 7980TIP3   OH223861   3.972   3.616   4.888
 7980TIP3    H123862   3.920   3.664   4.823
 7980TIP3    H223863   3.919   3.620   4.968
 7981TIP3   OH223864   4.311   4.482   3.879
 7981TIP3    H123865   4.265   4.451   3.801
 7981TIP3    H223866   4.259   4.557   3.908
 7982TIP3   OH223867   4.853   3.730   4.297
 7982TIP3    H123868   4.798   3.718   4.375
 7982TIP3    H223869   4.907   3.806   4.317
 7983TIP3   OH223870   3.859   3.745   4.666
 7983TIP3    H123871   3.906   3.826   4.686
 7983TIP3    H223872   3.907   3.708   4.592
 7984TIP3   OH223873   3.280   4.307   4.009
 7984TIP3    H123874   3.243   4.325   3.923
 7984TIP3    H223875   3.304   4.392   4.044
 7985TIP3   OH223876   5.058   3.682   4.621
 7985TIP3    H123877   4.973   3.706   4.583
 7985TIP3    H223878   5.122   3.710   4.555
 7986TIP3   OH223879   4.310   3.315   4.619
 7986TIP3    H123880   4.300   3.223   4.643
 7986TIP3    H223881   4.233   3.358   4.657
 7987TIP3   OH223882   4.433   4.826   3.877
 7987TIP3    H123883   4.490   4.754   3.849
 7987TIP3    H223884   4.487   4.904   3.866
 7988TIP3   OH223885   4.541   4.593   3.765
 7988TIP3    H123886   4.572   4.517   3.716
 7988TIP3    H223887   4.469   4.559   3.819
 7989TIP3   OH223888   4.240   4.103   3.858
 7989TIP3    H123889   4.158   4.145   3.836
 7989TIP3    H223890   4.288   4.097   3.776
 7990TIP3   OH223891   4.218   3.899   3.558
 7990TIP3    H123892   4.284   3.948   3.608
 7990TIP3    H223893   4.268   3.833   3.511
 7991TIP3   OH223894   5.077   4.358   4.412
 7991TIP3    H123895   5.079   4.453   4.405
 7991TIP3    H223896   5.002   4.331   4.359
 7992TIP3   OH223897   4.608   4.183   3.822
 7992TIP3    H123898   4.554   4.211   3.896
 7992TIP3    H223899   4.690   4.154   3.863
 7993TIP3   OH223900   4.856   4.224   4.780
 7993TIP3    H123901   4.849   4.312   4.818
 7993TIP3    H223902   4.775   4.212   4.730
 7994TIP3   OH223903   4.078   4.683   4.947
 7994TIP3    H123904   4.025   4.756   4.980
 7994TIP3    H223905   4.015   4.615   4.925
 7995TIP3   OH223906   4.436   4.044   3.659
 7995TIP3    H123907   4.496   4.100   3.708
 7995TIP3    H223908   4.466   4.051   3.569
 7996TIP3   OH223909   4.178   4.724   3.907
 7996TIP3    H123910   4.264   4.767   3.907
 7996TIP3    H223911   4.121   4.786   3.862
 7997TIP3   OH223912   3.900   4.886   4.998
 7997TIP3    H123913   3.877   4.889   4.905
 7997TIP3    H223914   3.820   4.858   5.042
 7998TIP3   OH223915   4.935   3.279   3.713
 7998TIP3    H123916   4.863   3.305   3.770
 7998TIP3    H223917   4.950   3.355   3.656
 7999TIP3   OH223918   3.710   4.011   3.992
 7999TIP3    H123919   3.622   4.046   3.977
 7999TIP3    H223920   3.704   3.968   4.077
 8000TIP3   OH223921   4.772   4.649   3.266
 8000TIP3    H123922   4.763   4.743   3.250
 8000TIP3    H223923   4.862   4.629   3.240
 8001TIP3   OH223924   5.183   5.052   4.672
 8001TIP3    H123925   5.189   4.957   4.670
 8001TIP3    H223926   5.097   5.070   4.710
 8002TIP3   OH223927   4.258   4.814   4.783
 8002TIP3    H123928   4.268   4.903   4.816
 8002TIP3    H223929   4.196   4.773   4.842
 8003TIP3   OH223930   4.067   4.942   3.737
 8003TIP3    H123931   4.016   4.923   3.658
 8003TIP3    H223932   4.033   5.026   3.769
 8004TIP3   OH223933   3.495   4.814   4.111
 8004TIP3    H123934   3.541   4.808   4.195
 8004TIP3    H223935   3.451   4.729   4.102
 8005TIP3   OH223936   4.276   4.876   3.361
 8005TIP3    H123937   4.326   4.801   3.329
 8005TIP3    H223938   4.307   4.889   3.450
 8006TIP3   OH223939   4.320   4.918   3.632
 8006TIP3    H123940   4.232   4.924   3.669
 8006TIP3    H223941   4.373   4.882   3.703
 8007TIP3   OH223942   5.084   4.154   4.931
 8007TIP3    H123943   5.004   4.177   4.885
 8007TIP3    H223944   5.097   4.061   4.914
 8008TIP3   OH223945   4.070   3.404   4.739
 8008TIP3    H123946   3.986   3.374   4.705
 8008TIP3    H223947   4.051   3.486   4.784
 8009TIP3   OH223948   4.612   3.530   4.940
 8009TIP3    H123949   4.679   3.507   5.005
 8009TIP3    H223950   4.529   3.515   4.986
 8010TIP3   OH223951   4.838   3.952   4.866
 8010TIP3    H123952   4.795   3.947   4.952
 8010TIP3    H223953   4.821   4.042   4.836
 8011TIP3   OH223954   4.524   4.039   3.401
 8011TIP3    H123955   4.472   4.036   3.321
 8011TIP3    H223956   4.605   4.083   3.375
 8012TIP3   OH223957   4.239   3.421   3.715
 8012TIP3    H123958   4.198   3.435   3.800
 8012TIP3    H223959   4.186   3.354   3.673
 8013TIP3   OH223960   3.998   3.978   4.734
 8013TIP3    H123961   3.996   4.010   4.824
 8013TIP3    H223962   3.974   4.053   4.681
 8014TIP3   OH223963   3.865   3.815   4.263
 8014TIP3    H123964   3.779   3.785   4.292
 8014TIP3    H223965   3.876   3.776   4.176
 8015TIP3   OH223966   4.363   3.890   3.993
 8015TIP3    H123967   4.318   3.966   3.954
 8015TIP3    H223968   4.423   3.861   3.925
 8016TIP3   OH223969   4.555   4.161   5.068
 8016TIP3    H123970   4.527   4.092   5.129
 8016TIP3    H223971   4.648   4.175   5.090
 8017TIP3   OH223972   4.499   3.872   4.238
 8017TIP3    H123973   4.440   3.900   4.168
 8017TIP3    H223974   4.564   3.816   4.194
 8018TIP3   OH223975   3.888   3.424   3.675
 8018TIP3    H123976   3.880   3.431   3.770
 8018TIP3    H223977   3.814   3.473   3.641
 8019TIP3   OH223978   3.455   3.479   4.565
 8019TIP3    H123979   3.519   3.515   4.627
 8019TIP3    H223980   3.456   3.541   4.492
 8020TIP3   OH223981   3.362   3.456   4.054
 8020TIP3    H123982   3.403   3.492   3.975
 8020TIP3    H223983   3.298   3.523   4.079
 8021TIP3   OH223984   4.625   4.162   4.654
 8021TIP3    H123985   4.627   4.110   4.573
 8021TIP3    H223986   4.555   4.121   4.706
 8022TIP3   OH223987   4.245   3.602   4.322
 8022TIP3    H123988   4.165   3.614   4.374
 8022TIP3    H223989   4.316   3.610   4.385
 8023TIP3   OH223990   3.639   3.679   4.343
 8023TIP3    H123991   3.554   3.682   4.300
 8023TIP3    H223992   3.673   3.591   4.323
 8024TIP3   OH223993   3.901   3.683   4.024
 8024TIP3    H123994   3.994   3.703   4.020
 8024TIP3    H223995   3.867   3.708   3.938
 8025TIP3   OH223996   4.695   3.713   4.528
 8025TIP3    H123997   4.679   3.731   4.620
 8025TIP3    H223998   4.624   3.655   4.502
 8026TIP3   OH223999   3.805   3.715   3.770
 8026TIP3    H124000   3.739   3.669   3.719
 8026TIP3    H224001   3.856   3.764   3.706
 8027TIP3   OH224002   4.878   5.374   4.732
 8027TIP3    H124003   4.884   5.382   4.637
 8027TIP3    H224004   4.940   5.438   4.766
 8028TIP3   OH224005   3.836   4.562   5.165
 8028TIP3    H124006   3.910   4.551   5.224
 8028TIP3    H224007   3.791   4.477   5.165
 8029TIP3   OH224008   4.317   3.967   4.444
 8029TIP3    H124009   4.376   3.917   4.386
 8029TIP3    H224010   4.310   3.913   4.523
 8030TIP3   OH224011   3.798   3.446   4.315
 8030TIP3    H124012   3.768   3.370   4.365
 8030TIP3    H224013   3.818   3.412   4.228
 8031TIP3   OH224014   4.262   3.874   4.713
 8031TIP3    H124015   4.179   3.920   4.712
 8031TIP3    H224016   4.324   3.937   4.749
 8032TIP3   OH224017   3.990   4.243   3.822
 8032TIP3    H124018   3.926   4.184   3.784
 8032TIP3    H224019   3.968   4.247   3.915
 8033TIP3   OH224020   4.483   3.544   3.715
 8033TIP3    H124021   4.391   3.518   3.713
 8033TIP3    H224022   4.482   3.639   3.725
 8034TIP3   OH224023   4.391   4.553   4.818
 8034TIP3    H124024   4.423   4.592   4.899
 8034TIP3    H224025   4.347   4.625   4.772
 8035TIP3   OH224026   4.534   3.811   3.781
 8035TIP3    H124027   4.629   3.816   3.794
 8035TIP3    H224028   4.512   3.889   3.730
 8036TIP3   OH224029   4.154   4.393   3.661
 8036TIP3    H124030   4.109   4.477   3.651
 8036TIP3    H224031   4.095   4.341   3.714
 8037TIP3   OH224032   4.327   4.320   5.105
 8037TIP3    H124033   4.256   4.281   5.053
 8037TIP3    H224034   4.405   4.271   5.078
 8038TIP3   OH224035   4.947   3.901   3.593
 8038TIP3    H124036   4.894   3.855   3.528
 8038TIP3    H224037   4.950   3.992   3.562
 8039TIP3   OH224038   5.147   4.772   4.681
 8039TIP3    H124039   5.091   4.790   4.757
 8039TIP3    H224040   5.091   4.790   4.606
 8040TIP3   OH224041   4.695   4.734   3.549
 8040TIP3    H124042   4.650   4.687   3.619
 8040TIP3    H224043   4.700   4.672   3.477
 8041TIP3   OH224044   3.752   4.622   4.146
 8041TIP3    H124045   3.764   4.686   4.075
 8041TIP3    H224046   3.709   4.548   4.104
 8042TIP3   OH224047   3.380   3.870   3.825
 8042TIP3    H124048   3.425   3.951   3.849
 8042TIP3    H224049   3.299   3.872   3.876
 8043TIP3   OH224050   4.096   4.902   4.571
 8043TIP3    H124051   4.147   4.973   4.530
 8043TIP3    H224052   4.159   4.856   4.626
 8044TIP3   OH224053   3.725   4.829   3.960
 8044TIP3    H124054   3.638   4.840   3.999
 8044TIP3    H224055   3.767   4.915   3.969
 8045TIP3   OH224056   4.460   4.450   3.411
 8045TIP3    H124057   4.504   4.422   3.491
 8045TIP3    H224058   4.374   4.408   3.415
 8046TIP3   OH224059   4.760   4.923   3.220
 8046TIP3    H124060   4.756   4.976   3.141
 8046TIP3    H224061   4.695   4.963   3.279
 8047TIP3   OH224062   3.827   3.636   5.121
 8047TIP3    H124063   3.764   3.700   5.155
 8047TIP3    H224064   3.861   3.592   5.199
 8048TIP3   OH224065   4.622   4.372   3.623
 8048TIP3    H124066   4.612   4.305   3.691
 8048TIP3    H224067   4.716   4.376   3.607
 8049TIP3   OH224068   3.515   4.801   4.728
 8049TIP3    H124069   3.479   4.733   4.784
 8049TIP3    H224070   3.585   4.840   4.779
 8050TIP3   OH224071   3.806   4.422   3.429
 8050TIP3    H124072   3.815   4.331   3.402
 8050TIP3    H224073   3.786   4.417   3.523
 8051TIP3   OH224074   3.747   4.440   3.700
 8051TIP3    H124075   3.827   4.418   3.747
 8051TIP3    H224076   3.742   4.536   3.705
 8052TIP3   OH224077   3.468   4.124   3.911
 8052TIP3    H124078   3.405   4.171   3.966
 8052TIP3    H224079   3.488   4.184   3.840
 8053TIP3   OH224080   4.644   3.764   4.793
 8053TIP3    H124081   4.720   3.810   4.830
 8053TIP3    H224082   4.633   3.687   4.848
 8054TIP3   OH224083   4.539   3.506   3.988
 8054TIP3    H124084   4.518   3.526   3.897
 8054TIP3    H224085   4.581   3.585   4.022
 8055TIP3   OH224086   4.012   4.623   3.641
 8055TIP3    H124087   3.928   4.651   3.678
 8055TIP3    H224088   4.040   4.696   3.586
 8056TIP3   OH224089   4.180   3.697   4.065
 8056TIP3    H124090   4.240   3.768   4.041
 8056TIP3    H224091   4.198   3.681   4.158
 8057TIP3   OH224092   4.477   4.007   4.835
 8057TIP3    H124093   4.500   4.053   4.915
 8057TIP3    H224094   4.526   3.926   4.839
 8058TIP3   OH224095   4.348   3.401   4.159
 8058TIP3    H124096   4.319   3.475   4.212
 8058TIP3    H224097   4.417   3.436   4.104
 8059TIP3   OH224098   3.763   4.713   3.716
 8059TIP3    H124099   3.745   4.782   3.652
 8059TIP3    H224100   3.748   4.754   3.801
 8060TIP3   OH224101   3.862   3.415   3.958
 8060TIP3    H124102   3.850   3.505   3.987
 8060TIP3    H224103   3.957   3.400   3.966
 8061TIP3   OH224104   5.097   3.882   4.828
 8061TIP3    H124105   5.004   3.898   4.845
 8061TIP3    H224106   5.098   3.821   4.754
 8062TIP3   OH224107   4.798   4.064   4.207
 8062TIP3    H124108   4.721   4.082   4.262
 8062TIP3    H224109   4.862   4.025   4.266
 8063TIP3   OH224110   3.502   4.306   3.701
 8063TIP3    H124111   3.573   4.369   3.709
 8063TIP3    H224112   3.532   4.243   3.635
 8064TIP3   OH224113   3.408   3.592   3.817
 8064TIP3    H124114   3.425   3.686   3.827
 8064TIP3    H224115   3.323   3.587   3.773
 8065TIP3   OH224116   4.802   5.059   4.069
 8065TIP3    H124117   4.734   5.126   4.062
 8065TIP3    H224118   4.877   5.104   4.107
 8066TIP3   OH224119   3.807   3.326   4.692
 8066TIP3    H124120   3.776   3.298   4.606
 8066TIP3    H224121   3.797   3.249   4.748
 8067TIP3   OH224122   3.334   4.580   4.085
 8067TIP3    H124123   3.290   4.616   4.162
 8067TIP3    H224124   3.289   4.620   4.011
 8068TIP3   OH224125   3.535   5.103   5.167
 8068TIP3    H124126   3.619   5.104   5.213
 8068TIP3    H224127   3.512   5.010   5.162
 8069TIP3   OH224128   4.009   5.030   5.203
 8069TIP3    H124129   4.096   4.992   5.213
 8069TIP3    H224130   3.971   4.986   5.127
 8070TIP3   OH224131   3.962   4.620   3.320
 8070TIP3    H124132   3.913   4.551   3.365
 8070TIP3    H224133   4.036   4.575   3.279
 8071TIP3   OH224134   4.404   4.662   3.245
 8071TIP3    H124135   4.439   4.596   3.306
 8071TIP3    H224136   4.462   4.657   3.169
 8072TIP3   OH224137   3.595   4.508   5.360
 8072TIP3    H124138   3.644   4.442   5.310
 8072TIP3    H224139   3.521   4.529   5.303
 8073TIP3   OH224140   3.622   4.121   3.542
 8073TIP3    H124141   3.674   4.093   3.617
 8073TIP3    H224142   3.686   4.133   3.471
 8074TIP3   OH224143   4.260   4.594   5.133
 8074TIP3    H124144   4.206   4.614   5.057
 8074TIP3    H224145   4.291   4.505   5.117
 8075TIP3   OH224146   4.208   4.338   3.394
 8075TIP3    H124147   4.180   4.348   3.485
 8075TIP3    H224148   4.191   4.245   3.374
 8076TIP3   OH224149   3.807   4.057   3.741
 8076TIP3    H124150   3.776   4.026   3.826
 8076TIP3    H224151   3.850   3.982   3.701
 8077TIP3   OH224152   4.027   4.111   4.976
 8077TIP3    H124153   3.941   4.145   5.002
 8077TIP3    H224154   4.068   4.182   4.928
 8078TIP3   OH224155   3.942   3.868   3.589
 8078TIP3    H124156   3.913   3.875   3.497
 8078TIP3    H224157   4.037   3.874   3.585
 8079TIP3   OH224158   4.624   4.540   5.125
 8079TIP3    H124159   4.633   4.481   5.050
 8079TIP3    H224160   4.613   4.482   5.200
 8080TIP3   OH224161   4.740   4.161   3.274
 8080TIP3    H124162   4.724   4.119   3.190
 8080TIP3    H224163   4.716   4.252   3.260
 8081TIP3   OH224164   4.209   3.935   5.102
 8081TIP3    H124165   4.213   3.855   5.048
 8081TIP3    H224166   4.148   3.992   5.055
 8082TIP3   OH224167   4.227   3.704   4.930
 8082TIP3    H124168   4.250   3.750   4.849
 8082TIP3    H224169   4.137   3.676   4.917
 8083TIP3   OH224170   4.175   4.287   4.811
 8083TIP3    H124171   4.254   4.340   4.798
 8083TIP3    H224172   4.120   4.308   4.736
 8084TIP3   OH224173   4.823   4.205   5.166
 8084TIP3    H124174   4.878   4.128   5.159
 8084TIP3    H224175   4.883   4.279   5.159
 8085TIP3   OH224176   4.865   4.485   4.889
 8085TIP3    H124177   4.816   4.561   4.858
 8085TIP3    H224178   4.954   4.498   4.857
 8086TIP3   OH224179   4.110   3.982   5.365
 8086TIP3    H124180   4.030   3.931   5.377
 8086TIP3    H224181   4.127   3.980   5.271
 8087TIP3   OH224182   4.349   3.473   5.022
 8087TIP3    H124183   4.309   3.554   4.992
 8087TIP3    H224184   4.281   3.406   5.007
 8088TIP3   OH224185   4.465   3.948   5.219
 8088TIP3    H124186   4.446   3.931   5.312
 8088TIP3    H224187   4.380   3.941   5.176
 8089TIP3   OH224188   4.719   3.904   5.103
 8089TIP3    H124189   4.637   3.904   5.153
 8089TIP3    H224190   4.787   3.885   5.167
 8090TIP3   OH224191   4.962   3.871   5.249
 8090TIP3    H124192   4.971   3.776   5.254
 8090TIP3    H224193   4.955   3.899   5.340
 8091TIP3   OH224194   3.916   3.779   5.429
 8091TIP3    H124195   3.927   3.689   5.400
 8091TIP3    H224196   3.953   3.781   5.517
 8092TIP3   OH224197   4.412   3.448   5.288
 8092TIP3    H124198   4.480   3.382   5.279
 8092TIP3    H224199   4.381   3.463   5.199
 8093TIP3   OH224200   4.511   3.661   5.435
 8093TIP3    H124201   4.477   3.591   5.379
 8093TIP3    H224202   4.441   3.727   5.435
 8094TIP3   OH224203   3.767   4.920   3.533
 8094TIP3    H124204   3.855   4.899   3.503
 8094TIP3    H224205   3.727   4.966   3.459
 8095TIP3   OH224206   3.227   4.307   3.716
 8095TIP3    H124207   3.322   4.316   3.713
 8095TIP3    H224208   3.211   4.220   3.679
 8096TIP3   OH224209   3.127   4.892   4.170
 8096TIP3    H124210   3.064   4.835   4.125
 8096TIP3    H224211   3.176   4.834   4.228
 8097TIP3   OH224212   3.269   4.722   4.334
 8097TIP3    H124213   3.232   4.665   4.401
 8097TIP3    H224214   3.330   4.779   4.381
 8098TIP3   OH224215   5.031   5.183   4.164
 8098TIP3    H124216   5.035   5.165   4.258
 8098TIP3    H224217   5.041   5.278   4.157
 8099TIP3   OH224218   5.061   5.131   4.434
 8099TIP3    H124219   5.008   5.051   4.436
 8099TIP3    H224220   5.118   5.124   4.510
 8100TIP3   OH224221   5.089   4.856   4.973
 8100TIP3    H124222   5.012   4.862   5.029
 8100TIP3    H224223   5.136   4.939   4.987
 8101TIP3   OH224224   4.897   4.374   3.604
 8101TIP3    H124225   4.956   4.444   3.576
 8101TIP3    H224226   4.942   4.334   3.679
 8102TIP3   OH224227   5.024   4.229   3.800
 8102TIP3    H124228   4.963   4.183   3.857
 8102TIP3    H224229   5.097   4.252   3.857
 8103TIP3   OH224230   4.981   4.863   4.469
 8103TIP3    H124231   4.900   4.862   4.519
 8103TIP3    H224232   4.975   4.785   4.413
 8104TIP3   OH224233   4.941   4.143   3.460
 8104TIP3    H124234   4.872   4.142   3.394
 8104TIP3    H224235   4.923   4.222   3.511
 8105TIP3   OH224236   4.806   3.788   3.388
 8105TIP3    H124237   4.754   3.827   3.317
 8105TIP3    H224238   4.794   3.694   3.378
 8106TIP3   OH224239   4.837   4.076   3.938
 8106TIP3    H124240   4.837   3.983   3.917
 8106TIP3    H224241   4.824   4.079   4.033
 8107TIP3   OH224242   5.127   4.516   4.807
 8107TIP3    H124243   5.193   4.446   4.801
 8107TIP3    H224244   5.153   4.579   4.740
 8108TIP3   OH224245   5.295   4.300   4.838
 8108TIP3    H124246   5.220   4.251   4.872
 8108TIP3    H224247   5.368   4.240   4.843
 8109TIP3   OH224248   4.762   3.515   3.368
 8109TIP3    H124249   4.824   3.495   3.438
 8109TIP3    H224250   4.678   3.481   3.400
 8110TIP3   OH224251   4.823   3.809   3.833
 8110TIP3    H124252   4.867   3.726   3.850
 8110TIP3    H224253   4.865   3.843   3.754
 8111TIP3   OH224254   4.992   3.959   4.378
 8111TIP3    H124255   5.073   3.980   4.331
 8111TIP3    H224256   4.998   4.011   4.459
 8112TIP3   OH224257   5.058   4.141   4.588
 8112TIP3    H124258   4.990   4.165   4.651
 8112TIP3    H224259   5.072   4.220   4.536
 8113TIP3   OH224260   3.657   3.811   5.321
 8113TIP3    H124261   3.746   3.826   5.353
 8113TIP3    H224262   3.626   3.736   5.372
 8114TIP3   OH224263   5.516   3.713   5.130
 8114TIP3    H124264   5.582   3.661   5.085
 8114TIP3    H224265   5.477   3.767   5.061
 8115TIP3   OH224266   4.940   3.561   3.890
 8115TIP3    H124267   4.987   3.549   3.973
 8115TIP3    H224268   4.875   3.491   3.889
 8116TIP3   OH224269   3.656   3.557   4.742
 8116TIP3    H124270   3.710   3.478   4.732
 8116TIP3    H224271   3.715   3.629   4.719
 8117TIP3   OH224272   5.366   3.847   4.945
 8117TIP3    H124273   5.297   3.888   4.997
 8117TIP3    H224274   5.320   3.791   4.884
 8118TIP3   OH224275   4.988   3.471   3.525
 8118TIP3    H124276   5.040   3.409   3.474
 8118TIP3    H224277   5.042   3.550   3.530
 8119TIP3   OH224278   3.418   3.281   4.260
 8119TIP3    H124279   3.339   3.285   4.313
 8119TIP3    H224280   3.409   3.354   4.199
 8120TIP3   OH224281   4.566   5.048   3.800
 8120TIP3    H124282   4.630   5.040   3.729
 8120TIP3    H224283   4.606   5.110   3.861
 8121TIP3   OH224284   3.636   3.333   5.100
 8121TIP3    H124285   3.595   3.343   5.186
 8121TIP3    H224286   3.592   3.397   5.045
 8122TIP3   OH224287   3.681   4.793   5.128
 8122TIP3    H124288   3.595   4.788   5.169
 8122TIP3    H224289   3.725   4.711   5.153
 8123TIP3   OH224290   3.859   4.880   4.726
 8123TIP3    H124291   3.824   4.962   4.691
 8123TIP3    H224292   3.942   4.868   4.680
 8124TIP3   OH224293   4.283   5.082   4.881
 8124TIP3    H124294   4.336   5.063   4.958
 8124TIP3    H224295   4.343   5.125   4.820
 8125TIP3   OH224296   4.468   5.209   4.720
 8125TIP3    H124297   4.521   5.138   4.683
 8125TIP3    H224298   4.531   5.264   4.766
 8126TIP3   OH224299   5.270   3.594   4.824
 8126TIP3    H124300   5.187   3.593   4.777
 8126TIP3    H224301   5.303   3.504   4.815
 8127TIP3   OH224302   3.550   5.175   4.754
 8127TIP3    H124303   3.455   5.180   4.743
 8127TIP3    H224304   3.567   5.220   4.836
 8128TIP3   OH224305   3.779   5.120   4.618
 8128TIP3    H124306   3.698   5.136   4.667
 8128TIP3    H224307   3.756   5.141   4.527
 8129TIP3   OH224308   4.206   5.116   4.418
 8129TIP3    H124309   4.134   5.133   4.357
 8129TIP3    H224310   4.219   5.199   4.464
 8130TIP3   OH224311   4.491   5.094   4.385
 8130TIP3    H124312   4.398   5.098   4.407
 8130TIP3    H224313   4.533   5.064   4.466
 8131TIP3   OH224314   4.705   5.278   4.353
 8131TIP3    H124315   4.667   5.352   4.304
 8131TIP3    H224316   4.634   5.214   4.358
 8132TIP3   OH224317   3.452   4.883   4.476
 8132TIP3    H124318   3.472   4.859   4.567
 8132TIP3    H224319   3.530   4.858   4.427
 8133TIP3   OH224320   3.671   4.802   4.333
 8133TIP3    H124321   3.699   4.728   4.279
 8133TIP3    H224322   3.752   4.849   4.351
 8134TIP3   OH224323   3.939   4.883   4.347
 8134TIP3    H124324   3.989   4.819   4.298
 8134TIP3    H224325   3.982   4.887   4.432
 8135TIP3   OH224326   4.483   3.529   4.468
 8135TIP3    H124327   4.441   3.457   4.516
 8135TIP3    H224328   4.551   3.487   4.416
 8136TIP3   OH224329   4.981   3.419   4.335
 8136TIP3    H124330   5.019   3.475   4.268
 8136TIP3    H224331   4.891   3.451   4.344
 8137TIP3   OH224332   5.103   3.515   4.108
 8137TIP3    H124333   5.175   3.455   4.088
 8137TIP3    H224334   5.141   3.602   4.098
 8138TIP3   OH224335   3.724   3.215   4.451
 8138TIP3    H124336   3.634   3.185   4.459
 8138TIP3    H224337   3.776   3.134   4.449
 8139TIP3   OH224338   3.528   3.096   4.086
 8139TIP3    H124339   3.566   3.150   4.017
 8139TIP3    H224340   3.494   3.158   4.150
 8140TIP3   OH224341   4.207   3.251   4.356
 8140TIP3    H124342   4.248   3.305   4.288
 8140TIP3    H224343   4.238   3.288   4.438
 8141TIP3   OH224344   4.691   3.407   4.332
 8141TIP3    H124345   4.691   3.373   4.242
 8141TIP3    H224346   4.696   3.330   4.387
 8142TIP3   OH224347   4.751   3.351   3.899
 8142TIP3    H124348   4.674   3.399   3.930
 8142TIP3    H224349   4.738   3.262   3.932
 8143TIP3   OH224350   3.214   4.696   3.866
 8143TIP3    H124351   3.129   4.667   3.831
 8143TIP3    H224352   3.221   4.787   3.839
 8144TIP3   OH224353   3.658   3.239   3.872
 8144TIP3    H124354   3.710   3.181   3.816
 8144TIP3    H224355   3.721   3.302   3.907
 8145TIP3   OH224356   4.140   3.443   3.973
 8145TIP3    H124357   4.199   3.400   4.034
 8145TIP3    H224358   4.145   3.536   3.995
 8146TIP3   OH224359   4.021   4.844   3.463
 8146TIP3    H124360   4.104   4.873   3.425
 8146TIP3    H224361   3.992   4.772   3.407
 8147TIP3   OH224362   4.731   5.002   3.574
 8147TIP3    H124363   4.724   4.907   3.571
 8147TIP3    H224364   4.682   5.033   3.497
 8148TIP3   OH224365   3.942   3.500   5.342
 8148TIP3    H124366   3.909   3.431   5.399
 8148TIP3    H224367   4.034   3.510   5.368
 8149TIP3   OH224368   4.191   3.506   5.462
 8149TIP3    H124369   4.269   3.482   5.411
 8149TIP3    H224370   4.183   3.436   5.527
 8150TIP3   OH224371   3.328   4.688   3.524
 8150TIP3    H124372   3.327   4.697   3.619
 8150TIP3    H224373   3.410   4.641   3.505
 8151TIP3   OH224374   5.020   3.597   5.249
 8151TIP3    H124375   5.039   3.570   5.339
 8151TIP3    H224376   5.104   3.591   5.205
 8152TIP3   OH224377   4.913   5.080   4.743
 8152TIP3    H124378   4.847   5.020   4.707
 8152TIP3    H224379   4.874   5.167   4.732
 8153TIP3   OH224380   6.227   4.539   3.477
 8153TIP3    H124381   6.183   4.618   3.444
 8153TIP3    H224382   6.159   4.472   3.476
 8154TIP3   OH224383   6.518   4.785   3.628
 8154TIP3    H124384   6.426   4.757   3.635
 8154TIP3    H224385   6.514   4.880   3.643
 8155TIP3   OH224386   5.183   3.996   3.729
 8155TIP3    H124387   5.150   4.083   3.751
 8155TIP3    H224388   5.108   3.950   3.692
 8156TIP3   OH224389   5.262   4.280   3.927
 8156TIP3    H124390   5.309   4.214   3.978
 8156TIP3    H224391   5.331   4.338   3.893
 8157TIP3   OH224392   6.115   5.278   3.595
 8157TIP3    H124393   6.150   5.196   3.561
 8157TIP3    H224394   6.083   5.255   3.683
 8158TIP3   OH224395   6.982   4.051   3.906
 8158TIP3    H124396   7.032   4.106   3.968
 8158TIP3    H224397   7.043   4.036   3.834
 8159TIP3   OH224398   5.781   3.872   3.926
 8159TIP3    H124399   5.758   3.943   3.866
 8159TIP3    H224400   5.727   3.798   3.898
 8160TIP3   OH224401   6.479   3.982   3.564
 8160TIP3    H124402   6.543   3.981   3.635
 8160TIP3    H224403   6.527   4.016   3.489
 8161TIP3   OH224404   5.408   4.088   4.060
 8161TIP3    H124405   5.495   4.073   4.097
 8161TIP3    H224406   5.406   4.033   3.982
 8162TIP3   OH224407   5.820   4.272   3.837
 8162TIP3    H124408   5.907   4.244   3.866
 8162TIP3    H224409   5.775   4.191   3.813
 8163TIP3   OH224410   7.098   4.221   4.100
 8163TIP3    H124411   7.028   4.283   4.082
 8163TIP3    H224412   7.075   4.182   4.185
 8164TIP3   OH224413   5.755   3.876   4.376
 8164TIP3    H124414   5.710   3.913   4.301
 8164TIP3    H224415   5.699   3.895   4.450
 8165TIP3   OH224416   6.115   4.748   3.339
 8165TIP3    H124417   6.071   4.712   3.262
 8165TIP3    H224418   6.059   4.820   3.367
 8166TIP3   OH224419   6.663   4.005   3.771
 8166TIP3    H124420   6.629   3.992   3.859
 8166TIP3    H224421   6.758   4.010   3.782
 8167TIP3   OH224422   5.658   3.994   4.145
 8167TIP3    H124423   5.709   4.072   4.165
 8167TIP3    H224424   5.706   3.951   4.074
 8168TIP3   OH224425   5.073   4.562   3.489
 8168TIP3    H124426   5.038   4.578   3.402
 8168TIP3    H224427   5.096   4.648   3.523
 8169TIP3   OH224428   6.526   5.052   3.725
 8169TIP3    H124429   6.444   5.045   3.774
 8169TIP3    H224430   6.519   5.135   3.678
 8170TIP3   OH224431   6.837   3.934   4.119
 8170TIP3    H124432   6.745   3.939   4.091
 8170TIP3    H224433   6.887   3.959   4.042
 8171TIP3   OH224434   6.110   3.556   4.095
 8171TIP3    H124435   6.105   3.464   4.121
 8171TIP3    H224436   6.032   3.596   4.135
 8172TIP3   OH224437   6.231   5.095   3.416
 8172TIP3    H124438   6.284   5.016   3.404
 8172TIP3    H224439   6.284   5.165   3.377
 8173TIP3   OH224440   6.366   4.864   3.363
 8173TIP3    H124441   6.288   4.812   3.346
 8173TIP3    H224442   6.432   4.801   3.391
 8174TIP3   OH224443   6.758   4.997   4.074
 8174TIP3    H124444   6.707   4.927   4.033
 8174TIP3    H224445   6.737   5.075   4.022
 8175TIP3   OH224446   6.050   4.356   3.350
 8175TIP3    H124447   5.965   4.396   3.331
 8175TIP3    H224448   6.095   4.355   3.266
 8176TIP3   OH224449   6.012   4.167   3.034
 8176TIP3    H124450   6.078   4.213   3.086
 8176TIP3    H224451   6.062   4.097   2.990
 8177TIP3   OH224452   6.937   4.633   3.962
 8177TIP3    H124453   7.004   4.666   4.022
 8177TIP3    H224454   6.979   4.636   3.876
 8178TIP3   OH224455   6.415   4.442   3.307
 8178TIP3    H124456   6.356   4.475   3.375
 8178TIP3    H224457   6.491   4.409   3.355
 8179TIP3   OH224458   5.654   4.422   3.672
 8179TIP3    H124459   5.608   4.352   3.626
 8179TIP3    H224460   5.707   4.376   3.737
 8180TIP3   OH224461   6.303   5.036   3.877
 8180TIP3    H124462   6.274   5.122   3.908
 8180TIP3    H224463   6.243   4.974   3.917
 8181TIP3   OH224464   5.875   5.063   4.354
 8181TIP3    H124465   5.808   5.082   4.420
 8181TIP3    H224466   5.875   4.968   4.346
 8182TIP3   OH224467   6.236   4.306   3.142
 8182TIP3    H124468   6.299   4.362   3.189
 8182TIP3    H224469   6.264   4.312   3.050
 8183TIP3   OH224470   5.981   4.984   3.391
 8183TIP3    H124471   6.063   5.030   3.409
 8183TIP3    H224472   5.924   5.050   3.351
 8184TIP3   OH224473   5.649   5.124   4.500
 8184TIP3    H124474   5.597   5.165   4.431
 8184TIP3    H224475   5.587   5.109   4.572
 8185TIP3   OH224476   6.741   3.530   3.198
 8185TIP3    H124477   6.665   3.551   3.253
 8185TIP3    H224478   6.750   3.607   3.141
 8186TIP3   OH224479   5.498   4.251   3.501
 8186TIP3    H124480   5.419   4.301   3.479
 8186TIP3    H224481   5.465   4.162   3.519
 8187TIP3   OH224482   6.569   4.909   2.752
 8187TIP3    H124483   6.566   5.002   2.732
 8187TIP3    H224484   6.658   4.882   2.731
 8188TIP3   OH224485   6.978   5.294   4.147
 8188TIP3    H124486   6.981   5.200   4.164
 8188TIP3    H224487   6.897   5.324   4.190
 8189TIP3   OH224488   5.870   5.201   3.229
 8189TIP3    H124489   5.822   5.176   3.150
 8189TIP3    H224490   5.832   5.286   3.254
 8190TIP3   OH224491   5.296   5.038   3.626
 8190TIP3    H124492   5.285   5.041   3.721
 8190TIP3    H224493   5.245   4.963   3.598
 8191TIP3   OH224494   6.062   5.125   2.856
 8191TIP3    H124495   6.115   5.053   2.821
 8191TIP3    H224496   6.098   5.141   2.943
 8192TIP3   OH224497   6.124   5.177   3.122
 8192TIP3    H124498   6.041   5.177   3.170
 8192TIP3    H224499   6.189   5.152   3.186
 8193TIP3   OH224500   6.876   4.411   4.443
 8193TIP3    H124501   6.793   4.373   4.416
 8193TIP3    H224502   6.918   4.343   4.495
 8194TIP3   OH224503   5.876   3.641   4.220
 8194TIP3    H124504   5.782   3.633   4.203
 8194TIP3    H224505   5.888   3.730   4.253
 8195TIP3   OH224506   6.416   3.779   4.419
 8195TIP3    H124507   6.488   3.753   4.476
 8195TIP3    H224508   6.337   3.757   4.469
 8196TIP3   OH224509   6.660   4.254   4.367
 8196TIP3    H124510   6.602   4.236   4.441
 8196TIP3    H224511   6.616   4.213   4.292
 8197TIP3   OH224512   6.313   4.297   2.880
 8197TIP3    H124513   6.267   4.292   2.796
 8197TIP3    H224514   6.395   4.342   2.860
 8198TIP3   OH224515   6.020   3.704   3.195
 8198TIP3    H124516   5.985   3.711   3.284
 8198TIP3    H224517   5.984   3.622   3.161
 8199TIP3   OH224518   5.795   4.217   4.235
 8199TIP3    H124519   5.756   4.225   4.323
 8199TIP3    H224520   5.797   4.307   4.202
 8200TIP3   OH224521   5.672   4.054   3.756
 8200TIP3    H124522   5.584   4.031   3.783
 8200TIP3    H224523   5.679   4.022   3.666
 8201TIP3   OH224524   6.161   4.140   3.476
 8201TIP3    H124525   6.118   4.217   3.440
 8201TIP3    H224526   6.222   4.112   3.408
 8202TIP3   OH224527   6.361   4.456   4.575
 8202TIP3    H124528   6.304   4.380   4.589
 8202TIP3    H224529   6.448   4.426   4.601
 8203TIP3   OH224530   6.270   4.119   3.730
 8203TIP3    H124531   6.225   4.139   3.648
 8203TIP3    H224532   6.346   4.067   3.703
 8204TIP3   OH224533   5.673   4.219   4.486
 8204TIP3    H124534   5.606   4.267   4.535
 8204TIP3    H224535   5.662   4.128   4.514
 8205TIP3   OH224536   5.685   3.684   3.171
 8205TIP3    H124537   5.677   3.686   3.267
 8205TIP3    H224538   5.607   3.728   3.139
 8206TIP3   OH224539   5.241   3.735   4.041
 8206TIP3    H124540   5.308   3.773   4.098
 8206TIP3    H224541   5.284   3.729   3.956
 8207TIP3   OH224542   5.138   3.705   3.539
 8207TIP3    H124543   5.183   3.741   3.462
 8207TIP3    H224544   5.075   3.773   3.564
 8208TIP3   OH224545   6.041   3.854   3.801
 8208TIP3    H124546   5.966   3.858   3.860
 8208TIP3    H224547   6.117   3.845   3.859
 8209TIP3   OH224548   5.434   3.938   3.831
 8209TIP3    H124549   5.349   3.944   3.787
 8209TIP3    H224550   5.467   3.851   3.809
 8210TIP3   OH224551   5.693   3.941   3.507
 8210TIP3    H124552   5.787   3.958   3.501
 8210TIP3    H224553   5.659   3.964   3.420
 8211TIP3   OH224554   6.569   3.955   4.035
 8211TIP3    H124555   6.535   3.986   4.119
 8211TIP3    H224556   6.501   3.896   4.002
 8212TIP3   OH224557   5.586   3.976   3.257
 8212TIP3    H124558   5.524   3.926   3.204
 8212TIP3    H224559   5.640   4.023   3.194
 8213TIP3   OH224560   6.685   5.654   4.235
 8213TIP3    H124561   6.680   5.670   4.141
 8213TIP3    H224562   6.765   5.698   4.262
 8214TIP3   OH224563   6.075   4.195   3.916
 8214TIP3    H124564   6.144   4.163   3.858
 8214TIP3    H224565   6.090   4.150   3.999
 8215TIP3   OH224566   5.588   3.701   3.802
 8215TIP3    H124567   5.563   3.624   3.854
 8215TIP3    H224568   5.615   3.664   3.717
 8216TIP3   OH224569   6.054   4.117   4.220
 8216TIP3    H124570   5.965   4.152   4.220
 8216TIP3    H224571   6.097   4.159   4.295
 8217TIP3   OH224572   5.812   4.484   3.285
 8217TIP3    H124573   5.734   4.431   3.268
 8217TIP3    H224574   5.792   4.532   3.366
 8218TIP3   OH224575   6.273   3.808   3.197
 8218TIP3    H124576   6.180   3.786   3.195
 8218TIP3    H224577   6.274   3.903   3.210
 8219TIP3   OH224578   6.289   4.862   4.297
 8219TIP3    H124579   6.307   4.828   4.384
 8219TIP3    H224580   6.234   4.795   4.256
 8220TIP3   OH224581   6.332   4.072   3.264
 8220TIP3    H124582   6.427   4.077   3.276
 8220TIP3    H224583   6.310   4.151   3.214
 8221TIP3   OH224584   5.957   4.652   3.129
 8221TIP3    H124585   5.906   4.733   3.129
 8221TIP3    H224586   5.905   4.591   3.182
 8222TIP3   OH224587   6.119   4.588   4.603
 8222TIP3    H124588   6.051   4.530   4.569
 8222TIP3    H224589   6.201   4.543   4.582
 8223TIP3   OH224590   6.362   5.122   4.208
 8223TIP3    H124591   6.321   5.037   4.226
 8223TIP3    H224592   6.378   5.160   4.294
 8224TIP3   OH224593   6.743   4.159   3.081
 8224TIP3    H124594   6.688   4.112   3.018
 8224TIP3    H224595   6.749   4.248   3.047
 8225TIP3   OH224596   7.012   5.000   4.160
 8225TIP3    H124597   6.917   5.002   4.147
 8225TIP3    H224598   7.047   4.978   4.073
 8226TIP3   OH224599   6.483   4.974   3.013
 8226TIP3    H124600   6.455   4.900   3.067
 8226TIP3    H224601   6.506   4.935   2.929
 8227TIP3   OH224602   5.597   4.844   3.575
 8227TIP3    H124603   5.588   4.929   3.533
 8227TIP3    H224604   5.514   4.831   3.622
 8228TIP3   OH224605   5.183   4.130   3.328
 8228TIP3    H124606   5.224   4.214   3.349
 8228TIP3    H224607   5.101   4.131   3.378
 8229TIP3   OH224608   5.737   4.619   3.505
 8229TIP3    H124609   5.699   4.702   3.534
 8229TIP3    H224610   5.710   4.556   3.571
 8230TIP3   OH224611   5.512   5.086   3.458
 8230TIP3    H124612   5.435   5.077   3.514
 8230TIP3    H224613   5.542   5.176   3.473
 8231TIP3   OH224614   6.253   4.714   2.909
 8231TIP3    H124615   6.303   4.687   2.986
 8231TIP3    H224616   6.169   4.667   2.917
 8232TIP3   OH224617   6.499   5.332   4.085
 8232TIP3    H124618   6.437   5.262   4.106
 8232TIP3    H224619   6.458   5.380   4.013
 8233TIP3   OH224620   6.568   5.183   2.717
 8233TIP3    H124621   6.602   5.250   2.659
 8233TIP3    H224622   6.493   5.223   2.759
 8234TIP3   OH224623   5.590   3.961   4.579
 8234TIP3    H124624   5.495   3.973   4.584
 8234TIP3    H224625   5.611   3.907   4.655
 8235TIP3   OH224626   6.432   4.635   3.106
 8235TIP3    H124627   6.416   4.573   3.176
 8235TIP3    H224628   6.527   4.638   3.097
 8236TIP3   OH224629   5.300   5.010   4.200
 8236TIP3    H124630   5.310   4.916   4.186
 8236TIP3    H224631   5.221   5.018   4.254
 8237TIP3   OH224632   5.598   4.680   2.926
 8237TIP3    H124633   5.609   4.589   2.900
 8237TIP3    H224634   5.587   4.676   3.021
 8238TIP3   OH224635   5.543   4.705   3.200
 8238TIP3    H124636   5.600   4.678   3.271
 8238TIP3    H224637   5.543   4.801   3.204
 8239TIP3   OH224638   5.272   4.384   3.404
 8239TIP3    H124639   5.207   4.432   3.455
 8239TIP3    H224640   5.294   4.443   3.332
 8240TIP3   OH224641   6.485   4.019   4.295
 8240TIP3    H124642   6.467   4.071   4.373
 8240TIP3    H224643   6.460   3.930   4.320
 8241TIP3   OH224644   6.334   3.761   3.467
 8241TIP3    H124645   6.314   3.781   3.376
 8241TIP3    H224646   6.374   3.841   3.501
 8242TIP3   OH224647   5.811   4.880   3.127
 8242TIP3    H124648   5.730   4.906   3.170
 8242TIP3    H224649   5.837   4.956   3.075
 8243TIP3   OH224650   5.970   3.956   3.553
 8243TIP3    H124651   6.033   4.024   3.526
 8243TIP3    H224652   5.994   3.935   3.643
 8244TIP3   OH224653   6.146   3.650   3.638
 8244TIP3    H124654   6.121   3.726   3.692
 8244TIP3    H224655   6.216   3.683   3.582
 8245TIP3   OH224656   5.567   4.983   3.210
 8245TIP3    H124657   5.540   5.056   3.154
 8245TIP3    H224658   5.549   5.014   3.299
 8246TIP3   OH224659   5.659   3.670   3.449
 8246TIP3    H124660   5.647   3.761   3.478
 8246TIP3    H224661   5.753   3.655   3.457
 8247TIP3   OH224662   6.907   4.135   4.302
 8247TIP3    H124663   6.824   4.172   4.334
 8247TIP3    H224664   6.880   4.061   4.248
 8248TIP3   OH224665   5.303   4.562   3.189
 8248TIP3    H124666   5.375   4.625   3.199
 8248TIP3    H224667   5.335   4.499   3.124
 8249TIP3   OH224668   5.200   3.852   3.316
 8249TIP3    H124669   5.216   3.946   3.327
 8249TIP3    H224670   5.130   3.847   3.251
 8250TIP3   OH224671   6.541   5.320   3.644
 8250TIP3    H124672   6.498   5.372   3.576
 8250TIP3    H224673   6.634   5.341   3.634
 8251TIP3   OH224674   5.604   3.582   4.192
 8251TIP3    H124675   5.579   3.551   4.106
 8251TIP3    H224676   5.597   3.505   4.249
 8252TIP3   OH224677   5.115   4.836   3.558
 8252TIP3    H124678   5.054   4.862   3.627
 8252TIP3    H224679   5.078   4.874   3.479
 8253TIP3   OH224680   5.408   5.397   4.742
 8253TIP3    H124681   5.437   5.309   4.718
 8253TIP3    H224682   5.337   5.382   4.805
 8254TIP3   OH224683   5.819   5.286   4.653
 8254TIP3    H124684   5.899   5.240   4.676
 8254TIP3    H224685   5.765   5.220   4.609
 8255TIP3   OH224686   5.754   4.880   2.814
 8255TIP3    H124687   5.707   4.810   2.860
 8255TIP3    H224688   5.831   4.835   2.777
 8256TIP3   OH224689   6.411   5.221   4.460
 8256TIP3    H124690   6.426   5.151   4.524
 8256TIP3    H224691   6.486   5.280   4.471
 8257TIP3   OH224692   6.199   4.920   2.734
 8257TIP3    H124693   6.231   4.856   2.798
 8257TIP3    H224694   6.260   4.912   2.660
 8258TIP3   OH224695   5.418   4.791   4.810
 8258TIP3    H124696   5.469   4.710   4.807
 8258TIP3    H224697   5.335   4.769   4.767
 8259TIP3   OH224698   5.425   4.373   3.034
 8259TIP3    H124699   5.475   4.347   3.111
 8259TIP3    H224700   5.491   4.386   2.966
 8260TIP3   OH224701   6.054   4.852   4.604
 8260TIP3    H124702   6.064   4.870   4.511
 8260TIP3    H224703   6.082   4.761   4.614
 8261TIP3   OH224704   5.997   4.592   2.866
 8261TIP3    H124705   5.973   4.603   2.958
 8261TIP3    H224706   5.978   4.500   2.847
 8262TIP3   OH224707   6.547   4.844   4.190
 8262TIP3    H124708   6.587   4.931   4.193
 8262TIP3    H224709   6.456   4.859   4.212
 8263TIP3   OH224710   5.577   4.561   4.829
 8263TIP3    H124711   5.652   4.511   4.796
 8263TIP3    H224712   5.592   4.567   4.923
 8264TIP3   OH224713   5.597   4.314   3.245
 8264TIP3    H124714   5.573   4.283   3.333
 8264TIP3    H224715   5.645   4.241   3.207
 8265TIP3   OH224716   5.934   4.401   4.500
 8265TIP3    H124717   5.853   4.352   4.510
 8265TIP3    H224718   6.002   4.340   4.529
 8266TIP3   OH224719   5.740   4.131   3.089
 8266TIP3    H124720   5.710   4.136   2.999
 8266TIP3    H224721   5.835   4.140   3.084
 8267TIP3   OH224722   6.415   4.765   4.566
 8267TIP3    H124723   6.493   4.730   4.525
 8267TIP3    H224724   6.390   4.700   4.632
 8268TIP3   OH224725   6.534   4.424   2.769
 8268TIP3    H124726   6.521   4.380   2.685
 8268TIP3    H224727   6.508   4.514   2.754
 8269TIP3   OH224728   6.024   3.867   4.336
 8269TIP3    H124729   6.048   3.946   4.288
 8269TIP3    H224730   5.935   3.884   4.367
 8270TIP3   OH224731   6.624   4.413   4.684
 8270TIP3    H124732   6.660   4.325   4.698
 8270TIP3    H224733   6.697   4.463   4.647
 8271TIP3   OH224734   6.671   4.723   4.407
 8271TIP3    H124735   6.619   4.758   4.334
 8271TIP3    H224736   6.761   4.724   4.375
 8272TIP3   OH224737   5.884   4.279   4.816
 8272TIP3    H124738   5.842   4.195   4.832
 8272TIP3    H224739   5.954   4.259   4.753
 8273TIP3   OH224740   6.155   3.696   4.502
 8273TIP3    H124741   6.117   3.764   4.446
 8273TIP3    H224742   6.092   3.624   4.498
 8274TIP3   OH224743   6.460   4.156   4.540
 8274TIP3    H124744   6.367   4.168   4.559
 8274TIP3    H224745   6.497   4.119   4.621
 8275TIP3   OH224746   6.757   4.143   4.728
 8275TIP3    H124747   6.764   4.048   4.724
 8275TIP3    H224748   6.749   4.163   4.821
 8276TIP3   OH224749   5.739   4.035   4.904
 8276TIP3    H124750   5.748   3.946   4.869
 8276TIP3    H224751   5.783   4.032   4.989
 8277TIP3   OH224752   6.213   3.709   4.771
 8277TIP3    H124753   6.285   3.646   4.766
 8277TIP3    H224754   6.182   3.718   4.680
 8278TIP3   OH224755   6.304   3.920   4.928
 8278TIP3    H124756   6.275   3.852   4.866
 8278TIP3    H224757   6.234   3.986   4.924
 8279TIP3   OH224758   5.556   5.208   3.028
 8279TIP3    H124759   5.645   5.180   3.008
 8279TIP3    H224760   5.509   5.197   2.946
 8280TIP3   OH224761   5.028   4.564   3.193
 8280TIP3    H124762   5.123   4.572   3.196
 8280TIP3    H224763   5.012   4.477   3.159
 8281TIP3   OH224764   4.933   5.160   3.663
 8281TIP3    H124765   4.866   5.105   3.624
 8281TIP3    H224766   4.976   5.104   3.727
 8282TIP3   OH224767   5.068   4.996   3.838
 8282TIP3    H124768   5.006   4.952   3.896
 8282TIP3    H224769   5.130   5.039   3.898
 8283TIP3   OH224770   6.802   5.407   3.637
 8283TIP3    H124771   6.837   5.428   3.723
 8283TIP3    H224772   6.869   5.434   3.575
 8284TIP3   OH224773   6.838   5.423   3.922
 8284TIP3    H124774   6.785   5.344   3.911
 8284TIP3    H224775   6.905   5.397   3.985
 8285TIP3   OH224776   6.892   5.110   4.481
 8285TIP3    H124777   6.817   5.114   4.541
 8285TIP3    H224778   6.936   5.194   4.492
 8286TIP3   OH224779   6.710   4.623   3.108
 8286TIP3    H124780   6.769   4.693   3.079
 8286TIP3    H224781   6.755   4.585   3.184
 8287TIP3   OH224782   6.831   4.481   3.318
 8287TIP3    H124783   6.767   4.436   3.374
 8287TIP3    H224784   6.894   4.518   3.380
 8288TIP3   OH224785   6.677   5.200   3.915
 8288TIP3    H124786   6.607   5.242   3.965
 8288TIP3    H224787   6.632   5.158   3.842
 8289TIP3   OH224788   6.740   4.401   2.949
 8289TIP3    H124789   6.669   4.402   2.885
 8289TIP3    H224790   6.725   4.478   3.004
 8290TIP3   OH224791   6.594   4.046   2.881
 8290TIP3    H124792   6.545   4.080   2.806
 8290TIP3    H224793   6.587   3.950   2.873
 8291TIP3   OH224794   6.632   4.326   3.453
 8291TIP3    H124795   6.633   4.238   3.417
 8291TIP3    H224796   6.624   4.313   3.548
 8292TIP3   OH224797   6.932   4.757   4.308
 8292TIP3    H124798   6.991   4.683   4.290
 8292TIP3    H224799   6.963   4.827   4.251
 8293TIP3   OH224800   7.077   4.518   4.291
 8293TIP3    H124801   7.007   4.483   4.345
 8293TIP3    H224802   7.157   4.474   4.322
 8294TIP3   OH224803   6.556   3.773   2.852
 8294TIP3    H124804   6.620   3.749   2.918
 8294TIP3    H224805   6.473   3.737   2.884
 8295TIP3   OH224806   6.622   4.070   3.324
 8295TIP3    H124807   6.665   3.986   3.340
 8295TIP3    H224808   6.664   4.102   3.244
 8296TIP3   OH224809   6.772   4.367   3.779
 8296TIP3    H124810   6.866   4.362   3.758
 8296TIP3    H224811   6.760   4.305   3.851
 8297TIP3   OH224812   6.875   4.390   4.078
 8297TIP3    H124813   6.870   4.411   4.171
 8297TIP3    H224814   6.896   4.473   4.035
 8298TIP3   OH224815   5.471   4.085   4.849
 8298TIP3    H124816   5.565   4.082   4.863
 8298TIP3    H224817   5.438   4.005   4.890
 8299TIP3   OH224818   7.307   3.985   4.602
 8299TIP3    H124819   7.369   3.924   4.563
 8299TIP3    H224820   7.275   4.037   4.528
 8300TIP3   OH224821   6.736   3.820   3.378
 8300TIP3    H124822   6.781   3.806   3.461
 8300TIP3    H224823   6.674   3.748   3.371
 8301TIP3   OH224824   5.447   3.809   4.213
 8301TIP3    H124825   5.499   3.729   4.217
 8301TIP3    H224826   5.510   3.878   4.192
 8302TIP3   OH224827   5.230   4.053   4.278
 8302TIP3    H124828   5.281   4.055   4.197
 8302TIP3    H224829   5.269   4.122   4.332
 8303TIP3   OH224830   7.169   4.107   4.393
 8303TIP3    H124831   7.078   4.134   4.406
 8303TIP3    H224832   7.162   4.022   4.351
 8304TIP3   OH224833   6.779   3.731   3.013
 8304TIP3    H124834   6.826   3.670   2.957
 8304TIP3    H224835   6.837   3.808   3.018
 8305TIP3   OH224836   5.209   3.562   3.762
 8305TIP3    H124837   5.125   3.559   3.808
 8305TIP3    H224838   5.192   3.621   3.688
 8306TIP3   OH224839   6.360   5.290   3.279
 8306TIP3    H124840   6.419   5.280   3.205
 8306TIP3    H224841   6.402   5.356   3.334
 8307TIP3   OH224842   5.438   3.621   4.594
 8307TIP3    H124843   5.389   3.623   4.677
 8307TIP3    H224844   5.385   3.674   4.534
 8308TIP3   OH224845   5.450   5.121   4.696
 8308TIP3    H124846   5.359   5.098   4.679
 8308TIP3    H224847   5.471   5.076   4.778
 8309TIP3   OH224848   6.032   5.309   4.282
 8309TIP3    H124849   6.061   5.296   4.372
 8309TIP3    H224850   6.096   5.369   4.244
 8310TIP3   OH224851   6.246   5.493   4.227
 8310TIP3    H124852   6.316   5.439   4.192
 8310TIP3    H224853   6.291   5.556   4.284
 8311TIP3   OH224854   7.091   3.855   4.300
 8311TIP3    H124855   7.010   3.859   4.250
 8311TIP3    H224856   7.139   3.782   4.261
 8312TIP3   OH224857   5.332   5.398   4.272
 8312TIP3    H124858   5.247   5.432   4.243
 8312TIP3    H224859   5.318   5.303   4.277
 8313TIP3   OH224860   5.619   5.356   4.143
 8313TIP3    H124861   5.524   5.368   4.152
 8313TIP3    H224862   5.628   5.293   4.071
 8314TIP3   OH224863   5.990   5.390   3.853
 8314TIP3    H124864   5.897   5.376   3.835
 8314TIP3    H224865   5.993   5.468   3.909
 8315TIP3   OH224866   6.241   5.303   3.926
 8315TIP3    H124867   6.151   5.329   3.904
 8315TIP3    H224868   6.295   5.372   3.887
 8316TIP3   OH224869   6.445   5.479   3.848
 8316TIP3    H124870   6.447   5.568   3.811
 8316TIP3    H224871   6.478   5.423   3.777
 8317TIP3   OH224872   5.316   5.128   3.947
 8317TIP3    H124873   5.301   5.095   4.036
 8317TIP3    H224874   5.411   5.134   3.940
 8318TIP3   OH224875   6.261   3.757   3.939
 8318TIP3    H124876   6.229   3.685   3.993
 8318TIP3    H224877   6.343   3.726   3.902
 8319TIP3   OH224878   6.801   3.679   3.838
 8319TIP3    H124879   6.830   3.728   3.761
 8319TIP3    H224880   6.707   3.699   3.846
 8320TIP3   OH224881   6.896   3.772   3.598
 8320TIP3    H124882   6.963   3.708   3.575
 8320TIP3    H224883   6.937   3.857   3.581
 8321TIP3   OH224884   5.525   3.475   3.949
 8321TIP3    H124885   5.436   3.442   3.963
 8321TIP3    H224886   5.579   3.397   3.940
 8322TIP3   OH224887   5.347   3.371   3.606
 8322TIP3    H124888   5.372   3.420   3.527
 8322TIP3    H224889   5.307   3.437   3.663
 8323TIP3   OH224890   6.000   3.510   3.837
 8323TIP3    H124891   6.048   3.559   3.771
 8323TIP3    H224892   6.039   3.536   3.920
 8324TIP3   OH224893   6.509   3.666   3.836
 8324TIP3    H124894   6.514   3.634   3.746
 8324TIP3    H224895   6.510   3.587   3.890
 8325TIP3   OH224896   6.552   3.608   3.383
 8325TIP3    H124897   6.473   3.656   3.409
 8325TIP3    H224898   6.542   3.522   3.422
 8326TIP3   OH224899   5.018   4.951   3.324
 8326TIP3    H124900   4.929   4.925   3.299
 8326TIP3    H224901   5.021   5.045   3.309
 8327TIP3   OH224902   5.448   3.503   3.362
 8327TIP3    H124903   5.494   3.444   3.302
 8327TIP3    H224904   5.517   3.560   3.398
 8328TIP3   OH224905   5.934   3.702   3.458
 8328TIP3    H124906   5.995   3.653   3.514
 8328TIP3    H224907   5.943   3.793   3.487
 8329TIP3   OH224908   5.804   5.109   2.956
 8329TIP3    H124909   5.890   5.132   2.921
 8329TIP3    H224910   5.776   5.034   2.904
 8330TIP3   OH224911   6.515   5.243   3.053
 8330TIP3    H124912   6.509   5.148   3.045
 8330TIP3    H224913   6.473   5.277   2.973
 8331TIP3   OH224914   5.746   3.758   4.823
 8331TIP3    H124915   5.712   3.692   4.883
 8331TIP3    H224916   5.839   3.766   4.846
 8332TIP3   OH224917   5.995   3.764   4.941
 8332TIP3    H124918   6.072   3.747   4.888
 8332TIP3    H224919   5.993   3.692   5.005
 8333TIP3   OH224920   5.123   4.936   3.019
 8333TIP3    H124921   5.112   4.931   3.114
 8333TIP3    H224922   5.205   4.891   3.002
 8334TIP3   OH224923   6.818   3.868   4.731
 8334TIP3    H124924   6.836   3.835   4.818
 8334TIP3    H224925   6.900   3.855   4.682
 8335TIP3   OH224926   6.730   5.380   4.240
 8335TIP3    H124927   6.653   5.350   4.190
 8335TIP3    H224928   6.717   5.475   4.248
 8336TIP3   OH224929   7.957   4.782   3.022
 8336TIP3    H124930   7.929   4.867   2.989
 8336TIP3    H224931   7.895   4.720   2.985
 8337TIP3   OH224932   7.986   4.771   3.403
 8337TIP3    H124933   8.027   4.744   3.485
 8337TIP3    H224934   7.946   4.691   3.369
 8338TIP3   OH224935   7.316   4.652   3.789
 8338TIP3    H124936   7.346   4.577   3.840
 8338TIP3    H224937   7.380   4.661   3.719
 8339TIP3   OH224938   8.316   5.054   3.093
 8339TIP3    H124939   8.269   5.003   3.159
 8339TIP3    H224940   8.308   5.145   3.122
 8340TIP3   OH224941   7.293   5.052   3.446
 8340TIP3    H124942   7.277   4.958   3.445
 8340TIP3    H224943   7.388   5.061   3.433
 8341TIP3   OH224944   6.980   4.259   3.219
 8341TIP3    H124945   6.939   4.340   3.248
 8341TIP3    H224946   6.908   4.209   3.179
 8342TIP3   OH224947   7.054   4.582   3.469
 8342TIP3    H124948   7.107   4.504   3.483
 8342TIP3    H224949   7.116   4.647   3.435
 8343TIP3   OH224950   7.935   5.501   3.103
 8343TIP3    H124951   7.955   5.436   3.036
 8343TIP3    H224952   7.945   5.455   3.186
 8344TIP3   OH224953   7.811   4.991   3.420
 8344TIP3    H124954   7.855   4.912   3.389
 8344TIP3    H224955   7.882   5.047   3.451
 8345TIP3   OH224956   8.757   4.349   3.425
 8345TIP3    H124957   8.807   4.399   3.489
 8345TIP3    H224958   8.798   4.263   3.423
 8346TIP3   OH224959   8.200   4.461   3.467
 8346TIP3    H124960   8.231   4.376   3.499
 8346TIP3    H224961   8.167   4.443   3.379
 8347TIP3   OH224962   7.580   4.130   3.403
 8347TIP3    H124963   7.557   4.203   3.346
 8347TIP3    H224964   7.525   4.057   3.373
 8348TIP3   OH224965   8.245   4.212   3.112
 8348TIP3    H124966   8.329   4.215   3.159
 8348TIP3    H224967   8.270   4.211   3.019
 8349TIP3   OH224968   7.211   4.357   3.522
 8349TIP3    H124969   7.292   4.329   3.564
 8349TIP3    H224970   7.207   4.306   3.441
 8350TIP3   OH224971   7.611   4.547   3.359
 8350TIP3    H124972   7.706   4.533   3.363
 8350TIP3    H224973   7.577   4.465   3.322
 8351TIP3   OH224974   0.054   4.459   3.587
 8351TIP3    H124975   0.034   4.552   3.574
 8351TIP3    H224976   0.131   4.458   3.643
 8352TIP3   OH224977   7.556   4.142   3.862
 8352TIP3    H124978   7.499   4.173   3.791
 8352TIP3    H224979   7.501   4.147   3.940
 8353TIP3   OH224980   7.863   4.985   2.866
 8353TIP3    H124981   7.846   4.967   2.773
 8353TIP3    H224982   7.822   5.069   2.882
 8354TIP3   OH224983   7.655   4.905   3.632
 8354TIP3    H124984   7.601   4.978   3.663
 8354TIP3    H224985   7.705   4.941   3.559
 8355TIP3   OH224986   8.450   4.267   3.287
 8355TIP3    H124987   8.383   4.234   3.347
 8355TIP3    H224988   8.466   4.357   3.315
 8356TIP3   OH224989   7.445   4.238   3.622
 8356TIP3    H124990   7.502   4.311   3.646
 8356TIP3    H224991   7.493   4.191   3.554
 8357TIP3   OH224992   7.498   5.113   3.728
 8357TIP3    H124993   7.487   5.202   3.694
 8357TIP3    H224994   7.419   5.098   3.780
 8358TIP3   OH224995   6.877   4.815   2.987
 8358TIP3    H124996   6.843   4.834   2.900
 8358TIP3    H224997   6.900   4.901   3.022
 8359TIP3   OH224998   8.293   5.313   3.192
 8359TIP3    H124999   8.210   5.304   3.240
 8359TIP3    H225000   8.288   5.400   3.152
 8360TIP3   OH225001   8.545   4.220   3.568
 8360TIP3    H125002   8.469   4.179   3.526
 8360TIP3    H225003   8.592   4.262   3.496
 8361TIP3   OH225004   7.873   3.831   3.589
 8361TIP3    H125005   7.874   3.739   3.617
 8361TIP3    H225006   7.795   3.868   3.630
 8362TIP3   OH225007   8.013   5.348   2.883
 8362TIP3    H125008   8.071   5.272   2.878
 8362TIP3    H225009   8.067   5.422   2.855
 8363TIP3   OH225010   8.187   5.142   2.849
 8363TIP3    H125011   8.177   5.076   2.782
 8363TIP3    H225012   8.234   5.098   2.920
 8364TIP3   OH225013   8.435   5.183   3.491
 8364TIP3    H125014   8.478   5.125   3.427
 8364TIP3    H225015   8.477   5.268   3.478
 8365TIP3   OH225016   7.816   4.617   2.847
 8365TIP3    H125017   7.737   4.664   2.820
 8365TIP3    H225018   7.869   4.613   2.767
 8366TIP3   OH225019   7.796   4.429   2.517
 8366TIP3    H125020   7.856   4.482   2.570
 8366TIP3    H225021   7.851   4.361   2.480
 8367TIP3   OH225022   8.135   4.733   2.823
 8367TIP3    H125023   8.078   4.756   2.896
 8367TIP3    H225024   8.210   4.690   2.864
 8368TIP3   OH225025   8.350   4.756   3.712
 8368TIP3    H125026   8.341   4.828   3.775
 8368TIP3    H225027   8.263   4.745   3.675
 8369TIP3   OH225028   7.418   4.680   3.202
 8369TIP3    H125029   7.385   4.619   3.136
 8369TIP3    H225030   7.491   4.633   3.243
 8370TIP3   OH225031   7.556   5.101   3.346
 8370TIP3    H125032   7.537   5.088   3.254
 8370TIP3    H225033   7.644   5.065   3.358
 8371TIP3   OH225034   7.510   4.676   3.581
 8371TIP3    H125035   7.547   4.639   3.501
 8371TIP3    H225036   7.563   4.754   3.598
 8372TIP3   OH225037   8.069   5.304   3.346
 8372TIP3    H125038   8.054   5.385   3.394
 8372TIP3    H225039   8.056   5.235   3.411
 8373TIP3   OH225040   7.694   5.212   3.900
 8373TIP3    H125041   7.631   5.268   3.945
 8373TIP3    H225042   7.640   5.160   3.840
 8374TIP3   OH225043   7.998   4.585   2.636
 8374TIP3    H125044   8.054   4.644   2.686
 8374TIP3    H225045   8.025   4.597   2.545
 8375TIP3   OH225046   7.465   4.782   4.030
 8375TIP3    H125047   7.456   4.875   4.053
 8375TIP3    H225048   7.396   4.767   3.965
 8376TIP3   OH225049   7.759   5.242   2.884
 8376TIP3    H125050   7.846   5.280   2.893
 8376TIP3    H225051   7.709   5.306   2.834
 8377TIP3   OH225052   7.481   5.370   3.980
 8377TIP3    H125053   7.461   5.381   3.887
 8377TIP3    H225054   7.395   5.360   4.021
 8378TIP3   OH225055   8.542   3.804   2.693
 8378TIP3    H125056   8.472   3.854   2.736
 8378TIP3    H225057   8.550   3.844   2.606
 8379TIP3   OH225058   7.299   4.520   3.000
 8379TIP3    H125059   7.220   4.565   2.970
 8379TIP3    H225060   7.271   4.429   3.016
 8380TIP3   OH225061   8.308   5.137   2.220
 8380TIP3    H125062   8.282   5.225   2.194
 8380TIP3    H225063   8.398   5.129   2.188
 8381TIP3   OH225064   7.113   4.898   3.920
 8381TIP3    H125065   7.083   4.857   3.839
 8381TIP3    H225066   7.142   4.824   3.975
 8382TIP3   OH225067   6.965   5.118   3.546
 8382TIP3    H125068   7.058   5.094   3.546
 8382TIP3    H225069   6.956   5.179   3.619
 8383TIP3   OH225070   8.732   5.648   3.595
 8383TIP3    H125071   8.787   5.575   3.622
 8383TIP3    H225072   8.652   5.638   3.646
 8384TIP3   OH225073   7.877   5.360   3.760
 8384TIP3    H125074   7.870   5.450   3.791
 8384TIP3    H225075   7.812   5.312   3.811
 8385TIP3   OH225076   7.662   5.454   2.713
 8385TIP3    H125077   7.617   5.436   2.631
 8385TIP3    H225078   7.627   5.538   2.742
 8386TIP3   OH225079   7.101   5.310   3.092
 8386TIP3    H125080   7.145   5.303   3.177
 8386TIP3    H225081   7.053   5.228   3.083
 8387TIP3   OH225082   7.866   5.390   2.340
 8387TIP3    H125083   7.913   5.314   2.307
 8387TIP3    H225084   7.899   5.401   2.429
 8388TIP3   OH225085   7.916   5.423   2.611
 8388TIP3    H125086   7.830   5.429   2.652
 8388TIP3    H225087   7.973   5.386   2.678
 8389TIP3   OH225088   8.527   4.658   3.940
 8389TIP3    H125089   8.535   4.727   3.874
 8389TIP3    H225090   8.604   4.603   3.926
 8390TIP3   OH225091   7.279   5.118   3.897
 8390TIP3    H125092   7.329   5.110   3.978
 8390TIP3    H225093   7.215   5.046   3.901
 8391TIP3   OH225094   7.648   3.924   3.714
 8391TIP3    H125095   7.563   3.891   3.685
 8391TIP3    H225096   7.627   4.002   3.766
 8392TIP3   OH225097   8.192   4.051   3.929
 8392TIP3    H125098   8.258   4.007   3.983
 8392TIP3    H225099   8.109   4.029   3.972
 8393TIP3   OH225100   8.326   4.486   3.792
 8393TIP3    H125101   8.315   4.478   3.887
 8393TIP3    H225102   8.340   4.580   3.778
 8394TIP3   OH225103   8.060   4.586   2.371
 8394TIP3    H125104   8.012   4.565   2.290
 8394TIP3    H225105   8.138   4.633   2.341
 8395TIP3   OH225106   7.806   3.951   2.692
 8395TIP3    H125107   7.769   3.958   2.780
 8395TIP3    H225108   7.768   3.871   2.656
 8396TIP3   OH225109   7.599   4.447   3.711
 8396TIP3    H125110   7.563   4.453   3.799
 8396TIP3    H225111   7.574   4.529   3.669
 8397TIP3   OH225112   7.481   4.331   3.243
 8397TIP3    H125113   7.391   4.304   3.266
 8397TIP3    H225114   7.493   4.299   3.154
 8398TIP3   OH225115   7.946   4.418   2.982
 8398TIP3    H125116   7.894   4.492   2.950
 8398TIP3    H225117   7.988   4.382   2.905
 8399TIP3   OH225118   8.137   4.678   4.055
 8399TIP3    H125119   8.108   4.608   4.114
 8399TIP3    H225120   8.227   4.694   4.080
 8400TIP3   OH225121   8.102   4.424   3.213
 8400TIP3    H125122   8.044   4.444   3.140
 8400TIP3    H225123   8.148   4.345   3.185
 8401TIP3   OH225124   7.436   4.450   3.940
 8401TIP3    H125125   7.506   4.494   3.990
 8401TIP3    H225126   7.417   4.371   3.991
 8402TIP3   OH225127   7.474   3.940   2.661
 8402TIP3    H125128   7.466   3.944   2.757
 8402TIP3    H225129   7.395   3.985   2.629
 8403TIP3   OH225130   7.029   3.993   3.518
 8403TIP3    H125131   7.101   4.027   3.571
 8403TIP3    H225132   7.070   3.965   3.436
 8404TIP3   OH225133   6.935   3.963   3.027
 8404TIP3    H125134   6.981   3.998   2.951
 8404TIP3    H225135   6.871   4.030   3.050
 8405TIP3   OH225136   8.104   4.660   3.627
 8405TIP3    H125137   8.145   4.595   3.569
 8405TIP3    H225138   8.078   4.610   3.704
 8406TIP3   OH225139   7.849   4.115   3.297
 8406TIP3    H125140   7.769   4.117   3.351
 8406TIP3    H225141   7.919   4.097   3.360
 8407TIP3   OH225142   7.241   4.205   3.295
 8407TIP3    H125143   7.153   4.208   3.259
 8407TIP3    H225144   7.270   4.115   3.282
 8408TIP3   OH225145   7.495   4.210   2.997
 8408TIP3    H125146   7.590   4.217   2.987
 8408TIP3    H225147   7.460   4.226   2.910
 8409TIP3   OH225148   8.266   4.174   3.469
 8409TIP3    H125149   8.253   4.187   3.562
 8409TIP3    H225150   8.199   4.111   3.443
 8410TIP3   OH225151   7.380   4.232   2.749
 8410TIP3    H125152   7.317   4.183   2.697
 8410TIP3    H225153   7.434   4.278   2.685
 8411TIP3   OH225154   8.465   5.918   3.709
 8411TIP3    H125155   8.453   5.931   3.615
 8411TIP3    H225156   8.545   5.967   3.730
 8412TIP3   OH225157   7.428   5.042   4.130
 8412TIP3    H125158   7.511   5.056   4.175
 8412TIP3    H225159   7.362   5.049   4.199
 8413TIP3   OH225160   7.883   4.496   3.395
 8413TIP3    H125161   7.953   4.456   3.343
 8413TIP3    H225162   7.890   4.454   3.481
 8414TIP3   OH225163   7.386   3.956   3.288
 8414TIP3    H125164   7.358   3.881   3.340
 8414TIP3    H225165   7.414   3.919   3.204
 8415TIP3   OH225166   7.867   4.395   3.661
 8415TIP3    H125167   7.775   4.418   3.680
 8415TIP3    H225168   7.917   4.443   3.727
 8416TIP3   OH225169   7.588   4.757   2.770
 8416TIP3    H125170   7.515   4.698   2.750
 8416TIP3    H225171   7.565   4.795   2.855
 8417TIP3   OH225172   8.513   4.995   3.304
 8417TIP3    H125173   8.497   5.019   3.213
 8417TIP3    H225174   8.431   4.954   3.333
 8418TIP3   OH225175   8.032   4.084   2.632
 8418TIP3    H125176   7.946   4.044   2.650
 8418TIP3    H225177   8.027   4.170   2.672
 8419TIP3   OH225178   8.001   5.085   3.806
 8419TIP3    H125179   8.051   5.071   3.887
 8419TIP3    H225180   7.967   5.174   3.815
 8420TIP3   OH225181   8.061   4.332   2.747
 8420TIP3    H125182   8.152   4.309   2.765
 8420TIP3    H225183   8.066   4.415   2.699
 8421TIP3   OH225184   7.285   4.764   3.430
 8421TIP3    H125185   7.321   4.745   3.343
 8421TIP3    H225186   7.352   4.735   3.491
 8422TIP3   OH225187   7.752   4.907   2.613
 8422TIP3    H125188   7.706   4.991   2.611
 8422TIP3    H225189   7.697   4.851   2.668
 8423TIP3   OH225190   7.167   4.704   4.111
 8423TIP3    H125191   7.236   4.743   4.164
 8423TIP3    H225192   7.147   4.621   4.155
 8424TIP3   OH225193   7.916   4.842   4.066
 8424TIP3    H125194   7.872   4.823   3.984
 8424TIP3    H225195   8.001   4.798   4.060
 8425TIP3   OH225196   8.144   5.372   3.682
 8425TIP3    H125197   8.048   5.363   3.686
 8425TIP3    H225198   8.168   5.411   3.766
 8426TIP3   OH225199   8.565   4.389   2.594
 8426TIP3    H125200   8.488   4.331   2.588
 8426TIP3    H225201   8.538   4.469   2.551
 8427TIP3   OH225202   8.636   5.354   3.618
 8427TIP3    H125203   8.582   5.376   3.694
 8427TIP3    H225204   8.724   5.382   3.642
 8428TIP3   OH225205   8.278   5.211   2.498
 8428TIP3    H125206   8.278   5.138   2.561
 8428TIP3    H225207   8.278   5.168   2.412
 8429TIP3   OH225208   8.244   4.888   3.315
 8429TIP3    H125209   8.152   4.878   3.340
 8429TIP3    H225210   8.269   4.803   3.279
 8430TIP3   OH225211   7.422   5.107   3.098
 8430TIP3    H125212   7.424   5.183   3.039
 8430TIP3    H225213   7.329   5.096   3.119
 8431TIP3   OH225214   6.978   4.388   2.810
 8431TIP3    H125215   7.021   4.470   2.833
 8431TIP3    H225216   6.897   4.389   2.861
 8432TIP3   OH225217   7.498   4.859   3.002
 8432TIP3    H125218   7.487   4.949   3.033
 8432TIP3    H225219   7.473   4.805   3.077
 8433TIP3   OH225220   7.699   5.427   3.550
 8433TIP3    H125221   7.734   5.502   3.501
 8433TIP3    H225222   7.774   5.397   3.602
 8434TIP3   OH225223   7.334   5.329   2.945
 8434TIP3    H125224   7.248   5.334   2.986
 8434TIP3    H225225   7.370   5.418   2.951
 8435TIP3   OH225226   8.049   5.092   3.531
 8435TIP3    H125227   8.032   5.084   3.625
 8435TIP3    H225228   8.140   5.064   3.520
 8436TIP3   OH225229   8.022   4.969   2.407
 8436TIP3    H125230   8.055   4.967   2.497
 8436TIP3    H225231   7.937   4.925   2.412
 8437TIP3   OH225232   8.279   5.600   3.576
 8437TIP3    H125233   8.213   5.530   3.582
 8437TIP3    H225234   8.259   5.645   3.494
 8438TIP3   OH225235   8.244   5.397   2.160
 8438TIP3    H125236   8.263   5.455   2.087
 8438TIP3    H225237   8.190   5.451   2.219
 8439TIP3   OH225238   7.384   4.209   4.077
 8439TIP3    H125239   7.289   4.209   4.086
 8439TIP3    H225240   7.415   4.154   4.149
 8440TIP3   OH225241   8.158   4.943   2.648
 8440TIP3    H125242   8.131   4.880   2.714
 8440TIP3    H225243   8.233   4.903   2.605
 8441TIP3   OH225244   7.119   5.333   3.718
 8441TIP3    H125245   7.174   5.275   3.769
 8441TIP3    H225246   7.136   5.420   3.753
 8442TIP3   OH225247   7.396   4.934   2.407
 8442TIP3    H125248   7.407   4.843   2.381
 8442TIP3    H225249   7.383   4.931   2.502
 8443TIP3   OH225250   7.340   4.950   2.679
 8443TIP3    H125251   7.410   4.923   2.739
 8443TIP3    H225252   7.340   5.046   2.686
 8444TIP3   OH225253   7.072   4.639   2.891
 8444TIP3    H125254   7.009   4.688   2.943
 8444TIP3    H225255   7.093   4.697   2.818
 8445TIP3   OH225256   8.228   4.234   3.727
 8445TIP3    H125257   8.262   4.316   3.761
 8445TIP3    H225258   8.217   4.179   3.804
 8446TIP3   OH225259   8.082   4.003   2.919
 8446TIP3    H125260   8.056   4.001   2.828
 8446TIP3    H225261   8.118   4.091   2.932
 8447TIP3   OH225262   7.608   5.136   2.613
 8447TIP3    H125263   7.525   5.160   2.654
 8447TIP3    H225264   7.633   5.212   2.562
 8448TIP3   OH225265   7.775   4.211   3.048
 8448TIP3    H125266   7.832   4.285   3.025
 8448TIP3    H225267   7.800   4.189   3.137
 8449TIP3   OH225268   8.034   4.515   3.851
 8449TIP3    H125269   8.056   4.578   3.920
 8449TIP3    H225270   8.092   4.441   3.867
 8450TIP3   OH225271   7.933   3.902   3.132
 8450TIP3    H125272   7.920   3.982   3.183
 8450TIP3    H225273   7.991   3.929   3.061
 8451TIP3   OH225274   7.359   5.223   2.694
 8451TIP3    H125275   7.340   5.295   2.634
 8451TIP3    H225276   7.350   5.262   2.781
 8452TIP3   OH225277   7.446   3.935   2.940
 8452TIP3    H125278   7.435   4.026   2.968
 8452TIP3    H225279   7.541   3.920   2.947
 8453TIP3   OH225280   8.572   4.381   3.775
 8453TIP3    H125281   8.486   4.422   3.775
 8453TIP3    H225282   8.570   4.320   3.701
 8454TIP3   OH225283   8.305   4.634   3.226
 8454TIP3    H125284   8.230   4.575   3.233
 8454TIP3    H225285   8.373   4.593   3.280
 8455TIP3   OH225286   7.097   4.817   2.674
 8455TIP3    H125287   7.169   4.879   2.684
 8455TIP3    H225288   7.127   4.754   2.609
 8456TIP3   OH225289   7.001   4.110   2.805
 8456TIP3    H125290   7.014   4.204   2.813
 8456TIP3    H225291   6.939   4.100   2.733
 8457TIP3   OH225292   8.313   5.581   3.120
 8457TIP3    H125293   8.269   5.639   3.058
 8457TIP3    H225294   8.405   5.603   3.113
 8458TIP3   OH225295   7.389   3.840   3.668
 8458TIP3    H125296   7.365   3.805   3.582
 8458TIP3    H225297   7.383   3.766   3.728
 8459TIP3   OH225298   6.926   5.086   3.069
 8459TIP3    H125299   6.886   5.125   3.146
 8459TIP3    H225300   6.884   5.130   2.995
 8460TIP3   OH225301   7.137   5.629   4.138
 8460TIP3    H125302   7.215   5.641   4.191
 8460TIP3    H225303   7.138   5.537   4.113
 8461TIP3   OH225304   7.590   5.531   4.175
 8461TIP3    H125305   7.681   5.504   4.185
 8461TIP3    H225306   7.557   5.479   4.102
 8462TIP3   OH225307   7.553   5.135   2.299
 8462TIP3    H125308   7.506   5.066   2.345
 8462TIP3    H225309   7.627   5.090   2.257
 8463TIP3   OH225310   8.196   5.469   3.931
 8463TIP3    H125311   8.208   5.397   3.993
 8463TIP3    H225312   8.270   5.527   3.948
 8464TIP3   OH225313   7.988   5.174   2.227
 8464TIP3    H125314   8.020   5.109   2.290
 8464TIP3    H225315   8.051   5.171   2.156
 8465TIP3   OH225316   7.229   5.035   4.326
 8465TIP3    H125317   7.257   4.944   4.337
 8465TIP3    H225318   7.144   5.028   4.283
 8466TIP3   OH225319   7.216   4.627   2.518
 8466TIP3    H125320   7.266   4.602   2.596
 8466TIP3    H225321   7.282   4.641   2.451
 8467TIP3   OH225322   7.850   5.114   4.104
 8467TIP3    H125323   7.807   5.133   4.021
 8467TIP3    H225324   7.892   5.029   4.090
 8468TIP3   OH225325   7.772   4.843   2.348
 8468TIP3    H125326   7.752   4.854   2.442
 8468TIP3    H225327   7.750   4.751   2.330
 8469TIP3   OH225328   8.298   5.139   3.716
 8469TIP3    H125329   8.353   5.147   3.638
 8469TIP3    H225330   8.238   5.214   3.711
 8470TIP3   OH225331   7.350   4.783   4.306
 8470TIP3    H125332   7.429   4.760   4.257
 8470TIP3    H225333   7.379   4.789   4.397
 8471TIP3   OH225334   7.387   4.570   2.732
 8471TIP3    H125335   7.369   4.540   2.822
 8471TIP3    H225336   7.436   4.498   2.693
 8472TIP3   OH225337   7.669   4.611   3.965
 8472TIP3    H125338   7.609   4.678   3.997
 8472TIP3    H225339   7.730   4.659   3.908
 8473TIP3   OH225340   7.528   4.387   2.578
 8473TIP3    H125341   7.497   4.390   2.487
 8473TIP3    H225342   7.623   4.398   2.571
 8474TIP3   OH225343   8.169   5.019   4.067
 8474TIP3    H125344   8.239   4.987   4.009
 8474TIP3    H225345   8.182   4.969   4.148
 8475TIP3   OH225346   8.324   4.651   2.268
 8475TIP3    H125347   8.293   4.588   2.204
 8475TIP3    H225348   8.287   4.735   2.241
 8476TIP3   OH225349   7.803   4.415   4.102
 8476TIP3    H125350   7.814   4.341   4.042
 8476TIP3    H225351   7.764   4.484   4.047
 8477TIP3   OH225352   7.816   4.223   3.895
 8477TIP3    H125353   7.844   4.254   3.809
 8477TIP3    H225354   7.725   4.196   3.882
 8478TIP3   OH225355   7.828   4.774   3.807
 8478TIP3    H125356   7.910   4.771   3.758
 8478TIP3    H225357   7.769   4.824   3.751
 8479TIP3   OH225358   8.391   4.673   4.174
 8479TIP3    H125359   8.416   4.590   4.215
 8479TIP3    H225360   8.441   4.675   4.092
 8480TIP3   OH225361   8.385   4.966   3.903
 8480TIP3    H125362   8.358   5.034   3.840
 8480TIP3    H225363   8.475   4.946   3.878
 8481TIP3   OH225364   7.690   4.512   4.341
 8481TIP3    H125365   7.627   4.445   4.365
 8481TIP3    H225366   7.722   4.486   4.254
 8482TIP3   OH225367   7.927   3.987   3.994
 8482TIP3    H125368   7.887   4.068   3.963
 8482TIP3    H225369   7.858   3.921   3.984
 8483TIP3   OH225370   8.058   4.463   4.202
 8483TIP3    H125371   8.060   4.446   4.296
 8483TIP3    H225372   7.968   4.440   4.176
 8484TIP3   OH225373   8.272   4.397   4.041
 8484TIP3    H125374   8.197   4.404   4.100
 8484TIP3    H225375   8.348   4.391   4.098
 8485TIP3   OH225376   8.483   4.394   4.216
 8485TIP3    H125377   8.486   4.298   4.223
 8485TIP3    H225378   8.498   4.425   4.305
 8486TIP3   OH225379   7.542   4.286   4.413
 8486TIP3    H125380   7.539   4.199   4.373
 8486TIP3    H225381   7.584   4.272   4.498
 8487TIP3   OH225382   7.984   3.962   4.260
 8487TIP3    H125383   8.048   3.891   4.258
 8487TIP3    H225384   7.958   3.973   4.169
 8488TIP3   OH225385   8.083   4.172   4.406
 8488TIP3    H125386   8.054   4.100   4.350
 8488TIP3    H225387   8.010   4.235   4.402
 8489TIP3   OH225388   7.357   5.434   2.512
 8489TIP3    H125389   7.446   5.412   2.485
 8489TIP3    H225390   7.320   5.480   2.437
 8490TIP3   OH225391   6.823   4.815   2.694
 8490TIP3    H125392   6.918   4.826   2.690
 8490TIP3    H225393   6.807   4.730   2.652
 8491TIP3   OH225394   6.723   5.398   3.146
 8491TIP3    H125395   6.657   5.344   3.102
 8491TIP3    H225396   6.768   5.337   3.205
 8492TIP3   OH225397   6.873   5.236   3.311
 8492TIP3    H125398   6.876   5.168   3.378
 8492TIP3    H225399   6.920   5.310   3.350
 8493TIP3   OH225400   8.571   5.670   3.096
 8493TIP3    H125401   8.579   5.692   3.189
 8493TIP3    H225402   8.661   5.676   3.063
 8494TIP3   OH225403   8.551   5.695   3.382
 8494TIP3    H125404   8.516   5.605   3.380
 8494TIP3    H225405   8.633   5.687   3.431
 8495TIP3   OH225406   8.652   5.349   3.934
 8495TIP3    H125407   8.590   5.317   3.999
 8495TIP3    H225408   8.671   5.439   3.960
 8496TIP3   OH225409   8.450   5.015   2.635
 8496TIP3    H125410   8.536   5.012   2.594
 8496TIP3    H225411   8.467   4.994   2.727
 8497TIP3   OH225412   8.546   4.902   2.873
 8497TIP3    H125413   8.531   4.818   2.829
 8497TIP3    H225414   8.517   4.887   2.963
 8498TIP3   OH225415   8.447   5.443   3.384
 8498TIP3    H125416   8.385   5.462   3.455
 8498TIP3    H225417   8.397   5.392   3.321
 8499TIP3   OH225418   8.544   4.607   2.443
 8499TIP3    H125419   8.500   4.624   2.359
 8499TIP3    H225420   8.622   4.662   2.441
 8500TIP3   OH225421   8.274   4.449   2.542
 8500TIP3    H125422   8.285   4.543   2.547
 8500TIP3    H225423   8.242   4.433   2.453
 8501TIP3   OH225424   8.335   4.609   2.955
 8501TIP3    H125425   8.385   4.527   2.948
 8501TIP3    H225426   8.332   4.627   3.048
 8502TIP3   OH225427   7.051   4.696   3.724
 8502TIP3    H125428   7.035   4.664   3.635
 8502TIP3    H225429   7.144   4.679   3.740
 8503TIP3   OH225430   8.629   4.873   3.805
 8503TIP3    H125431   8.721   4.863   3.829
 8503TIP3    H225432   8.628   4.946   3.743
 8504TIP3   OH225433   0.001   4.834   3.843
 8504TIP3    H125434  -0.025   4.793   3.925
 8504TIP3    H225435   0.095   4.851   3.854
 8505TIP3   OH225436   8.282   4.030   2.333
 8505TIP3    H125437   8.317   4.005   2.418
 8505TIP3    H225438   8.199   3.982   2.326
 8506TIP3   OH225439   8.468   4.387   2.858
 8506TIP3    H125440   8.544   4.342   2.895
 8506TIP3    H225441   8.497   4.414   2.771
 8507TIP3   OH225442   8.517   4.522   3.364
 8507TIP3    H125443   8.605   4.520   3.328
 8507TIP3    H225444   8.523   4.578   3.442
 8508TIP3   OH225445   8.574   4.720   3.549
 8508TIP3    H125446   8.505   4.728   3.615
 8508TIP3    H225447   8.571   4.802   3.500
 8509TIP3   OH225448   7.283   4.370   4.398
 8509TIP3    H125449   7.376   4.351   4.399
 8509TIP3    H225450   7.241   4.284   4.404
 8510TIP3   OH225451   8.515   4.103   2.969
 8510TIP3    H125452   8.591   4.097   2.912
 8510TIP3    H225453   8.489   4.012   2.983
 8511TIP3   OH225454   7.231   4.065   3.697
 8511TIP3    H125455   7.279   3.982   3.703
 8511TIP3    H225456   7.298   4.129   3.673
 8512TIP3   OH225457   7.042   4.369   3.744
 8512TIP3    H125458   7.088   4.360   3.660
 8512TIP3    H225459   7.104   4.336   3.809
 8513TIP3   OH225460   0.116   4.554   3.945
 8513TIP3    H125461   0.024   4.559   3.917
 8513TIP3    H225462   0.112   4.512   4.030
 8514TIP3   OH225463   7.007   3.831   3.256
 8514TIP3    H125464   6.921   3.819   3.297
 8514TIP3    H225465   6.989   3.885   3.178
 8515TIP3   OH225466   8.139   5.562   2.777
 8515TIP3    H125467   8.190   5.542   2.699
 8515TIP3    H225468   8.191   5.626   2.825
 8516TIP3   OH225469   7.246   5.357   4.137
 8516TIP3    H125470   7.156   5.325   4.136
 8516TIP3    H225471   7.275   5.345   4.228
 8517TIP3   OH225472   7.472   5.391   3.698
 8517TIP3    H125473   7.422   5.466   3.668
 8517TIP3    H225474   7.557   5.398   3.655
 8518TIP3   OH225475   7.868   5.627   3.839
 8518TIP3    H125476   7.906   5.619   3.927
 8518TIP3    H225477   7.934   5.675   3.789
 8519TIP3   OH225478   8.066   5.770   3.709
 8519TIP3    H125479   8.134   5.718   3.667
 8519TIP3    H225480   8.114   5.831   3.765
 8520TIP3   OH225481   8.838   4.161   3.689
 8520TIP3    H125482   8.748   4.130   3.696
 8520TIP3    H225483   8.889   4.101   3.744
 8521TIP3   OH225484   7.135   5.627   3.754
 8521TIP3    H125485   7.045   5.649   3.730
 8521TIP3    H225486   7.160   5.694   3.817
 8522TIP3   OH225487   7.364   5.623   3.598
 8522TIP3    H125488   7.280   5.627   3.645
 8522TIP3    H225489   7.341   5.647   3.508
 8523TIP3   OH225490   7.769   5.642   3.390
 8523TIP3    H125491   7.699   5.655   3.327
 8523TIP3    H225492   7.783   5.728   3.429
 8524TIP3   OH225493   8.026   5.559   3.432
 8524TIP3    H125494   7.937   5.588   3.416
 8524TIP3    H225495   8.081   5.627   3.392
 8525TIP3   OH225496   8.221   5.730   3.335
 8525TIP3    H125497   8.230   5.819   3.304
 8525TIP3    H225498   8.255   5.676   3.264
 8526TIP3   OH225499   7.042   5.417   3.464
 8526TIP3    H125500   7.064   5.390   3.553
 8526TIP3    H225501   7.112   5.381   3.410
 8527TIP3   OH225502   7.244   5.296   3.328
 8527TIP3    H125503   7.255   5.212   3.371
 8527TIP3    H225504   7.331   5.336   3.330
 8528TIP3   OH225505   7.513   5.380   3.348
 8528TIP3    H125506   7.532   5.287   3.333
 8528TIP3    H225507   7.569   5.404   3.422
 8529TIP3   OH225508   8.057   3.976   3.440
 8529TIP3    H125509   7.988   3.942   3.497
 8529TIP3    H225510   8.115   3.902   3.426
 8530TIP3   OH225511   8.550   3.984   3.405
 8530TIP3    H125512   8.597   4.045   3.348
 8530TIP3    H225513   8.464   3.974   3.364
 8531TIP3   OH225514   7.312   3.728   3.427
 8531TIP3    H125515   7.224   3.693   3.441
 8531TIP3    H225516   7.368   3.650   3.426
 8532TIP3   OH225517   7.118   3.632   3.081
 8532TIP3    H125518   7.151   3.682   3.007
 8532TIP3    H225519   7.090   3.698   3.144
 8533TIP3   OH225520   7.776   3.774   3.328
 8533TIP3    H125521   7.829   3.822   3.265
 8533TIP3    H225522   7.812   3.797   3.413
 8534TIP3   OH225523   8.336   3.911   3.250
 8534TIP3    H125524   8.264   3.943   3.195
 8534TIP3    H225525   8.295   3.846   3.307
 8535TIP3   OH225526   8.337   3.890   2.887
 8535TIP3    H125527   8.249   3.927   2.896
 8535TIP3    H225528   8.328   3.799   2.917
 8536TIP3   OH225529   6.811   5.210   2.854
 8536TIP3    H125530   6.727   5.175   2.824
 8536TIP3    H225531   6.813   5.299   2.818
 8537TIP3   OH225532   7.240   3.764   2.850
 8537TIP3    H125533   7.287   3.702   2.794
 8537TIP3    H225534   7.308   3.820   2.887
 8538TIP3   OH225535   7.720   3.960   2.953
 8538TIP3    H125536   7.776   3.905   3.008
 8538TIP3    H225537   7.739   4.050   2.981
 8539TIP3   OH225538   7.612   5.360   2.442
 8539TIP3    H125539   7.695   5.388   2.404
 8539TIP3    H225540   7.583   5.288   2.386
 8540TIP3   OH225541   8.269   5.484   2.544
 8540TIP3    H125542   8.268   5.389   2.533
 8540TIP3    H225543   8.236   5.519   2.461
 8541TIP3   OH225544   7.530   4.020   4.323
 8541TIP3    H125545   7.498   3.946   4.374
 8541TIP3    H225546   7.624   4.023   4.342
 8542TIP3   OH225547   7.782   4.020   4.444
 8542TIP3    H125548   7.855   3.995   4.388
 8542TIP3    H225549   7.774   3.948   4.507
 8543TIP3   OH225550   6.926   5.207   2.499
 8543TIP3    H125551   6.928   5.214   2.594
 8543TIP3    H225552   7.005   5.159   2.476
 8544TIP3   OH225553   8.512   4.122   4.252
 8544TIP3    H125554   8.529   4.086   4.339
 8544TIP3    H225555   8.599   4.146   4.219
 8545TIP3   OH225556   8.498   5.643   3.738
 8545TIP3    H125557   8.423   5.617   3.685
 8545TIP3    H225558   8.491   5.738   3.744
 8546TIP3   OH225559   8.780   4.533   2.693
 8546TIP3    H125560   8.752   4.616   2.656
 8546TIP3    H225561   8.720   4.468   2.656
 8547TIP3   OH225562   8.708   5.045   2.523
 8547TIP3    H125563   8.742   5.038   2.434
 8547TIP3    H225564   8.679   5.136   2.530
 8548TIP3   OH225565   8.669   5.369   3.031
 8548TIP3    H125566   8.739   5.403   3.086
 8548TIP3    H225567   8.597   5.350   3.091
 8549TIP3   OH225568   8.841   4.937   3.450
 8549TIP3    H125569   8.882   4.997   3.512
 8549TIP3    H225570   8.866   4.850   3.480
 8550TIP3   OH225571   8.853   5.482   3.209
 8550TIP3    H125572   8.925   5.448   3.262
 8550TIP3    H225573   8.838   5.571   3.243
 8551TIP3   OH225574   8.849   5.370   2.572
 8551TIP3    H125575   8.844   5.450   2.624
 8551TIP3    H225576   8.812   5.394   2.487
 8552TIP3   OH225577   8.883   5.870   3.603
 8552TIP3    H125578   8.933   5.861   3.685
 8552TIP3    H225579   8.830   5.790   3.599
 8553TIP3   OH225580   0.255   5.333   3.814
 8553TIP3    H125581   0.243   5.277   3.737
 8553TIP3    H225582   0.181   5.313   3.871
 8554TIP3   OH225583   8.568   5.069   2.129
 8554TIP3    H125584   8.654   5.045   2.164
 8554TIP3    H225585   8.523   4.986   2.115
 8555TIP3   OH225586   8.475   5.658   2.610
 8555TIP3    H125587   8.411   5.598   2.571
 8555TIP3    H225588   8.506   5.612   2.688
 8556TIP3   OH225589   8.555   5.544   2.846
 8556TIP3    H125590   8.584   5.465   2.889
 8556TIP3    H225591   8.540   5.607   2.917
 8557TIP3   OH225592   8.862   4.628   3.272
 8557TIP3    H125593   8.895   4.542   3.300
 8557TIP3    H225594   8.931   4.664   3.217
 8558TIP3   OH225595   0.216   5.568   3.613
 8558TIP3    H125596   0.134   5.525   3.639
 8558TIP3    H225597   0.256   5.593   3.696
 8559TIP3   OH225598   8.808   5.751   3.261
 8559TIP3    H125599   8.746   5.820   3.238
 8559TIP3    H225600   8.885   5.798   3.295
 8560TIP3   OH225601   8.831   5.657   2.987
 8560TIP3    H125602   8.852   5.590   3.051
 8560TIP3    H225603   8.912   5.669   2.936
 8561TIP3   OH225604   8.724   5.518   2.378
 8561TIP3    H125605   8.630   5.507   2.365
 8561TIP3    H225606   8.746   5.598   2.329
 8562TIP3   OH225607   8.643   5.417   2.071
 8562TIP3    H125608   8.617   5.506   2.094
 8562TIP3    H225609   8.660   5.375   2.155
 8563TIP3   OH225610   0.507   5.536   4.729
 8563TIP3    H125611   0.490   5.629   4.718
 8563TIP3    H225612   0.449   5.492   4.667
 8564TIP3   OH225613   0.539   5.559   5.064
 8564TIP3    H125614   0.604   5.558   5.134
 8564TIP3    H225615   0.507   5.469   5.060
 8565TIP3   OH225616   0.732   5.871   4.740
 8565TIP3    H125617   0.741   5.799   4.802
 8565TIP3    H225618   0.750   5.950   4.790
 8566TIP3   OH225619   0.470   6.407   4.820
 8566TIP3    H125620   0.417   6.330   4.800
 8566TIP3    H225621   0.494   6.396   4.912
 8567TIP3   OH225622   0.215   5.841   5.074
 8567TIP3    H125623   0.148   5.777   5.051
 8567TIP3    H225624   0.273   5.794   5.134
 8568TIP3   OH225625   1.308   5.092   5.108
 8568TIP3    H125626   1.328   5.178   5.145
 8568TIP3    H225627   1.341   5.096   5.019
 8569TIP3   OH225628   0.774   5.272   5.167
 8569TIP3    H125629   0.796   5.179   5.168
 8569TIP3    H225630   0.679   5.274   5.159
 8570TIP3   OH225631   0.756   5.025   4.729
 8570TIP3    H125632   0.820   5.018   4.800
 8570TIP3    H225633   0.807   5.058   4.655
 8571TIP3   OH225634   1.373   5.312   5.272
 8571TIP3    H125635   1.284   5.348   5.269
 8571TIP3    H225636   1.408   5.342   5.356
 8572TIP3   OH225637   0.390   5.751   4.603
 8572TIP3    H125638   0.394   5.710   4.517
 8572TIP3    H225639   0.377   5.844   4.585
 8573TIP3   OH225640   0.909   5.046   4.948
 8573TIP3    H125641   0.868   5.020   5.031
 8573TIP3    H225642   0.967   5.118   4.972
 8574TIP3   OH225643   0.782   6.109   4.891
 8574TIP3    H125644   0.725   6.108   4.968
 8574TIP3    H225645   0.771   6.197   4.855
 8575TIP3   OH225646   1.108   4.992   5.277
 8575TIP3    H125647   1.025   5.007   5.232
 8575TIP3    H225648   1.174   5.014   5.212
 8576TIP3   OH225649   0.471   4.572   5.220
 8576TIP3    H125650   0.488   4.479   5.234
 8576TIP3    H225651   0.427   4.601   5.300
 8577TIP3   OH225652   0.555   6.148   4.584
 8577TIP3    H125653   0.601   6.069   4.554
 8577TIP3    H225654   0.600   6.220   4.541
 8578TIP3   OH225655   0.654   5.916   4.481
 8578TIP3    H125656   0.660   5.836   4.429
 8578TIP3    H225657   0.685   5.891   4.568
 8579TIP3   OH225658   1.011   6.001   5.245
 8579TIP3    H125659   0.993   5.928   5.185
 8579TIP3    H225660   0.997   6.079   5.192
 8580TIP3   OH225661   0.330   5.410   4.569
 8580TIP3    H125662   0.245   5.394   4.609
 8580TIP3    H225663   0.310   5.432   4.478
 8581TIP3   OH225664   0.354   5.178   4.243
 8581TIP3    H125665   0.419   5.229   4.291
 8581TIP3    H225666   0.405   5.124   4.183
 8582TIP3   OH225667   1.187   5.661   5.122
 8582TIP3    H125668   1.102   5.705   5.116
 8582TIP3    H225669   1.223   5.668   5.033
 8583TIP3   OH225670   0.681   5.511   4.512
 8583TIP3    H125671   0.635   5.526   4.594
 8583TIP3    H225672   0.764   5.470   4.537
 8584TIP3   OH225673   0.930   5.536   5.437
 8584TIP3    H125674   0.926   5.610   5.498
 8584TIP3    H225675   0.863   5.556   5.371
 8585TIP3   OH225676   0.646   6.121   5.132
 8585TIP3    H125677   0.561   6.153   5.101
 8585TIP3    H225678   0.631   6.029   5.152
 8586TIP3   OH225679   0.550   5.339   4.342
 8586TIP3    H125680   0.586   5.407   4.399
 8586TIP3    H225681   0.576   5.365   4.254
 8587TIP3   OH225682   0.331   6.006   4.505
 8587TIP3    H125683   0.387   6.064   4.557
 8587TIP3    H225684   0.244   6.018   4.542
 8588TIP3   OH225685   0.990   4.571   4.373
 8588TIP3    H125686   0.913   4.591   4.425
 8588TIP3    H225687   1.003   4.648   4.317
 8589TIP3   OH225688   0.826   5.965   3.942
 8589TIP3    H125689   0.821   6.057   3.913
 8589TIP3    H225690   0.915   5.938   3.921
 8590TIP3   OH225691   1.249   6.361   5.324
 8590TIP3    H125692   1.251   6.266   5.332
 8590TIP3    H225693   1.172   6.388   5.375
 8591TIP3   OH225694   0.386   6.165   4.036
 8591TIP3    H125695   0.432   6.092   3.995
 8591TIP3    H225696   0.425   6.171   4.124
 8592TIP3   OH225697   0.464   6.147   4.293
 8592TIP3    H125698   0.424   6.094   4.361
 8592TIP3    H225699   0.552   6.109   4.282
 8593TIP3   OH225700   1.140   5.475   5.616
 8593TIP3    H125701   1.069   5.478   5.552
 8593TIP3    H225702   1.163   5.382   5.621
 8594TIP3   OH225703   0.727   4.838   5.574
 8594TIP3    H125704   0.801   4.801   5.621
 8594TIP3    H225705   0.673   4.879   5.642
 8595TIP3   OH225706   0.922   5.267   5.485
 8595TIP3    H125707   0.889   5.248   5.573
 8595TIP3    H225708   0.907   5.361   5.474
 8596TIP3   OH225709   0.624   5.403   4.093
 8596TIP3    H125710   0.577   5.365   4.019
 8596TIP3    H225711   0.705   5.438   4.055
 8597TIP3   OH225712   0.383   4.697   4.368
 8597TIP3    H125713   0.360   4.705   4.461
 8597TIP3    H225714   0.313   4.643   4.330
 8598TIP3   OH225715   0.450   5.185   4.663
 8598TIP3    H125716   0.420   5.264   4.617
 8598TIP3    H225717   0.503   5.139   4.599
 8599TIP3   OH225718   0.706   5.450   5.721
 8599TIP3    H125719   0.662   5.387   5.777
 8599TIP3    H225720   0.792   5.463   5.761
 8600TIP3   OH225721   0.571   5.152   4.903
 8600TIP3    H125722   0.529   5.175   4.821
 8600TIP3    H225723   0.646   5.098   4.878
 8601TIP3   OH225724   8.816   4.666   4.345
 8601TIP3    H125725   8.775   4.588   4.382
 8601TIP3    H225726   8.747   4.732   4.345
 8602TIP3   OH225727   0.717   5.517   5.267
 8602TIP3    H125728   0.757   5.441   5.224
 8602TIP3    H225729   0.672   5.480   5.344
 8603TIP3   OH225730   0.233   4.790   4.934
 8603TIP3    H125731   0.141   4.777   4.953
 8603TIP3    H225732   0.252   4.879   4.964
 8604TIP3   OH225733   0.058   5.107   4.506
 8604TIP3    H125734   0.064   5.057   4.587
 8604TIP3    H225735  -0.036   5.118   4.492
 8605TIP3   OH225736   0.759   4.990   5.173
 8605TIP3    H125737   0.741   5.006   5.266
 8605TIP3    H225738   0.692   4.927   5.147
 8606TIP3   OH225739   0.968   6.704   5.415
 8606TIP3    H125740   0.962   6.718   5.320
 8606TIP3    H225741   1.043   6.757   5.442
 8607TIP3   OH225742   0.506   5.285   5.130
 8607TIP3    H125743   0.522   5.240   5.047
 8607TIP3    H225744   0.473   5.217   5.189
 8608TIP3   OH225745   0.406   5.132   5.329
 8608TIP3    H125746   0.313   5.117   5.315
 8608TIP3    H225747   0.411   5.175   5.414
 8609TIP3   OH225748   0.956   5.802   5.064
 8609TIP3    H125749   0.998   5.851   4.994
 8609TIP3    H225750   0.884   5.755   5.020
 8610TIP3   OH225751   0.542   4.903   4.280
 8610TIP3    H125752   0.478   4.845   4.322
 8610TIP3    H225753   0.559   4.971   4.345
 8611TIP3   OH225754   0.500   5.844   5.461
 8611TIP3    H125755   0.497   5.767   5.518
 8611TIP3    H225756   0.409   5.869   5.449
 8612TIP3   OH225757   0.621   5.103   4.457
 8612TIP3    H125758   0.716   5.104   4.467
 8612TIP3    H225759   0.601   5.185   4.411
 8613TIP3   OH225760   0.097   5.711   4.283
 8613TIP3    H125761   0.109   5.805   4.299
 8613TIP3    H225762   0.002   5.698   4.289
 8614TIP3   OH225763   0.504   5.630   5.632
 8614TIP3    H125764   0.414   5.603   5.647
 8614TIP3    H225765   0.557   5.568   5.681
 8615TIP3   OH225766   0.640   6.260   5.367
 8615TIP3    H125767   0.648   6.207   5.287
 8615TIP3    H225768   0.651   6.198   5.438
 8616TIP3   OH225769   0.999   5.205   4.257
 8616TIP3    H125770   0.940   5.160   4.196
 8616TIP3    H225771   1.006   5.294   4.222
 8617TIP3   OH225772   1.253   6.086   5.340
 8617TIP3    H125773   1.160   6.065   5.336
 8617TIP3    H225774   1.289   6.054   5.258
 8618TIP3   OH225775   0.709   6.029   4.200
 8618TIP3    H125776   0.712   5.958   4.264
 8618TIP3    H225777   0.742   5.989   4.119
 8619TIP3   OH225778   0.759   5.659   4.925
 8619TIP3    H125779   0.671   5.642   4.958
 8619TIP3    H225780   0.792   5.573   4.899
 8620TIP3   OH225781   0.598   5.860   5.193
 8620TIP3    H125782   0.544   5.845   5.271
 8620TIP3    H225783   0.681   5.816   5.213
 8621TIP3   OH225784   0.558   5.751   4.087
 8621TIP3    H125785   0.607   5.733   4.168
 8621TIP3    H225786   0.467   5.732   4.109
 8622TIP3   OH225787   0.818   6.411   5.227
 8622TIP3    H125788   0.746   6.376   5.279
 8622TIP3    H225789   0.776   6.472   5.165
 8623TIP3   OH225790   0.820   6.236   3.886
 8623TIP3    H125791   0.863   6.309   3.840
 8623TIP3    H225792   0.743   6.274   3.926
 8624TIP3   OH225793   0.709   5.703   4.314
 8624TIP3    H125794   0.689   5.632   4.375
 8624TIP3    H225795   0.802   5.693   4.295
 8625TIP3   OH225796   0.734   5.080   5.431
 8625TIP3    H125797   0.813   5.132   5.441
 8625TIP3    H225798   0.742   5.012   5.498
 8626TIP3   OH225799   0.595   4.836   4.616
 8626TIP3    H125800   0.545   4.883   4.550
 8626TIP3    H225801   0.651   4.902   4.656
 8627TIP3   OH225802   0.217   5.053   4.740
 8627TIP3    H125803   0.299   5.081   4.702
 8627TIP3    H225804   0.239   5.032   4.831
 8628TIP3   OH225805   0.629   5.350   5.479
 8628TIP3    H125806   0.668   5.386   5.559
 8628TIP3    H225807   0.670   5.264   5.469
 8629TIP3   OH225808   0.484   4.675   4.808
 8629TIP3    H125809   0.477   4.732   4.885
 8629TIP3    H225810   0.536   4.726   4.746
 8630TIP3   OH225811   8.723   4.658   4.615
 8630TIP3    H125812   8.788   4.729   4.620
 8630TIP3    H225813   8.775   4.578   4.629
 8631TIP3   OH225814   1.180   5.196   5.491
 8631TIP3    H125815   1.087   5.216   5.489
 8631TIP3    H225816   1.193   5.136   5.417
 8632TIP3   OH225817   0.828   5.384   4.884
 8632TIP3    H125818   0.754   5.332   4.916
 8632TIP3    H225819   0.903   5.353   4.935
 8633TIP3   OH225820   0.796   6.386   4.837
 8633TIP3    H125821   0.761   6.432   4.760
 8633TIP3    H225822   0.891   6.395   4.828
 8634TIP3   OH225823   8.882   5.926   4.101
 8634TIP3    H125824   8.818   5.875   4.050
 8634TIP3    H225825   8.884   6.011   4.057
 8635TIP3   OH225826   0.651   6.333   5.684
 8635TIP3    H125827   0.686   6.245   5.683
 8635TIP3    H225828   0.726   6.390   5.667
 8636TIP3   OH225829   0.500   5.954   3.909
 8636TIP3    H125830   0.546   5.897   3.970
 8636TIP3    H225831   0.557   5.957   3.832
 8637TIP3   OH225832   0.282   5.660   4.079
 8637TIP3    H125833   0.233   5.691   4.155
 8637TIP3    H225834   0.305   5.570   4.100
 8638TIP3   OH225835   0.820   5.875   5.396
 8638TIP3    H125836   0.885   5.927   5.348
 8638TIP3    H225837   0.759   5.940   5.431
 8639TIP3   OH225838   8.776   5.197   4.262
 8639TIP3    H125839   8.864   5.163   4.249
 8639TIP3    H225840   8.788   5.279   4.309
 8640TIP3   OH225841   0.708   5.817   5.787
 8640TIP3    H125842   0.720   5.764   5.708
 8640TIP3    H225843   0.703   5.754   5.858
 8641TIP3   OH225844   0.824   5.484   3.919
 8641TIP3    H125845   0.800   5.431   3.843
 8641TIP3    H225846   0.795   5.572   3.896
 8642TIP3   OH225847   0.314   5.221   5.845
 8642TIP3    H125848   0.320   5.131   5.877
 8642TIP3    H225849   0.224   5.229   5.814
 8643TIP3   OH225850   0.237   5.014   5.559
 8643TIP3    H125851   0.308   5.075   5.579
 8643TIP3    H225852   0.197   5.048   5.479
 8644TIP3   OH225853   0.246   5.552   5.536
 8644TIP3    H125854   0.304   5.506   5.475
 8644TIP3    H225855   0.191   5.607   5.480
 8645TIP3   OH225856   0.939   5.476   5.866
 8645TIP3    H125857   0.972   5.413   5.930
 8645TIP3    H225858   1.016   5.499   5.813
 8646TIP3   OH225859   0.941   5.755   5.603
 8646TIP3    H125860   0.886   5.801   5.540
 8646TIP3    H225861   1.030   5.771   5.573
 8647TIP3   OH225862   0.347   4.796   5.684
 8647TIP3    H125863   0.302   4.873   5.649
 8647TIP3    H225864   0.360   4.739   5.608
 8648TIP3   OH225865   0.601   5.235   5.860
 8648TIP3    H125866   0.612   5.253   5.954
 8648TIP3    H225867   0.507   5.224   5.849
 8649TIP3   OH225868   0.822   5.170   5.712
 8649TIP3    H125869   0.741   5.173   5.763
 8649TIP3    H225870   0.891   5.158   5.778
 8650TIP3   OH225871   1.022   5.148   5.896
 8650TIP3    H125872   1.036   5.056   5.915
 8650TIP3    H225873   1.022   5.190   5.982
 8651TIP3   OH225874   0.575   4.774   5.965
 8651TIP3    H125875   0.628   4.710   5.918
 8651TIP3    H225876   0.485   4.747   5.951
 8652TIP3   OH225877   0.618   5.005   6.102
 8652TIP3    H125878   0.604   4.924   6.052
 8652TIP3    H225879   0.530   5.040   6.116
 8653TIP3   OH225880   1.063   6.442   4.818
 8653TIP3    H125881   1.093   6.457   4.907
 8653TIP3    H225882   1.121   6.496   4.764
 8654TIP3   OH225883   1.119   6.448   5.092
 8654TIP3    H125884   1.063   6.371   5.084
 8654TIP3    H225885   1.175   6.430   5.168
 8655TIP3   OH225886   1.137   6.157   5.690
 8655TIP3    H125887   1.074   6.168   5.761
 8655TIP3    H225888   1.181   6.242   5.684
 8656TIP3   OH225889   0.977   5.672   4.277
 8656TIP3    H125890   1.036   5.742   4.248
 8656TIP3    H225891   1.022   5.631   4.351
 8657TIP3   OH225892   1.093   5.529   4.481
 8657TIP3    H125893   1.030   5.485   4.538
 8657TIP3    H225894   1.160   5.563   4.541
 8658TIP3   OH225895   1.136   5.936   4.905
 8658TIP3    H125896   1.188   5.863   4.871
 8658TIP3    H225897   1.144   6.004   4.838
 8659TIP3   OH225898   0.960   6.220   5.085
 8659TIP3    H125899   0.893   6.272   5.128
 8659TIP3    H225900   0.916   6.179   5.010
 8660TIP3   OH225901   1.001   5.445   4.124
 8660TIP3    H125902   0.939   5.452   4.051
 8660TIP3    H225903   0.985   5.524   4.176
 8661TIP3   OH225904   0.843   5.099   4.060
 8661TIP3    H125905   0.786   5.133   3.991
 8661TIP3    H225906   0.839   5.004   4.050
 8662TIP3   OH225907   0.899   5.378   4.616
 8662TIP3    H125908   0.907   5.285   4.594
 8662TIP3    H225909   0.880   5.379   4.710
 8663TIP3   OH225910   1.180   5.805   5.478
 8663TIP3    H125911   1.243   5.734   5.463
 8663TIP3    H225912   1.179   5.854   5.396
 8664TIP3   OH225913   1.345   5.587   5.470
 8664TIP3    H125914   1.275   5.549   5.523
 8664TIP3    H225915   1.420   5.530   5.485
 8665TIP3   OH225916   0.819   4.829   4.029
 8665TIP3    H125917   0.882   4.799   4.094
 8665TIP3    H225918   0.739   4.780   4.048
 8666TIP3   OH225919   0.898   5.111   4.501
 8666TIP3    H125920   0.941   5.026   4.512
 8666TIP3    H225921   0.935   5.146   4.420
 8667TIP3   OH225922   1.047   5.276   5.020
 8667TIP3    H125923   1.128   5.298   4.975
 8667TIP3    H225924   1.056   5.314   5.108
 8668TIP3   OH225925   1.118   5.426   5.249
 8668TIP3    H125926   1.053   5.456   5.312
 8668TIP3    H225927   1.146   5.506   5.204
 8669TIP3   OH225928   1.571   5.016   5.793
 8669TIP3    H125929   1.636   4.959   5.751
 8669TIP3    H225930   1.534   5.067   5.720
 8670TIP3   OH225931   0.993   4.856   4.550
 8670TIP3    H125932   1.036   4.841   4.635
 8670TIP3    H225933   0.929   4.785   4.543
 8671TIP3   OH225934   1.424   5.126   5.590
 8671TIP3    H125935   1.337   5.164   5.586
 8671TIP3    H225936   1.417   5.044   5.540
 8672TIP3   OH225937   1.037   4.773   4.193
 8672TIP3    H125938   1.087   4.712   4.139
 8672TIP3    H225939   1.093   4.851   4.197
 8673TIP3   OH225940   0.652   6.358   4.449
 8673TIP3    H125941   0.706   6.346   4.371
 8673TIP3    H225942   0.700   6.422   4.501
 8674TIP3   OH225943   1.334   4.876   5.493
 8674TIP3    H125944   1.245   4.858   5.462
 8674TIP3    H225945   1.379   4.792   5.484
 8675TIP3   OH225946   0.509   6.459   5.158
 8675TIP3    H125947   0.469   6.477   5.243
 8675TIP3    H225948   0.552   6.541   5.133
 8676TIP3   OH225949   0.739   6.589   5.026
 8676TIP3    H125950   0.722   6.669   4.976
 8676TIP3    H225951   0.745   6.520   4.959
 8677TIP3   OH225952   0.561   4.793   5.076
 8677TIP3    H125953   0.533   4.720   5.130
 8677TIP3    H225954   0.636   4.759   5.027
 8678TIP3   OH225955   1.038   4.740   5.017
 8678TIP3    H125956   1.075   4.785   4.941
 8678TIP3    H225957   0.943   4.745   5.005
 8679TIP3   OH225958   1.145   4.812   4.776
 8679TIP3    H125959   1.213   4.750   4.750
 8679TIP3    H225960   1.184   4.898   4.763
 8680TIP3   OH225961   0.301   4.533   5.003
 8680TIP3    H125962   0.284   4.620   4.967
 8680TIP3    H225963   0.367   4.548   5.071
 8681TIP3   OH225964   0.773   4.657   4.975
 8681TIP3    H125965   0.817   4.613   4.902
 8681TIP3    H225966   0.770   4.591   5.044
 8682TIP3   OH225967   0.799   4.652   4.553
 8682TIP3    H125968   0.720   4.705   4.568
 8682TIP3    H225969   0.780   4.569   4.596
 8683TIP3   OH225970   0.288   4.736   4.624
 8683TIP3    H125971   0.336   4.706   4.702
 8683TIP3    H225972   0.304   4.830   4.622
 8684TIP3   OH225973   0.787   6.293   4.214
 8684TIP3    H125974   0.768   6.200   4.213
 8684TIP3    H225975   0.735   6.329   4.142
 8685TIP3   OH225976   0.331   4.823   6.169
 8685TIP3    H125977   0.311   4.758   6.101
 8685TIP3    H225978   0.305   4.781   6.251
 8686TIP3   OH225979   1.083   4.884   5.921
 8686TIP3    H125980   1.103   4.856   6.010
 8686TIP3    H225981   1.168   4.882   5.876
 8687TIP3   OH225982   1.006   6.435   5.427
 8687TIP3    H125983   0.943   6.409   5.361
 8687TIP3    H225984   0.996   6.530   5.435
 8688TIP3   OH225985   2.254   5.816   4.161
 8688TIP3    H125986   2.214   5.902   4.146
 8688TIP3    H225987   2.189   5.754   4.128
 8689TIP3   OH225988   2.255   5.811   4.588
 8689TIP3    H125989   2.312   5.791   4.663
 8689TIP3    H225990   2.214   5.727   4.566
 8690TIP3   OH225991   1.555   5.663   4.934
 8690TIP3    H125992   1.594   5.610   5.004
 8690TIP3    H225993   1.629   5.687   4.878
 8691TIP3   OH225994   2.524   6.118   4.257
 8691TIP3    H125995   2.514   6.049   4.322
 8691TIP3    H225996   2.546   6.196   4.308
 8692TIP3   OH225997   1.535   6.100   4.622
 8692TIP3    H125998   1.521   6.005   4.620
 8692TIP3    H225999   1.629   6.111   4.611
 8693TIP3   OH226000   1.235   5.301   4.393
 8693TIP3    H126001   1.197   5.384   4.419
 8693TIP3    H226002   1.163   5.252   4.353
 8694TIP3   OH226003   1.319   5.614   4.622
 8694TIP3    H126004   1.369   5.535   4.646
 8694TIP3    H226005   1.386   5.677   4.597
 8695TIP3   OH226006   2.194   6.536   4.280
 8695TIP3    H126007   2.210   6.475   4.208
 8695TIP3    H226008   2.212   6.485   4.359
 8696TIP3   OH226009   2.060   6.030   4.591
 8696TIP3    H126010   2.105   5.951   4.562
 8696TIP3    H226011   2.130   6.090   4.619
 8697TIP3   OH226012   3.096   5.358   4.593
 8697TIP3    H126013   3.115   5.442   4.634
 8697TIP3    H226014   3.126   5.367   4.503
 8698TIP3   OH226015   2.469   5.519   4.621
 8698TIP3    H126016   2.503   5.434   4.649
 8698TIP3    H226017   2.433   5.503   4.533
 8699TIP3   OH226018   1.827   5.176   4.582
 8699TIP3    H126019   1.805   5.247   4.522
 8699TIP3    H226020   1.773   5.102   4.552
 8700TIP3   OH226021   2.523   5.279   4.217
 8700TIP3    H126022   2.587   5.273   4.289
 8700TIP3    H226023   2.574   5.313   4.143
 8701TIP3   OH226024   1.457   5.390   4.706
 8701TIP3    H126025   1.539   5.367   4.750
 8701TIP3    H226026   1.458   5.338   4.626
 8702TIP3   OH226027   1.868   5.591   4.531
 8702TIP3    H126028   1.962   5.577   4.536
 8702TIP3    H226029   1.833   5.509   4.496
 8703TIP3   OH226030   3.155   5.575   4.763
 8703TIP3    H126031   3.065   5.606   4.763
 8703TIP3    H226032   3.190   5.604   4.847
 8704TIP3   OH226033   1.814   5.179   5.032
 8704TIP3    H126034   1.759   5.213   4.961
 8704TIP3    H226035   1.760   5.191   5.110
 8705TIP3   OH226036   2.101   6.023   4.057
 8705TIP3    H126037   2.098   6.013   3.962
 8705TIP3    H226038   2.063   6.109   4.074
 8706TIP3   OH226039   1.909   5.948   4.808
 8706TIP3    H126040   1.855   6.020   4.839
 8706TIP3    H226041   1.958   5.984   4.734
 8707TIP3   OH226042   2.680   5.305   4.439
 8707TIP3    H126043   2.641   5.281   4.522
 8707TIP3    H226044   2.738   5.379   4.460
 8708TIP3   OH226045   1.698   5.283   4.803
 8708TIP3    H126046   1.754   5.357   4.825
 8708TIP3    H226047   1.744   5.239   4.732
 8709TIP3   OH226048   1.752   6.156   4.905
 8709TIP3    H126049   1.738   6.246   4.874
 8709TIP3    H226050   1.674   6.137   4.958
 8710TIP3   OH226051   1.139   5.867   4.161
 8710TIP3    H126052   1.105   5.884   4.073
 8710TIP3    H226053   1.164   5.953   4.194
 8711TIP3   OH226054   2.558   6.365   4.401
 8711TIP3    H126055   2.468   6.359   4.434
 8711TIP3    H226056   2.560   6.448   4.353
 8712TIP3   OH226057   2.886   5.274   4.760
 8712TIP3    H126058   2.802   5.289   4.716
 8712TIP3    H226059   2.952   5.294   4.693
 8713TIP3   OH226060   2.153   4.880   4.759
 8713TIP3    H126061   2.145   4.787   4.779
 8713TIP3    H226062   2.075   4.919   4.799
 8714TIP3   OH226063   2.261   6.394   4.051
 8714TIP3    H126064   2.312   6.313   4.042
 8714TIP3    H226065   2.321   6.463   4.022
 8715TIP3   OH226066   2.414   6.176   4.009
 8715TIP3    H126067   2.432   6.106   3.947
 8715TIP3    H226068   2.455   6.147   4.091
 8716TIP3   OH226069   2.794   6.254   4.738
 8716TIP3    H126070   2.778   6.178   4.682
 8716TIP3    H226071   2.781   6.330   4.681
 8717TIP3   OH226072   2.093   5.654   4.001
 8717TIP3    H126073   2.012   5.701   3.980
 8717TIP3    H226074   2.142   5.652   3.918
 8718TIP3   OH226075   2.061   5.466   3.692
 8718TIP3    H126076   2.128   5.516   3.740
 8718TIP3    H226077   2.111   5.398   3.646
 8719TIP3   OH226078   2.979   5.915   4.608
 8719TIP3    H126079   2.894   5.959   4.606
 8719TIP3    H226080   3.014   5.925   4.520
 8720TIP3   OH226081   2.439   5.750   3.970
 8720TIP3    H126082   2.386   5.776   4.045
 8720TIP3    H226083   2.522   5.722   4.008
 8721TIP3   OH226084   2.675   5.773   4.920
 8721TIP3    H126085   2.671   5.857   4.966
 8721TIP3    H226086   2.594   5.770   4.870
 8722TIP3   OH226087   1.675   5.726   4.374
 8722TIP3    H126088   1.639   5.664   4.310
 8722TIP3    H226089   1.747   5.679   4.416
 8723TIP3   OH226090   1.801   6.148   4.522
 8723TIP3    H126091   1.780   6.133   4.430
 8723TIP3    H226092   1.888   6.109   4.533
 8724TIP3   OH226093   1.765   5.719   4.754
 8724TIP3    H126094   1.804   5.682   4.674
 8724TIP3    H226095   1.818   5.798   4.772
 8725TIP3   OH226096   2.310   6.364   4.519
 8725TIP3    H126097   2.308   6.442   4.576
 8725TIP3    H226098   2.301   6.290   4.579
 8726TIP3   OH226099   1.950   6.256   5.072
 8726TIP3    H126100   1.889   6.313   5.118
 8726TIP3    H226101   1.896   6.203   5.015
 8727TIP3   OH226102   2.283   5.609   3.791
 8727TIP3    H126103   2.340   5.666   3.843
 8727TIP3    H226104   2.318   5.615   3.702
 8728TIP3   OH226105   1.699   5.820   5.222
 8728TIP3    H126106   1.696   5.915   5.238
 8728TIP3    H226107   1.607   5.795   5.213
 8729TIP3   OH226108   2.007   6.287   4.065
 8729TIP3    H126109   2.096   6.323   4.069
 8729TIP3    H226110   1.959   6.348   4.009
 8730TIP3   OH226111   1.740   6.415   5.155
 8730TIP3    H126112   1.714   6.422   5.063
 8730TIP3    H226113   1.659   6.400   5.202
 8731TIP3   OH226114   2.789   4.833   3.864
 8731TIP3    H126115   2.712   4.854   3.917
 8731TIP3    H226116   2.799   4.909   3.806
 8732TIP3   OH226117   1.554   5.564   4.175
 8732TIP3    H126118   1.474   5.606   4.144
 8732TIP3    H226119   1.529   5.472   4.188
 8733TIP3   OH226120   2.586   6.224   3.403
 8733TIP3    H126121   2.600   6.316   3.380
 8733TIP3    H226122   2.667   6.180   3.379
 8734TIP3   OH226123   1.333   5.975   5.105
 8734TIP3    H126124   1.265   5.955   5.041
 8734TIP3    H226125   1.366   5.889   5.133
 8735TIP3   OH226126   1.219   6.149   4.734
 8735TIP3    H126127   1.311   6.135   4.713
 8735TIP3    H226128   1.220   6.223   4.795
 8736TIP3   OH226129   3.028   6.613   4.809
 8736TIP3    H126130   3.034   6.519   4.824
 8736TIP3    H226131   2.950   6.640   4.858
 8737TIP3   OH226132   2.136   6.404   4.934
 8737TIP3    H126133   2.127   6.494   4.965
 8737TIP3    H226134   2.071   6.355   4.984
 8738TIP3   OH226135   1.913   6.494   3.886
 8738TIP3    H126136   1.872   6.473   3.802
 8738TIP3    H226137   1.876   6.579   3.910
 8739TIP3   OH226138   1.354   6.365   4.275
 8739TIP3    H126139   1.398   6.353   4.359
 8739TIP3    H226140   1.305   6.284   4.262
 8740TIP3   OH226141   2.122   6.412   3.512
 8740TIP3    H126142   2.174   6.338   3.480
 8740TIP3    H226143   2.156   6.430   3.599
 8741TIP3   OH226144   2.168   6.471   3.780
 8741TIP3    H126145   2.084   6.473   3.825
 8741TIP3    H226146   2.227   6.429   3.843
 8742TIP3   OH226147   2.918   5.727   5.076
 8742TIP3    H126148   2.837   5.734   5.027
 8742TIP3    H226149   2.938   5.633   5.076
 8743TIP3   OH226150   1.532   6.161   5.073
 8743TIP3    H126151   1.582   6.151   5.154
 8743TIP3    H226152   1.461   6.097   5.080
 8744TIP3   OH226153   1.913   4.966   4.881
 8744TIP3    H126154   1.828   4.930   4.855
 8744TIP3    H226155   1.890   5.045   4.931
 8745TIP3   OH226156   2.463   5.079   5.085
 8745TIP3    H126157   2.532   5.052   5.146
 8745TIP3    H226158   2.382   5.063   5.132
 8746TIP3   OH226159   2.676   5.508   5.010
 8746TIP3    H126160   2.637   5.505   5.098
 8746TIP3    H226161   2.661   5.597   4.980
 8747TIP3   OH226162   2.386   5.604   3.537
 8747TIP3    H126163   2.348   5.610   3.450
 8747TIP3    H226164   2.478   5.631   3.525
 8748TIP3   OH226165   2.060   5.010   3.858
 8748TIP3    H126166   2.025   5.015   3.947
 8748TIP3    H226167   2.027   4.927   3.824
 8749TIP3   OH226168   1.851   5.494   4.893
 8749TIP3    H126169   1.809   5.500   4.979
 8749TIP3    H226170   1.827   5.576   4.849
 8750TIP3   OH226171   1.730   5.376   4.419
 8750TIP3    H126172   1.642   5.349   4.444
 8750TIP3    H226173   1.741   5.345   4.330
 8751TIP3   OH226174   2.211   5.450   4.143
 8751TIP3    H126175   2.164   5.522   4.101
 8751TIP3    H226176   2.271   5.417   4.075
 8752TIP3   OH226177   2.399   5.719   5.221
 8752TIP3    H126178   2.372   5.649   5.281
 8752TIP3    H226179   2.492   5.732   5.240
 8753TIP3   OH226180   2.379   5.467   4.367
 8753TIP3    H126181   2.311   5.487   4.302
 8753TIP3    H226182   2.426   5.393   4.330
 8754TIP3   OH226183   1.686   5.497   5.118
 8754TIP3    H126184   1.750   5.546   5.170
 8754TIP3    H226185   1.671   5.417   5.168
 8755TIP3   OH226186   1.729   4.986   3.834
 8755TIP3    H126187   1.721   4.989   3.930
 8755TIP3    H226188   1.651   5.032   3.802
 8756TIP3   OH226189   1.279   5.033   4.697
 8756TIP3    H126190   1.352   5.065   4.750
 8756TIP3    H226191   1.319   5.006   4.615
 8757TIP3   OH226192   1.187   5.007   4.205
 8757TIP3    H126193   1.234   5.041   4.128
 8757TIP3    H226194   1.123   5.075   4.226
 8758TIP3   OH226195   2.423   5.718   4.798
 8758TIP3    H126196   2.448   5.652   4.732
 8758TIP3    H226197   2.382   5.667   4.868
 8759TIP3   OH226198   2.096   5.170   4.471
 8759TIP3    H126199   2.018   5.166   4.527
 8759TIP3    H226200   2.169   5.159   4.531
 8760TIP3   OH226201   1.494   5.246   4.476
 8760TIP3    H126202   1.406   5.250   4.438
 8760TIP3    H226203   1.522   5.155   4.463
 8761TIP3   OH226204   1.744   5.257   4.172
 8761TIP3    H126205   1.839   5.264   4.164
 8761TIP3    H226206   1.711   5.273   4.083
 8762TIP3   OH226207   2.544   5.259   4.681
 8762TIP3    H126208   2.525   5.273   4.773
 8762TIP3    H226209   2.479   5.194   4.653
 8763TIP3   OH226210   1.635   5.283   3.921
 8763TIP3    H126211   1.572   5.232   3.870
 8763TIP3    H226212   1.689   5.326   3.855
 8764TIP3   OH226213   2.735   6.959   4.899
 8764TIP3    H126214   2.735   6.971   4.804
 8764TIP3    H226215   2.813   7.006   4.929
 8765TIP3   OH226216   1.679   6.085   5.310
 8765TIP3    H126217   1.761   6.099   5.357
 8765TIP3    H226218   1.612   6.089   5.378
 8766TIP3   OH226219   2.142   5.542   4.575
 8766TIP3    H126220   2.207   5.492   4.524
 8766TIP3    H226221   2.141   5.498   4.661
 8767TIP3   OH226222   1.636   4.997   4.470
 8767TIP3    H126223   1.608   4.922   4.523
 8767TIP3    H226224   1.665   4.958   4.388
 8768TIP3   OH226225   2.118   5.441   4.836
 8768TIP3    H126226   2.030   5.467   4.864
 8768TIP3    H226227   2.177   5.488   4.895
 8769TIP3   OH226228   1.859   5.797   3.940
 8769TIP3    H126229   1.785   5.740   3.919
 8769TIP3    H226230   1.834   5.837   4.023
 8770TIP3   OH226231   2.741   6.049   4.561
 8770TIP3    H126232   2.778   6.096   4.486
 8770TIP3    H226233   2.663   6.006   4.526
 8771TIP3   OH226234   2.315   5.110   3.868
 8771TIP3    H126235   2.222   5.090   3.860
 8771TIP3    H226236   2.318   5.206   3.875
 8772TIP3   OH226237   2.264   6.134   4.970
 8772TIP3    H126238   2.320   6.119   5.046
 8772TIP3    H226239   2.228   6.222   4.984
 8773TIP3   OH226240   2.375   5.378   3.927
 8773TIP3    H126241   2.471   5.379   3.937
 8773TIP3    H226242   2.357   5.453   3.871
 8774TIP3   OH226243   1.541   5.813   4.601
 8774TIP3    H126244   1.580   5.793   4.516
 8774TIP3    H226245   1.605   5.782   4.665
 8775TIP3   OH226246   2.019   5.955   3.780
 8775TIP3    H126247   1.967   6.036   3.782
 8775TIP3    H226248   1.969   5.893   3.833
 8776TIP3   OH226249   1.424   5.750   5.245
 8776TIP3    H126250   1.437   5.720   5.335
 8776TIP3    H226251   1.354   5.695   5.212
 8777TIP3   OH226252   2.178   5.884   5.246
 8777TIP3    H126253   2.126   5.858   5.170
 8777TIP3    H226254   2.261   5.837   5.234
 8778TIP3   OH226255   2.406   6.425   4.857
 8778TIP3    H126256   2.311   6.411   4.860
 8778TIP3    H226257   2.428   6.460   4.943
 8779TIP3   OH226258   2.789   5.473   3.757
 8779TIP3    H126259   2.738   5.428   3.690
 8779TIP3    H226260   2.785   5.566   3.733
 8780TIP3   OH226261   3.040   6.331   4.831
 8780TIP3    H126262   2.946   6.317   4.822
 8780TIP3    H226263   3.077   6.303   4.747
 8781TIP3   OH226264   2.529   6.275   3.671
 8781TIP3    H126265   2.509   6.196   3.722
 8781TIP3    H226266   2.543   6.243   3.582
 8782TIP3   OH226267   2.512   5.913   4.457
 8782TIP3    H126268   2.422   5.891   4.480
 8782TIP3    H226269   2.548   5.833   4.419
 8783TIP3   OH226270   1.673   6.150   4.272
 8783TIP3    H126271   1.676   6.227   4.215
 8783TIP3    H226272   1.581   6.126   4.275
 8784TIP3   OH226273   1.233   5.431   3.978
 8784TIP3    H126274   1.278   5.512   4.001
 8784TIP3    H226275   1.155   5.430   4.033
 8785TIP3   OH226276   1.747   5.903   4.166
 8785TIP3    H126277   1.745   5.991   4.202
 8785TIP3    H226278   1.726   5.846   4.240
 8786TIP3   OH226279   1.951   6.472   4.729
 8786TIP3    H126280   1.989   6.545   4.679
 8786TIP3    H226281   2.024   6.438   4.780
 8787TIP3   OH226282   1.583   6.377   4.122
 8787TIP3    H126283   1.498   6.381   4.165
 8787TIP3    H226284   1.617   6.467   4.126
 8788TIP3   OH226285   2.296   6.142   4.694
 8788TIP3    H126286   2.286   6.136   4.789
 8788TIP3    H226287   2.369   6.082   4.674
 8789TIP3   OH226288   2.254   6.037   3.642
 8789TIP3    H126289   2.330   6.013   3.696
 8789TIP3    H226290   2.179   6.003   3.690
 8790TIP3   OH226291   2.560   6.633   4.743
 8790TIP3    H126292   2.492   6.569   4.762
 8790TIP3    H226293   2.524   6.686   4.671
 8791TIP3   OH226294   2.626   6.499   3.374
 8791TIP3    H126295   2.673   6.577   3.344
 8791TIP3    H226296   2.546   6.533   3.414
 8792TIP3   OH226297   1.645   5.246   5.243
 8792TIP3    H126298   1.550   5.255   5.244
 8792TIP3    H226299   1.663   5.178   5.308
 8793TIP3   OH226300   2.467   5.979   3.814
 8793TIP3    H126301   2.450   5.898   3.862
 8793TIP3    H226302   2.562   5.976   3.796
 8794TIP3   OH226303   1.370   6.357   4.887
 8794TIP3    H126304   1.433   6.293   4.919
 8794TIP3    H226305   1.355   6.415   4.962
 8795TIP3   OH226306   1.636   5.981   3.587
 8795TIP3    H126307   1.657   5.892   3.559
 8795TIP3    H226308   1.628   5.975   3.682
 8796TIP3   OH226309   1.591   5.996   3.862
 8796TIP3    H126310   1.660   5.966   3.922
 8796TIP3    H226311   1.595   6.091   3.867
 8797TIP3   OH226312   1.326   5.681   4.064
 8797TIP3    H126313   1.265   5.731   4.117
 8797TIP3    H226314   1.348   5.739   3.991
 8798TIP3   OH226315   2.482   5.317   4.945
 8798TIP3    H126316   2.563   5.360   4.974
 8798TIP3    H226317   2.478   5.237   4.997
 8799TIP3   OH226318   2.377   5.059   4.133
 8799TIP3    H126319   2.355   5.077   4.041
 8799TIP3    H226320   2.421   5.139   4.163
 8800TIP3   OH226321   1.863   6.176   3.791
 8800TIP3    H126322   1.780   6.202   3.831
 8800TIP3    H226323   1.886   6.249   3.734
 8801TIP3   OH226324   2.023   5.262   4.219
 8801TIP3    H126325   2.086   5.328   4.191
 8801TIP3    H226326   2.048   5.242   4.309
 8802TIP3   OH226327   2.322   5.551   4.994
 8802TIP3    H126328   2.349   5.590   5.077
 8802TIP3    H226329   2.372   5.469   4.988
 8803TIP3   OH226330   2.188   4.958   4.307
 8803TIP3    H126331   2.167   5.035   4.358
 8803TIP3    H226332   2.259   4.986   4.249
 8804TIP3   OH226333   1.615   6.270   3.871
 8804TIP3    H126334   1.597   6.341   3.811
 8804TIP3    H226335   1.604   6.308   3.958
 8805TIP3   OH226336   1.701   4.981   4.113
 8805TIP3    H126337   1.690   5.071   4.143
 8805TIP3    H226338   1.796   4.965   4.120
 8806TIP3   OH226339   2.940   5.449   4.986
 8806TIP3    H126340   2.846   5.459   5.000
 8806TIP3    H226341   2.947   5.390   4.910
 8807TIP3   OH226342   2.604   5.656   4.369
 8807TIP3    H126343   2.528   5.598   4.379
 8807TIP3    H226344   2.672   5.617   4.423
 8808TIP3   OH226345   1.348   5.864   3.849
 8808TIP3    H126346   1.421   5.924   3.861
 8808TIP3    H226347   1.380   5.799   3.786
 8809TIP3   OH226348   1.253   5.152   3.982
 8809TIP3    H126349   1.268   5.247   3.986
 8809TIP3    H226350   1.194   5.140   3.908
 8810TIP3   OH226351   2.586   6.631   4.315
 8810TIP3    H126352   2.545   6.683   4.246
 8810TIP3    H226353   2.680   6.644   4.303
 8811TIP3   OH226354   1.650   4.874   4.857
 8811TIP3    H126355   1.621   4.840   4.772
 8811TIP3    H226356   1.650   4.798   4.914
 8812TIP3   OH226357   1.184   6.139   4.246
 8812TIP3    H126358   1.137   6.172   4.322
 8812TIP3    H226359   1.139   6.179   4.171
 8813TIP3   OH226360   1.385   6.667   5.299
 8813TIP3    H126361   1.467   6.674   5.349
 8813TIP3    H226362   1.370   6.573   5.291
 8814TIP3   OH226363   1.843   6.577   5.353
 8814TIP3    H126364   1.933   6.549   5.365
 8814TIP3    H226365   1.811   6.524   5.280
 8815TIP3   OH226366   1.802   6.173   3.473
 8815TIP3    H126367   1.756   6.103   3.518
 8815TIP3    H226368   1.880   6.131   3.436
 8816TIP3   OH226369   2.459   6.523   5.107
 8816TIP3    H126370   2.469   6.450   5.168
 8816TIP3    H226371   2.535   6.579   5.122
 8817TIP3   OH226372   2.269   6.195   3.421
 8817TIP3    H126373   2.270   6.137   3.497
 8817TIP3    H226374   2.359   6.193   3.388
 8818TIP3   OH226375   1.477   6.073   5.503
 8818TIP3    H126376   1.499   5.980   5.511
 8818TIP3    H226377   1.392   6.073   5.459
 8819TIP3   OH226378   1.469   5.673   3.698
 8819TIP3    H126379   1.521   5.646   3.774
 8819TIP3    H226380   1.533   5.686   3.628
 8820TIP3   OH226381   2.100   6.153   5.280
 8820TIP3    H126382   2.059   6.174   5.196
 8820TIP3    H226383   2.141   6.068   5.266
 8821TIP3   OH226384   1.965   5.893   3.508
 8821TIP3    H126385   1.986   5.906   3.601
 8821TIP3    H226386   1.980   5.800   3.492
 8822TIP3   OH226387   2.575   6.201   4.898
 8822TIP3    H126388   2.652   6.225   4.847
 8822TIP3    H226389   2.511   6.269   4.878
 8823TIP3   OH226390   1.592   5.820   5.503
 8823TIP3    H126391   1.666   5.801   5.445
 8823TIP3    H226392   1.631   5.833   5.589
 8824TIP3   OH226393   1.647   5.616   3.906
 8824TIP3    H126394   1.630   5.585   3.995
 8824TIP3    H226395   1.695   5.544   3.864
 8825TIP3   OH226396   1.912   5.663   5.152
 8825TIP3    H126397   1.847   5.727   5.179
 8825TIP3    H226398   1.969   5.710   5.092
 8826TIP3   OH226399   1.786   5.433   3.744
 8826TIP3    H126400   1.757   5.436   3.653
 8826TIP3    H226401   1.881   5.440   3.740
 8827TIP3   OH226402   2.459   6.068   5.242
 8827TIP3    H126403   2.530   6.034   5.189
 8827TIP3    H226404   2.458   6.013   5.320
 8828TIP3   OH226405   2.057   5.465   5.275
 8828TIP3    H126406   2.065   5.391   5.215
 8828TIP3    H226407   2.013   5.533   5.225
 8829TIP3   OH226408   2.070   5.270   5.072
 8829TIP3    H126409   2.099   5.298   4.986
 8829TIP3    H226410   1.981   5.237   5.058
 8830TIP3   OH226411   2.074   5.814   4.989
 8830TIP3    H126412   2.160   5.812   4.946
 8830TIP3    H226413   2.018   5.863   4.928
 8831TIP3   OH226414   2.666   5.748   5.318
 8831TIP3    H126415   2.689   5.655   5.321
 8831TIP3    H226416   2.749   5.793   5.301
 8832TIP3   OH226417   2.696   6.019   5.061
 8832TIP3    H126418   2.645   6.083   5.011
 8832TIP3    H226419   2.786   6.032   5.031
 8833TIP3   OH226420   1.940   5.548   5.518
 8833TIP3    H126421   1.878   5.478   5.536
 8833TIP3    H226422   1.974   5.528   5.430
 8834TIP3   OH226423   2.200   5.041   5.172
 8834TIP3    H126424   2.157   5.121   5.141
 8834TIP3    H226425   2.135   4.973   5.158
 8835TIP3   OH226426   2.315   5.507   5.375
 8835TIP3    H126427   2.307   5.493   5.469
 8835TIP3    H226428   2.228   5.486   5.340
 8836TIP3   OH226429   2.569   5.473   5.255
 8836TIP3    H126430   2.488   5.464   5.306
 8836TIP3    H226431   2.637   5.436   5.311
 8837TIP3   OH226432   2.798   5.421   5.402
 8837TIP3    H126433   2.813   5.327   5.407
 8837TIP3    H226434   2.795   5.450   5.493
 8838TIP3   OH226435   1.779   5.330   5.584
 8838TIP3    H126436   1.782   5.243   5.544
 8838TIP3    H226437   1.820   5.317   5.670
 8839TIP3   OH226438   2.249   5.019   5.441
 8839TIP3    H126439   2.320   4.955   5.445
 8839TIP3    H226440   2.227   5.026   5.348
 8840TIP3   OH226441   2.350   5.231   5.583
 8840TIP3    H126442   2.320   5.158   5.529
 8840TIP3    H226443   2.277   5.292   5.583
 8841TIP3   OH226444   1.615   6.482   3.689
 8841TIP3    H126445   1.702   6.455   3.661
 8841TIP3    H226446   1.576   6.526   3.613
 8842TIP3   OH226447   1.075   5.864   3.877
 8842TIP3    H126448   1.170   5.874   3.869
 8842TIP3    H226449   1.057   5.779   3.837
 8843TIP3   OH226450   0.989   6.447   4.319
 8843TIP3    H126451   0.928   6.392   4.269
 8843TIP3    H226452   1.028   6.387   4.382
 8844TIP3   OH226453   1.123   6.287   4.501
 8844TIP3    H126454   1.121   6.217   4.565
 8844TIP3    H226455   1.165   6.360   4.546
 8845TIP3   OH226456   2.853   6.693   4.304
 8845TIP3    H126457   2.880   6.715   4.393
 8845TIP3    H226458   2.919   6.734   4.248
 8846TIP3   OH226459   2.880   6.710   4.586
 8846TIP3    H126460   2.832   6.628   4.578
 8846TIP3    H226461   2.947   6.692   4.652
 8847TIP3   OH226462   2.934   6.423   5.167
 8847TIP3    H126463   2.864   6.432   5.232
 8847TIP3    H226464   2.979   6.507   5.168
 8848TIP3   OH226465   2.738   5.962   3.794
 8848TIP3    H126466   2.803   6.009   3.742
 8848TIP3    H226467   2.789   5.895   3.841
 8849TIP3   OH226468   2.875   5.774   3.958
 8849TIP3    H126469   2.804   5.740   4.011
 8849TIP3    H226470   2.935   5.814   4.020
 8850TIP3   OH226471   2.924   6.185   4.399
 8850TIP3    H126472   2.976   6.113   4.362
 8850TIP3    H226473   2.929   6.255   4.334
 8851TIP3   OH226474   2.732   6.476   4.588
 8851TIP3    H126475   2.667   6.521   4.642
 8851TIP3    H226476   2.682   6.434   4.518
 8852TIP3   OH226477   2.652   5.369   3.547
 8852TIP3    H126478   2.659   5.455   3.506
 8852TIP3    H226479   2.604   5.316   3.483
 8853TIP3   OH226480   2.666   5.646   4.097
 8853TIP3    H126481   2.672   5.552   4.084
 8853TIP3    H226482   2.651   5.656   4.191
 8854TIP3   OH226483   1.296   5.715   4.875
 8854TIP3    H126484   1.287   5.677   4.788
 8854TIP3    H226485   1.389   5.706   4.896
 8855TIP3   OH226486   2.956   6.064   4.969
 8855TIP3    H126487   3.021   5.996   4.954
 8855TIP3    H226488   2.974   6.129   4.901
 8856TIP3   OH226489   3.132   5.852   4.958
 8856TIP3    H126490   3.057   5.808   5.000
 8856TIP3    H226491   3.207   5.796   4.978
 8857TIP3   OH226492   2.602   5.059   3.507
 8857TIP3    H126493   2.661   5.069   3.581
 8857TIP3    H226494   2.517   5.040   3.545
 8858TIP3   OH226495   2.666   5.369   3.990
 8858TIP3    H126496   2.711   5.286   4.002
 8858TIP3    H226497   2.708   5.409   3.914
 8859TIP3   OH226498   2.819   5.536   4.511
 8859TIP3    H126499   2.900   5.552   4.462
 8859TIP3    H226500   2.835   5.575   4.597
 8860TIP3   OH226501   2.894   5.685   4.739
 8860TIP3    H126502   2.821   5.714   4.794
 8860TIP3    H226503   2.925   5.765   4.697
 8861TIP3   OH226504   1.515   5.377   5.514
 8861TIP3    H126505   1.610   5.377   5.531
 8861TIP3    H226506   1.484   5.294   5.552
 8862TIP3   OH226507   3.356   5.278   5.278
 8862TIP3    H126508   3.422   5.222   5.236
 8862TIP3    H226509   3.319   5.329   5.206
 8863TIP3   OH226510   2.783   5.121   4.039
 8863TIP3    H126511   2.827   5.106   4.123
 8863TIP3    H226512   2.721   5.048   4.032
 8864TIP3   OH226513   1.488   5.099   4.873
 8864TIP3    H126514   1.540   5.019   4.879
 8864TIP3    H226515   1.551   5.167   4.853
 8865TIP3   OH226516   1.284   5.376   4.927
 8865TIP3    H126517   1.330   5.365   4.843
 8865TIP3    H226518   1.336   5.441   4.974
 8866TIP3   OH226519   3.204   5.398   5.081
 8866TIP3    H126520   3.116   5.434   5.095
 8866TIP3    H226521   3.189   5.318   5.030
 8867TIP3   OH226522   2.828   5.035   3.680
 8867TIP3    H126523   2.876   4.976   3.622
 8867TIP3    H226524   2.880   5.116   3.681
 8868TIP3   OH226525   1.262   4.879   4.434
 8868TIP3    H126526   1.176   4.862   4.473
 8868TIP3    H226527   1.243   4.932   4.356
 8869TIP3   OH226528   2.407   6.597   3.947
 8869TIP3    H126529   2.462   6.580   3.870
 8869TIP3    H226530   2.458   6.659   4.000
 8870TIP3   OH226531   1.492   4.972   5.278
 8870TIP3    H126532   1.435   4.932   5.344
 8870TIP3    H226533   1.432   4.999   5.208
 8871TIP3   OH226534   1.520   6.393   5.322
 8871TIP3    H126535   1.428   6.370   5.320
 8871TIP3    H226536   1.546   6.380   5.414
 8872TIP3   OH226537   1.722   6.432   4.874
 8872TIP3    H126538   1.673   6.509   4.846
 8872TIP3    H226539   1.807   6.441   4.832
 8873TIP3   OH226540   2.121   6.670   5.017
 8873TIP3    H126541   2.160   6.660   5.104
 8873TIP3    H226542   2.185   6.722   4.968
 8874TIP3   OH226543   2.315   6.820   4.888
 8874TIP3    H126544   2.378   6.763   4.844
 8874TIP3    H226545   2.369   6.878   4.942
 8875TIP3   OH226546   3.137   5.145   4.985
 8875TIP3    H126547   3.050   5.116   4.957
 8875TIP3    H226548   3.192   5.067   4.975
 8876TIP3   OH226549   1.378   6.732   4.885
 8876TIP3    H126550   1.282   6.733   4.881
 8876TIP3    H226551   1.398   6.777   4.967
 8877TIP3   OH226552   1.619   6.669   4.776
 8877TIP3    H126553   1.534   6.684   4.816
 8877TIP3    H226554   1.604   6.679   4.682
 8878TIP3   OH226555   2.032   6.683   4.569
 8878TIP3    H126556   1.967   6.695   4.499
 8878TIP3    H226557   2.042   6.770   4.608
 8879TIP3   OH226558   2.296   6.623   4.618
 8879TIP3    H126559   2.204   6.640   4.597
 8879TIP3    H226560   2.345   6.690   4.570
 8880TIP3   OH226561   2.494   6.795   4.516
 8880TIP3    H126562   2.492   6.881   4.475
 8880TIP3    H226563   2.525   6.736   4.448
 8881TIP3   OH226564   1.299   6.489   4.645
 8881TIP3    H126565   1.320   6.456   4.732
 8881TIP3    H226566   1.365   6.448   4.588
 8882TIP3   OH226567   1.494   6.350   4.512
 8882TIP3    H126568   1.501   6.263   4.551
 8882TIP3    H226569   1.584   6.384   4.513
 8883TIP3   OH226570   1.766   6.425   4.527
 8883TIP3    H126571   1.782   6.332   4.510
 8883TIP3    H226572   1.822   6.447   4.600
 8884TIP3   OH226573   2.318   5.077   4.612
 8884TIP3    H126574   2.279   5.005   4.661
 8884TIP3    H226575   2.387   5.036   4.560
 8885TIP3   OH226576   2.823   4.980   4.495
 8885TIP3    H126577   2.862   5.031   4.425
 8885TIP3    H226578   2.731   5.007   4.497
 8886TIP3   OH226579   2.937   5.070   4.263
 8886TIP3    H126580   3.006   5.009   4.235
 8886TIP3    H226581   2.976   5.157   4.251
 8887TIP3   OH226582   1.563   4.770   4.615
 8887TIP3    H126583   1.474   4.736   4.622
 8887TIP3    H226584   1.618   4.691   4.613
 8888TIP3   OH226585   1.374   4.681   4.260
 8888TIP3    H126586   1.406   4.729   4.184
 8888TIP3    H226587   1.345   4.748   4.321
 8889TIP3   OH226588   2.032   4.827   4.503
 8889TIP3    H126589   2.086   4.866   4.434
 8889TIP3    H226590   2.077   4.850   4.585
 8890TIP3   OH226591   2.535   4.972   4.474
 8890TIP3    H126592   2.541   4.939   4.385
 8890TIP3    H226593   2.538   4.893   4.529
 8891TIP3   OH226594   2.598   4.910   4.048
 8891TIP3    H126595   2.518   4.956   4.072
 8891TIP3    H226596   2.587   4.822   4.085
 8892TIP3   OH226597   1.061   6.253   4.030
 8892TIP3    H126598   0.977   6.218   4.000
 8892TIP3    H226599   1.065   6.341   3.993
 8893TIP3   OH226600   1.493   4.810   4.027
 8893TIP3    H126601   1.539   4.748   3.971
 8893TIP3    H226602   1.562   4.866   4.062
 8894TIP3   OH226603   1.976   5.010   4.123
 8894TIP3    H126604   2.035   4.956   4.175
 8894TIP3    H226605   1.993   5.099   4.152
 8895TIP3   OH226606   1.866   6.398   3.615
 8895TIP3    H126607   1.951   6.420   3.579
 8895TIP3    H226608   1.834   6.326   3.560
 8896TIP3   OH226609   2.559   6.542   3.719
 8896TIP3    H126610   2.554   6.447   3.710
 8896TIP3    H226611   2.520   6.576   3.639
 8897TIP3   OH226612   1.791   5.057   5.497
 8897TIP3    H126613   1.760   4.986   5.552
 8897TIP3    H226614   1.884   5.067   5.521
 8898TIP3   OH226615   2.039   5.072   5.617
 8898TIP3    H126616   2.113   5.051   5.561
 8898TIP3    H226617   2.035   5.000   5.680
 8899TIP3   OH226618   1.173   6.252   3.667
 8899TIP3    H126619   1.178   6.259   3.762
 8899TIP3    H226620   1.252   6.204   3.643
 8900TIP3   OH226621   2.861   5.153   5.404
 8900TIP3    H126622   2.879   5.120   5.492
 8900TIP3    H226623   2.946   5.147   5.359
 8901TIP3   OH226624   2.780   6.686   4.910
 8901TIP3    H126625   2.706   6.656   4.856
 8901TIP3    H226626   2.767   6.780   4.918
 8902TIP3   OH226627   4.060   6.075   3.643
 8902TIP3    H126628   4.029   6.161   3.617
 8902TIP3    H226629   3.989   6.015   3.619
 8903TIP3   OH226630   4.058   6.066   4.071
 8903TIP3    H126631   4.110   6.047   4.149
 8903TIP3    H226632   4.012   5.984   4.052
 8904TIP3   OH226633   3.352   5.923   4.415
 8904TIP3    H126634   3.390   5.872   4.486
 8904TIP3    H226635   3.426   5.947   4.359
 8905TIP3   OH226636   4.327   6.371   3.746
 8905TIP3    H126637   4.313   6.305   3.814
 8905TIP3    H226638   4.346   6.452   3.795
 8906TIP3   OH226639   3.342   6.359   4.106
 8906TIP3    H126640   3.326   6.265   4.108
 8906TIP3    H226641   3.437   6.367   4.098
 8907TIP3   OH226642   3.035   5.553   3.889
 8907TIP3    H126643   2.993   5.637   3.911
 8907TIP3    H226644   2.965   5.503   3.848
 8908TIP3   OH226645   3.099   5.863   4.108
 8908TIP3    H126646   3.150   5.787   4.134
 8908TIP3    H226647   3.163   5.923   4.071
 8909TIP3   OH226648   3.982   6.802   3.758
 8909TIP3    H126649   4.008   6.739   3.692
 8909TIP3    H226650   3.985   6.753   3.841
 8910TIP3   OH226651   3.861   6.289   4.073
 8910TIP3    H126652   3.905   6.209   4.044
 8910TIP3    H226653   3.931   6.345   4.105
 8911TIP3   OH226654   4.892   5.618   4.075
 8911TIP3    H126655   4.903   5.700   4.124
 8911TIP3    H226656   4.900   5.643   3.984
 8912TIP3   OH226657   4.271   5.776   4.108
 8912TIP3    H126658   4.301   5.690   4.139
 8912TIP3    H226659   4.232   5.759   4.022
 8913TIP3   OH226660   3.627   5.434   4.065
 8913TIP3    H126661   3.604   5.508   4.008
 8913TIP3    H226662   3.572   5.362   4.035
 8914TIP3   OH226663   4.321   5.535   3.704
 8914TIP3    H126664   4.383   5.527   3.776
 8914TIP3    H226665   4.373   5.570   3.632
 8915TIP3   OH226666   3.249   5.649   4.198
 8915TIP3    H126667   3.331   5.631   4.243
 8915TIP3    H226668   3.253   5.597   4.118
 8916TIP3   OH226669   3.666   5.850   4.015
 8916TIP3    H126670   3.761   5.835   4.022
 8916TIP3    H226671   3.631   5.768   3.981
 8917TIP3   OH226672   4.936   5.836   4.238
 8917TIP3    H126673   4.845   5.868   4.239
 8917TIP3    H226674   4.969   5.857   4.325
 8918TIP3   OH226675   3.608   5.440   4.520
 8918TIP3    H126676   3.555   5.475   4.448
 8918TIP3    H226677   3.552   5.450   4.597
 8919TIP3   OH226678   3.957   6.293   3.506
 8919TIP3    H126679   3.917   6.261   3.426
 8919TIP3    H226680   3.903   6.367   3.533
 8920TIP3   OH226681   3.697   6.212   4.283
 8920TIP3    H126682   3.644   6.284   4.318
 8920TIP3    H226683   3.746   6.252   4.211
 8921TIP3   OH226684   4.477   5.556   3.927
 8921TIP3    H126685   4.433   5.533   4.009
 8921TIP3    H226686   4.531   5.632   3.948
 8922TIP3   OH226687   3.497   5.545   4.288
 8922TIP3    H126688   3.553   5.618   4.312
 8922TIP3    H226689   3.544   5.501   4.216
 8923TIP3   OH226690   3.542   6.416   4.391
 8923TIP3    H126691   3.528   6.506   4.363
 8923TIP3    H226692   3.465   6.395   4.443
 8924TIP3   OH226693   2.918   6.117   3.640
 8924TIP3    H126694   2.876   6.138   3.557
 8924TIP3    H226695   2.944   6.202   3.676
 8925TIP3   OH226696   4.359   6.620   3.884
 8925TIP3    H126697   4.272   6.612   3.924
 8925TIP3    H226698   4.357   6.704   3.837
 8926TIP3   OH226699   4.671   5.538   4.237
 8926TIP3    H126700   4.586   5.547   4.195
 8926TIP3    H226701   4.734   5.554   4.167
 8927TIP3   OH226702   3.951   5.146   4.248
 8927TIP3    H126703   3.946   5.054   4.276
 8927TIP3    H226704   3.874   5.187   4.288
 8928TIP3   OH226705   4.067   6.656   3.538
 8928TIP3    H126706   4.120   6.576   3.529
 8928TIP3    H226707   4.126   6.726   3.510
 8929TIP3   OH226708   4.205   6.424   3.504
 8929TIP3    H126709   4.133   6.362   3.500
 8929TIP3    H226710   4.256   6.398   3.580
 8930TIP3   OH226711   4.595   6.510   4.226
 8930TIP3    H126712   4.575   6.435   4.170
 8930TIP3    H226713   4.579   6.586   4.170
 8931TIP3   OH226714   3.885   5.913   3.498
 8931TIP3    H126715   3.801   5.955   3.480
 8931TIP3    H226716   3.930   5.912   3.413
 8932TIP3   OH226717   3.849   5.721   3.188
 8932TIP3    H126718   3.916   5.769   3.237
 8932TIP3    H226719   3.898   5.652   3.142
 8933TIP3   OH226720   4.773   6.173   4.092
 8933TIP3    H126721   4.688   6.218   4.092
 8933TIP3    H226722   4.807   6.185   4.003
 8934TIP3   OH226723   4.245   5.997   3.458
 8934TIP3    H126724   4.190   6.027   3.530
 8934TIP3    H226725   4.328   5.974   3.499
 8935TIP3   OH226726   4.471   6.030   4.405
 8935TIP3    H126727   4.466   6.113   4.452
 8935TIP3    H226728   4.388   6.026   4.357
 8936TIP3   OH226729   3.465   5.979   3.861
 8936TIP3    H126730   3.427   5.918   3.797
 8936TIP3    H226731   3.537   5.930   3.901
 8937TIP3   OH226732   3.606   6.408   4.005
 8937TIP3    H126733   3.580   6.391   3.914
 8937TIP3    H226734   3.692   6.367   4.013
 8938TIP3   OH226735   3.565   5.975   4.241
 8938TIP3    H126736   3.604   5.939   4.161
 8938TIP3    H226737   3.614   6.056   4.256
 8939TIP3   OH226738   4.122   6.614   4.016
 8939TIP3    H126739   4.108   6.694   4.067
 8939TIP3    H226740   4.106   6.543   4.079
 8940TIP3   OH226741   3.741   6.513   4.560
 8940TIP3    H126742   3.680   6.568   4.609
 8940TIP3    H226743   3.685   6.461   4.502
 8941TIP3   OH226744   4.074   5.860   3.289
 8941TIP3    H126745   4.133   5.919   3.336
 8941TIP3    H226746   4.104   5.864   3.198
 8942TIP3   OH226747   3.495   6.059   4.707
 8942TIP3    H126748   3.499   6.153   4.724
 8942TIP3    H226749   3.402   6.039   4.700
 8943TIP3   OH226750   3.820   6.532   3.547
 8943TIP3    H126751   3.902   6.582   3.552
 8943TIP3    H226752   3.760   6.588   3.498
 8944TIP3   OH226753   3.529   6.667   4.651
 8944TIP3    H126754   3.502   6.678   4.560
 8944TIP3    H226755   3.448   6.654   4.699
 8945TIP3   OH226756   4.585   5.089   3.354
 8945TIP3    H126757   4.507   5.107   3.407
 8945TIP3    H226758   4.594   5.165   3.297
 8946TIP3   OH226759   3.335   5.821   3.661
 8946TIP3    H126760   3.255   5.864   3.630
 8946TIP3    H226761   3.308   5.730   3.676
 8947TIP3   OH226762   4.409   6.462   2.915
 8947TIP3    H126763   4.402   6.553   2.885
 8947TIP3    H226764   4.498   6.436   2.891
 8948TIP3   OH226765   3.127   6.227   4.594
 8948TIP3    H126766   3.057   6.208   4.531
 8948TIP3    H226767   3.161   6.142   4.620
 8949TIP3   OH226768   2.992   6.407   4.236
 8949TIP3    H126769   3.087   6.406   4.226
 8949TIP3    H226770   2.974   6.484   4.290
 8950TIP3   OH226771   4.827   6.877   4.296
 8950TIP3    H126772   4.832   6.782   4.307
 8950TIP3    H226773   4.748   6.902   4.343
 8951TIP3   OH226774   3.929   6.658   4.423
 8951TIP3    H126775   3.921   6.748   4.453
 8951TIP3    H226776   3.862   6.610   4.472
 8952TIP3   OH226777   3.708   6.753   3.377
 8952TIP3    H126778   3.662   6.731   3.296
 8952TIP3    H226779   3.669   6.836   3.404
 8953TIP3   OH226780   3.145   6.613   3.757
 8953TIP3    H126781   3.190   6.606   3.841
 8953TIP3    H226782   3.097   6.531   3.748
 8954TIP3   OH226783   3.906   6.701   3.007
 8954TIP3    H126784   3.952   6.623   2.975
 8954TIP3    H226785   3.941   6.715   3.096
 8955TIP3   OH226786   3.963   6.736   3.277
 8955TIP3    H126787   3.876   6.737   3.317
 8955TIP3    H226788   4.019   6.695   3.342
 8956TIP3   OH226789   4.721   5.972   4.549
 8956TIP3    H126790   4.634   5.987   4.512
 8956TIP3    H226791   4.737   5.878   4.536
 8957TIP3   OH226792   3.324   6.417   4.562
 8957TIP3    H126793   3.375   6.405   4.642
 8957TIP3    H226794   3.253   6.353   4.569
 8958TIP3   OH226795   3.708   5.225   4.372
 8958TIP3    H126796   3.624   5.189   4.345
 8958TIP3    H226797   3.685   5.304   4.422
 8959TIP3   OH226798   4.261   5.335   4.579
 8959TIP3    H126799   4.329   5.295   4.632
 8959TIP3    H226800   4.180   5.320   4.628
 8960TIP3   OH226801   4.484   5.767   4.505
 8960TIP3    H126802   4.440   5.763   4.590
 8960TIP3    H226803   4.460   5.853   4.470
 8961TIP3   OH226804   4.155   5.831   3.026
 8961TIP3    H126805   4.106   5.840   2.944
 8961TIP3    H226806   4.235   5.880   3.011
 8962TIP3   OH226807   3.865   5.259   3.348
 8962TIP3    H126808   3.827   5.267   3.435
 8962TIP3    H226809   3.825   5.179   3.311
 8963TIP3   OH226810   3.649   5.754   4.388
 8963TIP3    H126811   3.603   5.759   4.472
 8963TIP3    H226812   3.627   5.836   4.344
 8964TIP3   OH226813   3.529   5.636   3.906
 8964TIP3    H126814   3.441   5.610   3.933
 8964TIP3    H226815   3.538   5.602   3.817
 8965TIP3   OH226816   4.007   5.709   3.636
 8965TIP3    H126817   3.960   5.781   3.595
 8965TIP3    H226818   4.064   5.676   3.566
 8966TIP3   OH226819   4.188   5.974   4.709
 8966TIP3    H126820   4.163   5.904   4.770
 8966TIP3    H226821   4.280   5.991   4.729
 8967TIP3   OH226822   4.177   5.723   3.856
 8967TIP3    H126823   4.108   5.743   3.794
 8967TIP3    H226824   4.223   5.648   3.818
 8968TIP3   OH226825   3.485   5.768   4.609
 8968TIP3    H126826   3.497   5.831   4.680
 8968TIP3    H226827   3.467   5.685   4.652
 8969TIP3   OH226828   3.527   5.245   3.322
 8969TIP3    H126829   3.517   5.249   3.417
 8969TIP3    H226830   3.448   5.288   3.289
 8970TIP3   OH226831   3.073   5.290   4.187
 8970TIP3    H126832   3.147   5.325   4.238
 8970TIP3    H226833   3.110   5.272   4.101
 8971TIP3   OH226834   2.976   5.273   3.690
 8971TIP3    H126835   3.017   5.307   3.611
 8971TIP3    H226836   2.910   5.339   3.714
 8972TIP3   OH226837   4.220   5.975   4.284
 8972TIP3    H126838   4.245   5.909   4.220
 8972TIP3    H226839   4.178   5.925   4.354
 8973TIP3   OH226840   3.895   5.424   3.958
 8973TIP3    H126841   3.816   5.423   4.013
 8973TIP3    H226842   3.967   5.415   4.020
 8974TIP3   OH226843   3.294   5.508   3.968
 8974TIP3    H126844   3.205   5.511   3.931
 8974TIP3    H226845   3.323   5.419   3.951
 8975TIP3   OH226846   3.543   5.511   3.662
 8975TIP3    H126847   3.637   5.521   3.651
 8975TIP3    H226848   3.506   5.527   3.575
 8976TIP3   OH226849   4.341   5.515   4.169
 8976TIP3    H126850   4.327   5.528   4.262
 8976TIP3    H226851   4.272   5.453   4.144
 8977TIP3   OH226852   3.429   5.533   3.415
 8977TIP3    H126853   3.363   5.485   3.364
 8977TIP3    H226854   3.481   5.579   3.349
 8978TIP3   OH226855   4.540   7.218   4.389
 8978TIP3    H126856   4.538   7.232   4.294
 8978TIP3    H226857   4.619   7.262   4.418
 8979TIP3   OH226858   3.481   6.327   4.795
 8979TIP3    H126859   3.561   6.349   4.844
 8979TIP3    H226860   3.411   6.334   4.860
 8980TIP3   OH226861   3.940   5.799   4.065
 8980TIP3    H126862   4.003   5.744   4.017
 8980TIP3    H226863   3.936   5.760   4.152
 8981TIP3   OH226864   3.435   5.263   3.947
 8981TIP3    H126865   3.402   5.191   4.001
 8981TIP3    H226866   3.452   5.223   3.862
 8982TIP3   OH226867   3.916   5.701   4.326
 8982TIP3    H126868   3.829   5.730   4.355
 8982TIP3    H226869   3.976   5.749   4.383
 8983TIP3   OH226870   3.646   6.045   3.444
 8983TIP3    H126871   3.571   5.990   3.420
 8983TIP3    H226872   3.620   6.087   3.526
 8984TIP3   OH226873   4.536   6.307   4.049
 8984TIP3    H126874   4.570   6.356   3.974
 8984TIP3    H226875   4.457   6.264   4.016
 8985TIP3   OH226876   4.115   5.367   3.346
 8985TIP3    H126877   4.022   5.343   3.345
 8985TIP3    H226878   4.114   5.462   3.361
 8986TIP3   OH226879   4.059   6.392   4.463
 8986TIP3    H126880   4.107   6.378   4.544
 8986TIP3    H226881   4.017   6.477   4.473
 8987TIP3   OH226882   4.170   5.631   3.419
 8987TIP3    H126883   4.265   5.637   3.431
 8987TIP3    H226884   4.147   5.709   3.368
 8988TIP3   OH226885   3.343   6.077   4.090
 8988TIP3    H126886   3.378   6.052   4.005
 8988TIP3    H226887   3.405   6.041   4.153
 8989TIP3   OH226888   3.800   6.207   3.289
 8989TIP3    H126889   3.752   6.290   3.285
 8989TIP3    H226890   3.744   6.149   3.341
 8990TIP3   OH226891   3.220   5.996   4.729
 8990TIP3    H126892   3.223   5.967   4.820
 8990TIP3    H226893   3.145   5.948   4.692
 8991TIP3   OH226894   3.959   6.131   4.749
 8991TIP3    H126895   3.889   6.071   4.723
 8991TIP3    H226896   4.040   6.087   4.721
 8992TIP3   OH226897   4.201   6.680   4.347
 8992TIP3    H126898   4.106   6.664   4.351
 8992TIP3    H226899   4.224   6.714   4.434
 8993TIP3   OH226900   4.589   5.714   3.233
 8993TIP3    H126901   4.534   5.668   3.170
 8993TIP3    H226902   4.592   5.804   3.201
 8994TIP3   OH226903   4.839   6.598   4.314
 8994TIP3    H126904   4.745   6.580   4.310
 8994TIP3    H226905   4.874   6.565   4.231
 8995TIP3   OH226906   4.332   6.534   3.177
 8995TIP3    H126907   4.300   6.463   3.232
 8995TIP3    H226908   4.349   6.492   3.092
 8996TIP3   OH226909   4.309   6.169   3.947
 8996TIP3    H126910   4.219   6.147   3.973
 8996TIP3    H226911   4.343   6.088   3.908
 8997TIP3   OH226912   3.461   6.405   3.762
 8997TIP3    H126913   3.458   6.482   3.704
 8997TIP3    H226914   3.370   6.389   3.785
 8998TIP3   OH226915   3.001   5.689   3.446
 8998TIP3    H126916   3.034   5.771   3.482
 8998TIP3    H226917   2.907   5.691   3.462
 8999TIP3   OH226918   3.550   6.161   3.668
 8999TIP3    H126919   3.532   6.250   3.699
 8999TIP3    H226920   3.522   6.105   3.740
 9000TIP3   OH226921   3.746   6.730   4.217
 9000TIP3    H126922   3.782   6.803   4.167
 9000TIP3    H226923   3.819   6.696   4.267
 9001TIP3   OH226924   3.378   6.629   3.610
 9001TIP3    H126925   3.292   6.635   3.650
 9001TIP3    H226926   3.413   6.718   3.616
 9002TIP3   OH226927   4.094   6.393   4.188
 9002TIP3    H126928   4.082   6.390   4.283
 9002TIP3    H226929   4.168   6.334   4.172
 9003TIP3   OH226930   4.090   6.263   3.056
 9003TIP3    H126931   4.140   6.235   3.133
 9003TIP3    H226932   4.005   6.219   3.066
 9004TIP3   OH226933   4.354   6.887   4.230
 9004TIP3    H126934   4.286   6.823   4.251
 9004TIP3    H226935   4.316   6.939   4.159
 9005TIP3   OH226936   4.400   6.735   2.857
 9005TIP3    H126937   4.401   6.786   2.777
 9005TIP3    H226938   4.333   6.777   2.911
 9006TIP3   OH226939   3.429   5.515   4.723
 9006TIP3    H126940   3.334   5.526   4.725
 9006TIP3    H226941   3.447   5.448   4.789
 9007TIP3   OH226942   4.266   6.181   3.250
 9007TIP3    H126943   4.253   6.128   3.328
 9007TIP3    H226944   4.361   6.189   3.243
 9008TIP3   OH226945   3.169   6.622   4.384
 9008TIP3    H126946   3.220   6.559   4.434
 9008TIP3    H226947   3.186   6.706   4.427
 9009TIP3   OH226948   3.439   6.235   3.072
 9009TIP3    H126949   3.449   6.143   3.045
 9009TIP3    H226950   3.422   6.230   3.167
 9010TIP3   OH226951   3.376   6.253   3.343
 9010TIP3    H126952   3.439   6.224   3.410
 9010TIP3    H226953   3.379   6.349   3.348
 9011TIP3   OH226954   3.106   5.934   3.549
 9011TIP3    H126955   3.041   5.982   3.601
 9011TIP3    H226956   3.125   5.992   3.475
 9012TIP3   OH226957   4.293   5.571   4.436
 9012TIP3    H126958   4.372   5.612   4.470
 9012TIP3    H226959   4.283   5.491   4.488
 9013TIP3   OH226960   4.173   5.317   3.615
 9013TIP3    H126961   4.152   5.337   3.524
 9013TIP3    H226962   4.216   5.397   3.648
 9014TIP3   OH226963   3.655   6.436   3.282
 9014TIP3    H126964   3.570   6.460   3.319
 9014TIP3    H226965   3.678   6.509   3.224
 9015TIP3   OH226966   3.823   5.516   3.706
 9015TIP3    H126967   3.884   5.585   3.681
 9015TIP3    H226968   3.845   5.496   3.797
 9016TIP3   OH226969   4.126   5.806   4.480
 9016TIP3    H126970   4.147   5.848   4.564
 9016TIP3    H226971   4.176   5.724   4.481
 9017TIP3   OH226972   3.987   5.214   3.793
 9017TIP3    H126973   3.964   5.292   3.845
 9017TIP3    H226974   4.057   5.244   3.735
 9018TIP3   OH226975   3.406   6.526   3.357
 9018TIP3    H126976   3.385   6.599   3.298
 9018TIP3    H226977   3.395   6.563   3.445
 9019TIP3   OH226978   3.499   5.237   3.601
 9019TIP3    H126979   3.486   5.327   3.631
 9019TIP3    H226980   3.594   5.223   3.608
 9020TIP3   OH226981   4.743   5.695   4.461
 9020TIP3    H126982   4.651   5.708   4.486
 9020TIP3    H226983   4.739   5.636   4.386
 9021TIP3   OH226984   4.400   5.911   3.857
 9021TIP3    H126985   4.322   5.857   3.867
 9021TIP3    H226986   4.465   5.871   3.914
 9022TIP3   OH226987   3.130   6.117   3.336
 9022TIP3    H126988   3.202   6.180   3.346
 9022TIP3    H226989   3.163   6.054   3.272
 9023TIP3   OH226990   3.034   5.414   3.463
 9023TIP3    H126991   3.040   5.509   3.468
 9023TIP3    H226992   2.972   5.398   3.392
 9024TIP3   OH226993   4.380   6.887   3.800
 9024TIP3    H126994   4.338   6.940   3.733
 9024TIP3    H226995   4.473   6.900   3.786
 9025TIP3   OH226996   3.447   5.133   4.338
 9025TIP3    H126997   3.413   5.104   4.253
 9025TIP3    H226998   3.439   5.055   4.394
 9026TIP3   OH226999   2.977   6.387   3.730
 9026TIP3    H127000   2.925   6.418   3.805
 9026TIP3    H227001   2.937   6.429   3.654
 9027TIP3   OH227002   3.166   6.935   4.802
 9027TIP3    H127003   3.249   6.940   4.849
 9027TIP3    H227004   3.145   6.842   4.801
 9028TIP3   OH227005   3.640   6.834   4.840
 9028TIP3    H127006   3.730   6.804   4.851
 9028TIP3    H227007   3.604   6.778   4.771
 9029TIP3   OH227008   3.594   6.436   2.963
 9029TIP3    H127009   3.546   6.365   3.007
 9029TIP3    H227010   3.668   6.392   2.921
 9030TIP3   OH227011   4.259   6.774   4.598
 9030TIP3    H127012   4.273   6.704   4.662
 9030TIP3    H227013   4.332   6.834   4.611
 9031TIP3   OH227014   4.025   6.481   2.906
 9031TIP3    H127015   4.064   6.412   2.958
 9031TIP3    H227016   4.072   6.477   2.822
 9032TIP3   OH227017   3.274   6.318   4.981
 9032TIP3    H127018   3.293   6.225   4.994
 9032TIP3    H227019   3.186   6.319   4.943
 9033TIP3   OH227020   3.258   5.929   3.186
 9033TIP3    H127021   3.311   5.905   3.262
 9033TIP3    H227022   3.322   5.941   3.116
 9034TIP3   OH227023   3.896   6.408   4.764
 9034TIP3    H127024   3.851   6.428   4.682
 9034TIP3    H227025   3.929   6.319   4.751
 9035TIP3   OH227026   3.832   6.149   3.022
 9035TIP3    H127027   3.810   6.159   3.114
 9035TIP3    H227028   3.814   6.057   3.003
 9036TIP3   OH227029   4.372   6.455   4.382
 9036TIP3    H127030   4.449   6.483   4.333
 9036TIP3    H227031   4.306   6.522   4.365
 9037TIP3   OH227032   3.393   6.066   4.997
 9037TIP3    H127033   3.470   6.050   4.942
 9037TIP3    H227034   3.429   6.089   5.083
 9038TIP3   OH227035   3.435   5.872   3.396
 9038TIP3    H127036   3.410   5.841   3.483
 9038TIP3    H227037   3.482   5.798   3.357
 9039TIP3   OH227038   3.754   5.956   4.656
 9039TIP3    H127039   3.667   5.995   4.665
 9039TIP3    H227040   3.783   5.983   4.568
 9040TIP3   OH227041   3.577   5.687   3.243
 9040TIP3    H127042   3.547   5.691   3.152
 9040TIP3    H227043   3.672   5.696   3.236
 9041TIP3   OH227044   4.250   6.329   4.733
 9041TIP3    H127045   4.318   6.288   4.680
 9041TIP3    H227046   4.245   6.274   4.812
 9042TIP3   OH227047   4.374   5.968   2.925
 9042TIP3    H127048   4.358   5.929   2.839
 9042TIP3    H227049   4.352   6.060   2.914
 9043TIP3   OH227050   3.856   5.723   4.760
 9043TIP3    H127051   3.858   5.652   4.696
 9043TIP3    H227052   3.821   5.798   4.712
 9044TIP3   OH227053   3.867   5.524   4.558
 9044TIP3    H127054   3.894   5.556   4.473
 9044TIP3    H227055   3.776   5.494   4.545
 9045TIP3   OH227056   3.866   6.047   4.425
 9045TIP3    H127057   3.955   6.079   4.412
 9045TIP3    H227058   3.811   6.108   4.375
 9046TIP3   OH227059   4.453   6.017   4.805
 9046TIP3    H127060   4.492   5.930   4.805
 9046TIP3    H227061   4.528   6.076   4.802
 9047TIP3   OH227062   4.492   6.275   4.546
 9047TIP3    H127063   4.439   6.337   4.497
 9047TIP3    H227064   4.581   6.290   4.515
 9048TIP3   OH227065   3.742   5.802   5.005
 9048TIP3    H127066   3.673   5.739   5.024
 9048TIP3    H227067   3.770   5.780   4.916
 9049TIP3   OH227068   3.995   5.293   4.664
 9049TIP3    H127069   3.953   5.374   4.632
 9049TIP3    H227070   3.929   5.225   4.650
 9050TIP3   OH227071   4.111   5.760   4.863
 9050TIP3    H127072   4.100   5.745   4.957
 9050TIP3    H227073   4.026   5.739   4.825
 9051TIP3   OH227074   4.364   5.730   4.743
 9051TIP3    H127075   4.283   5.722   4.793
 9051TIP3    H227076   4.431   5.691   4.799
 9052TIP3   OH227077   4.601   5.667   4.884
 9052TIP3    H127078   4.605   5.572   4.888
 9052TIP3    H227079   4.592   5.695   4.976
 9053TIP3   OH227080   3.571   5.587   5.069
 9053TIP3    H127081   3.575   5.499   5.032
 9053TIP3    H227082   3.611   5.578   5.156
 9054TIP3   OH227083   4.064   5.263   4.931
 9054TIP3    H127084   4.128   5.192   4.928
 9054TIP3    H227085   4.036   5.274   4.840
 9055TIP3   OH227086   4.152   5.481   5.076
 9055TIP3    H127087   4.125   5.407   5.022
 9055TIP3    H227088   4.077   5.541   5.074
 9056TIP3   OH227089   3.402   6.742   3.179
 9056TIP3    H127090   3.490   6.716   3.151
 9056TIP3    H227091   3.365   6.784   3.102
 9057TIP3   OH227092   2.853   6.124   3.345
 9057TIP3    H127093   2.949   6.129   3.347
 9057TIP3    H227094   2.835   6.034   3.317
 9058TIP3   OH227095   2.765   6.697   3.816
 9058TIP3    H127096   2.701   6.642   3.772
 9058TIP3    H227097   2.811   6.639   3.876
 9059TIP3   OH227098   2.911   6.536   3.987
 9059TIP3    H127099   2.903   6.465   4.051
 9059TIP3    H227100   2.962   6.603   4.032
 9060TIP3   OH227101   4.651   6.938   3.793
 9060TIP3    H127102   4.670   6.964   3.884
 9060TIP3    H227103   4.705   6.996   3.740
 9061TIP3   OH227104   4.671   6.968   4.073
 9061TIP3    H127105   4.623   6.886   4.068
 9061TIP3    H227106   4.740   6.952   4.138
 9062TIP3   OH227107   4.725   6.670   4.641
 9062TIP3    H127108   4.652   6.679   4.702
 9062TIP3    H227109   4.772   6.753   4.647
 9063TIP3   OH227110   4.547   6.181   3.252
 9063TIP3    H127111   4.602   6.254   3.223
 9063TIP3    H227112   4.592   6.145   3.328
 9064TIP3   OH227113   4.677   6.042   3.455
 9064TIP3    H127114   4.609   6.004   3.512
 9064TIP3    H227115   4.741   6.079   3.516
 9065TIP3   OH227116   4.719   6.448   3.890
 9065TIP3    H127117   4.770   6.379   3.845
 9065TIP3    H227118   4.720   6.522   3.829
 9066TIP3   OH227119   4.527   6.731   4.077
 9066TIP3    H127120   4.460   6.775   4.129
 9066TIP3    H227121   4.479   6.690   4.005
 9067TIP3   OH227122   4.584   5.955   3.100
 9067TIP3    H127123   4.512   5.954   3.037
 9067TIP3    H227124   4.568   6.034   3.153
 9068TIP3   OH227125   4.447   5.599   3.030
 9068TIP3    H127126   4.396   5.641   2.961
 9068TIP3    H227127   4.433   5.505   3.016
 9069TIP3   OH227128   4.474   5.902   3.590
 9069TIP3    H127129   4.476   5.807   3.575
 9069TIP3    H227130   4.452   5.912   3.682
 9070TIP3   OH227131   3.089   5.966   4.362
 9070TIP3    H127132   3.077   5.931   4.274
 9070TIP3    H227133   3.183   5.960   4.379
 9071TIP3   OH227134   4.750   6.321   4.452
 9071TIP3    H127135   4.818   6.256   4.436
 9071TIP3    H227136   4.762   6.386   4.383
 9072TIP3   OH227137   4.928   6.109   4.437
 9072TIP3    H127138   4.851   6.066   4.475
 9072TIP3    H227139   5.000   6.048   4.452
 9073TIP3   OH227140   4.400   5.326   3.006
 9073TIP3    H127141   4.458   5.306   3.080
 9073TIP3    H227142   4.314   5.296   3.034
 9074TIP3   OH227143   4.464   5.626   3.475
 9074TIP3    H127144   4.508   5.542   3.487
 9074TIP3    H227145   4.505   5.664   3.397
 9075TIP3   OH227146   4.614   5.788   3.998
 9075TIP3    H127147   4.696   5.804   3.951
 9075TIP3    H227148   4.626   5.831   4.083
 9076TIP3   OH227149   4.679   5.945   4.221
 9076TIP3    H127150   4.608   5.972   4.279
 9076TIP3    H227151   4.710   6.027   4.182
 9077TIP3   OH227152   3.306   5.643   5.005
 9077TIP3    H127153   3.401   5.639   5.021
 9077TIP3    H227154   3.272   5.562   5.042
 9078TIP3   OH227155   4.580   5.375   3.524
 9078TIP3    H127156   4.621   5.363   3.609
 9078TIP3    H227157   4.515   5.304   3.519
 9079TIP3   OH227158   3.286   5.361   4.353
 9079TIP3    H127159   3.338   5.281   4.362
 9079TIP3    H227160   3.351   5.429   4.334
 9080TIP3   OH227161   3.063   5.623   4.412
 9080TIP3    H127162   3.114   5.613   4.332
 9080TIP3    H227163   3.099   5.701   4.454
 9081TIP3   OH227164   5.009   5.655   4.599
 9081TIP3    H127165   4.949   5.692   4.664
 9081TIP3    H227166   4.951   5.605   4.541
 9082TIP3   OH227167   4.627   5.287   3.167
 9082TIP3    H127168   4.675   5.226   3.110
 9082TIP3    H227169   4.680   5.366   3.168
 9083TIP3   OH227170   3.053   5.140   3.917
 9083TIP3    H127171   2.967   5.124   3.957
 9083TIP3    H227172   3.034   5.193   3.839
 9084TIP3   OH227173   4.213   6.857   3.435
 9084TIP3    H127174   4.267   6.842   3.358
 9084TIP3    H227175   4.258   6.926   3.483
 9085TIP3   OH227176   3.282   5.228   4.754
 9085TIP3    H127177   3.227   5.200   4.828
 9085TIP3    H227178   3.219   5.259   4.689
 9086TIP3   OH227179   3.304   6.645   4.814
 9086TIP3    H127180   3.210   6.627   4.802
 9086TIP3    H227181   3.318   6.632   4.908
 9087TIP3   OH227182   3.517   6.692   4.365
 9087TIP3    H127183   3.466   6.768   4.334
 9087TIP3    H227184   3.602   6.701   4.322
 9088TIP3   OH227185   3.915   6.924   4.501
 9088TIP3    H127186   3.953   6.915   4.589
 9088TIP3    H227187   3.979   6.978   4.454
 9089TIP3   OH227188   4.107   7.079   4.376
 9089TIP3    H127189   4.169   7.024   4.329
 9089TIP3    H227190   4.162   7.137   4.429
 9090TIP3   OH227191   4.931   5.381   4.458
 9090TIP3    H127192   4.845   5.357   4.425
 9090TIP3    H227193   4.981   5.299   4.457
 9091TIP3   OH227194   3.180   6.937   4.410
 9091TIP3    H127195   3.089   6.955   4.388
 9091TIP3    H227196   3.202   7.000   4.478
 9092TIP3   OH227197   3.410   6.925   4.261
 9092TIP3    H127198   3.328   6.930   4.309
 9092TIP3    H227199   3.387   6.946   4.171
 9093TIP3   OH227200   3.823   6.940   4.053
 9093TIP3    H127201   3.750   6.951   3.992
 9093TIP3    H227202   3.832   7.026   4.094
 9094TIP3   OH227203   4.087   6.877   4.101
 9094TIP3    H127204   3.995   6.896   4.081
 9094TIP3    H227205   4.136   6.945   4.054
 9095TIP3   OH227206   4.289   7.049   4.004
 9095TIP3    H127207   4.287   7.136   3.963
 9095TIP3    H227208   4.319   6.991   3.935
 9096TIP3   OH227209   3.088   6.711   4.134
 9096TIP3    H127210   3.115   6.686   4.222
 9096TIP3    H227211   3.159   6.679   4.078
 9097TIP3   OH227212   3.292   6.601   3.990
 9097TIP3    H127213   3.303   6.516   4.032
 9097TIP3    H227214   3.379   6.641   3.993
 9098TIP3   OH227215   3.561   6.684   4.012
 9098TIP3    H127216   3.579   6.591   3.996
 9098TIP3    H227217   3.614   6.706   4.088
 9099TIP3   OH227218   4.122   5.336   4.100
 9099TIP3    H127219   4.080   5.267   4.151
 9099TIP3    H227220   4.188   5.291   4.047
 9100TIP3   OH227221   4.619   5.252   3.989
 9100TIP3    H127222   4.650   5.305   3.915
 9100TIP3    H227223   4.526   5.273   3.995
 9101TIP3   OH227224   4.732   5.334   3.750
 9101TIP3    H127225   4.804   5.275   3.728
 9101TIP3    H227226   4.770   5.422   3.738
 9102TIP3   OH227227   3.348   5.045   4.094
 9102TIP3    H127228   3.259   5.013   4.101
 9102TIP3    H227229   3.402   4.966   4.085
 9103TIP3   OH227230   3.192   4.948   3.758
 9103TIP3    H127231   3.211   4.994   3.677
 9103TIP3    H227232   3.150   5.013   3.814
 9104TIP3   OH227233   3.841   5.075   3.992
 9104TIP3    H127234   3.890   5.122   3.924
 9104TIP3    H227235   3.879   5.106   4.075
 9105TIP3   OH227236   4.332   5.221   3.958
 9105TIP3    H127237   4.352   5.187   3.871
 9105TIP3    H227238   4.339   5.145   4.015
 9106TIP3   OH227239   4.392   5.166   3.534
 9106TIP3    H127240   4.313   5.214   3.558
 9106TIP3    H227241   4.381   5.080   3.574
 9107TIP3   OH227242   2.867   6.510   3.513
 9107TIP3    H127243   2.786   6.470   3.481
 9107TIP3    H227244   2.864   6.600   3.480
 9108TIP3   OH227245   3.288   5.070   3.512
 9108TIP3    H127246   3.333   5.008   3.454
 9108TIP3    H227247   3.358   5.125   3.547
 9109TIP3   OH227248   3.775   5.265   3.610
 9109TIP3    H127249   3.833   5.213   3.665
 9109TIP3    H227250   3.789   5.355   3.638
 9110TIP3   OH227251   3.654   6.659   3.107
 9110TIP3    H127252   3.736   6.689   3.069
 9110TIP3    H227253   3.625   6.588   3.050
 9111TIP3   OH227254   4.363   6.804   3.208
 9111TIP3    H127255   4.358   6.708   3.202
 9111TIP3    H227256   4.320   6.835   3.129
 9112TIP3   OH227257   3.591   5.316   4.994
 9112TIP3    H127258   3.558   5.243   5.047
 9112TIP3    H227259   3.683   5.323   5.017
 9113TIP3   OH227260   3.843   5.320   5.108
 9113TIP3    H127261   3.919   5.296   5.055
 9113TIP3    H227262   3.834   5.250   5.172
 9114TIP3   OH227263   2.964   6.503   3.156
 9114TIP3    H127264   2.961   6.497   3.251
 9114TIP3    H227265   3.044   6.456   3.131
 9115TIP3   OH227266   4.643   5.391   4.880
 9115TIP3    H127267   4.664   5.363   4.970
 9115TIP3    H227268   4.724   5.377   4.831
 9116TIP3   OH227269   4.577   6.944   4.391
 9116TIP3    H127270   4.502   6.913   4.340
 9116TIP3    H227271   4.562   7.038   4.401
 9117TIP3   OH227272   5.855   6.327   3.129
 9117TIP3    H127273   5.824   6.414   3.104
 9117TIP3    H227274   5.781   6.269   3.108
 9118TIP3   OH227275   5.853   6.320   3.556
 9118TIP3    H127276   5.905   6.303   3.634
 9118TIP3    H227277   5.807   6.237   3.539
 9119TIP3   OH227278   5.147   6.202   3.901
 9119TIP3    H127279   5.181   6.144   3.969
 9119TIP3    H227280   5.225   6.235   3.857
 9120TIP3   OH227281   6.119   6.630   3.232
 9120TIP3    H127282   6.108   6.564   3.301
 9120TIP3    H227283   6.140   6.710   3.279
 9121TIP3   OH227284   5.147   6.607   3.582
 9121TIP3    H127285   5.128   6.514   3.594
 9121TIP3    H227286   5.243   6.611   3.576
 9122TIP3   OH227287   4.825   5.822   3.365
 9122TIP3    H127288   4.784   5.904   3.393
 9122TIP3    H227289   4.752   5.771   3.329
 9123TIP3   OH227290   4.910   6.126   3.594
 9123TIP3    H127291   4.960   6.049   3.620
 9123TIP3    H227292   4.976   6.192   3.573
 9124TIP3   OH227293   5.778   7.061   3.240
 9124TIP3    H127294   5.806   6.997   3.174
 9124TIP3    H227295   5.777   7.012   3.322
 9125TIP3   OH227296   5.664   6.544   3.558
 9125TIP3    H127297   5.709   6.463   3.533
 9125TIP3    H227298   5.734   6.600   3.592
 9126TIP3   OH227299   6.692   5.863   3.577
 9126TIP3    H127300   6.706   5.948   3.619
 9126TIP3    H227301   6.716   5.876   3.486
 9127TIP3   OH227302   6.067   6.028   3.595
 9127TIP3    H127303   6.100   5.943   3.624
 9127TIP3    H227304   6.030   6.011   3.508
 9128TIP3   OH227305   5.427   5.699   3.551
 9128TIP3    H127306   5.396   5.767   3.492
 9128TIP3    H227307   5.385   5.619   3.519
 9129TIP3   OH227308   6.120   5.790   3.189
 9129TIP3    H127309   6.181   5.784   3.263
 9129TIP3    H227310   6.172   5.826   3.118
 9130TIP3   OH227311   5.049   5.904   3.684
 9130TIP3    H127312   5.131   5.883   3.729
 9130TIP3    H227313   5.050   5.849   3.606
 9131TIP3   OH227314   5.465   6.099   3.488
 9131TIP3    H127315   5.559   6.083   3.498
 9131TIP3    H227316   5.431   6.016   3.453
 9132TIP3   OH227317   6.745   6.084   3.742
 9132TIP3    H127318   6.659   6.124   3.735
 9132TIP3    H227319   6.784   6.124   3.820
 9133TIP3   OH227320   5.397   5.701   4.017
 9133TIP3    H127321   5.351   5.733   3.939
 9133TIP3    H227322   5.337   5.718   4.089
 9134TIP3   OH227323   5.751   6.546   2.994
 9134TIP3    H127324   5.710   6.518   2.912
 9134TIP3    H227325   5.699   6.622   3.021
 9135TIP3   OH227326   5.496   6.471   3.767
 9135TIP3    H127327   5.442   6.542   3.803
 9135TIP3    H227328   5.545   6.512   3.696
 9136TIP3   OH227329   6.278   5.818   3.410
 9136TIP3    H127330   6.237   5.792   3.493
 9136TIP3    H227331   6.333   5.892   3.433
 9137TIP3   OH227332   5.300   5.801   3.777
 9137TIP3    H127333   5.352   5.878   3.801
 9137TIP3    H227334   5.350   5.760   3.706
 9138TIP3   OH227335   5.339   6.671   3.877
 9138TIP3    H127336   5.325   6.761   3.848
 9138TIP3    H227337   5.262   6.650   3.930
 9139TIP3   OH227338   4.715   6.374   3.137
 9139TIP3    H127339   4.680   6.385   3.049
 9139TIP3    H227340   4.735   6.463   3.167
 9140TIP3   OH227341   6.153   6.879   3.368
 9140TIP3    H127342   6.066   6.870   3.408
 9140TIP3    H227343   6.150   6.964   3.324
 9141TIP3   OH227344   6.497   5.744   3.747
 9141TIP3    H127345   6.410   5.768   3.713
 9141TIP3    H227346   6.558   5.774   3.679
 9142TIP3   OH227347   5.720   5.359   3.769
 9142TIP3    H127348   5.706   5.282   3.824
 9142TIP3    H227349   5.650   5.419   3.795
 9143TIP3   OH227350   5.866   6.911   3.023
 9143TIP3    H127351   5.918   6.831   3.013
 9143TIP3    H227352   5.925   6.981   2.996
 9144TIP3   OH227353   6.000   6.676   2.987
 9144TIP3    H127354   5.925   6.616   2.988
 9144TIP3    H227355   6.050   6.653   3.066
 9145TIP3   OH227356   6.387   6.772   3.711
 9145TIP3    H127357   6.372   6.695   3.655
 9145TIP3    H227358   6.372   6.847   3.654
 9146TIP3   OH227359   5.680   6.162   2.983
 9146TIP3    H127360   5.598   6.208   2.968
 9146TIP3    H227361   5.727   6.170   2.900
 9147TIP3   OH227362   5.647   5.963   2.676
 9147TIP3    H127363   5.705   6.018   2.729
 9147TIP3    H227364   5.707   5.907   2.627
 9148TIP3   OH227365   6.571   6.424   3.582
 9148TIP3    H127366   6.488   6.471   3.583
 9148TIP3    H227367   6.607   6.440   3.495
 9149TIP3   OH227368   6.039   6.248   2.944
 9149TIP3    H127369   5.985   6.280   3.015
 9149TIP3    H227370   6.124   6.228   2.985
 9150TIP3   OH227371   6.269   6.287   3.889
 9150TIP3    H127372   6.267   6.372   3.932
 9150TIP3    H227373   6.187   6.282   3.840
 9151TIP3   OH227374   5.265   6.237   3.348
 9151TIP3    H127375   5.227   6.177   3.285
 9151TIP3    H227376   5.338   6.189   3.387
 9152TIP3   OH227377   5.411   6.661   3.488
 9152TIP3    H127378   5.385   6.647   3.397
 9152TIP3    H227379   5.498   6.622   3.495
 9153TIP3   OH227380   5.370   6.233   3.716
 9153TIP3    H127381   5.408   6.196   3.636
 9153TIP3    H227382   5.419   6.314   3.730
 9154TIP3   OH227383   5.917   6.869   3.504
 9154TIP3    H127384   5.905   6.950   3.553
 9154TIP3    H227385   5.902   6.800   3.568
 9155TIP3   OH227386   5.536   6.768   4.048
 9155TIP3    H127387   5.475   6.825   4.096
 9155TIP3    H227388   5.481   6.717   3.990
 9156TIP3   OH227389   5.868   6.117   2.772
 9156TIP3    H127390   5.927   6.175   2.819
 9156TIP3    H227391   5.897   6.122   2.681
 9157TIP3   OH227392   5.289   6.314   4.187
 9157TIP3    H127393   5.295   6.407   4.210
 9157TIP3    H227394   5.194   6.297   4.182
 9158TIP3   OH227395   5.619   6.787   3.034
 9158TIP3    H127396   5.699   6.838   3.038
 9158TIP3    H227397   5.557   6.842   2.986
 9159TIP3   OH227398   5.326   6.925   4.136
 9159TIP3    H127399   5.298   6.935   4.045
 9159TIP3    H227400   5.245   6.910   4.185
 9160TIP3   OH227401   6.377   5.347   2.832
 9160TIP3    H127402   6.302   5.368   2.888
 9160TIP3    H227403   6.387   5.422   2.774
 9161TIP3   OH227404   5.134   6.080   3.148
 9161TIP3    H127405   5.061   6.134   3.118
 9161TIP3    H227406   5.093   5.998   3.176
 9162TIP3   OH227407   6.207   6.718   2.393
 9162TIP3    H127408   6.198   6.811   2.372
 9162TIP3    H227409   6.296   6.696   2.366
 9163TIP3   OH227410   4.923   6.484   4.082
 9163TIP3    H127411   4.852   6.467   4.020
 9163TIP3    H227412   4.956   6.397   4.105
 9164TIP3   OH227413   4.762   6.685   3.740
 9164TIP3    H127414   4.850   6.712   3.766
 9164TIP3    H227415   4.706   6.759   3.764
 9165TIP3   OH227416   6.619   7.128   3.789
 9165TIP3    H127417   6.625   7.034   3.803
 9165TIP3    H227418   6.539   7.155   3.835
 9166TIP3   OH227419   5.725   6.913   3.911
 9166TIP3    H127420   5.717   7.004   3.940
 9166TIP3    H227421   5.658   6.866   3.960
 9167TIP3   OH227422   5.507   7.013   2.862
 9167TIP3    H127423   5.460   6.992   2.782
 9167TIP3    H227424   5.468   7.095   2.892
 9168TIP3   OH227425   4.941   6.867   3.239
 9168TIP3    H127426   4.983   6.857   3.324
 9168TIP3    H227427   4.889   6.787   3.228
 9169TIP3   OH227428   5.710   6.948   2.491
 9169TIP3    H127429   5.759   6.874   2.456
 9169TIP3    H227430   5.744   6.960   2.579
 9170TIP3   OH227431   5.761   6.989   2.761
 9170TIP3    H127432   5.674   6.993   2.800
 9170TIP3    H227433   5.817   6.952   2.829
 9171TIP3   OH227434   6.516   6.241   4.054
 9171TIP3    H127435   6.432   6.265   4.015
 9171TIP3    H227436   6.528   6.149   4.031
 9172TIP3   OH227437   5.122   6.671   4.049
 9172TIP3    H127438   5.173   6.658   4.129
 9172TIP3    H227439   5.051   6.608   4.056
 9173TIP3   OH227440   5.499   5.498   3.854
 9173TIP3    H127441   5.417   5.453   3.837
 9173TIP3    H227442   5.478   5.563   3.921
 9174TIP3   OH227443   6.055   5.591   4.046
 9174TIP3    H127444   6.119   5.563   4.112
 9174TIP3    H227445   5.970   5.585   4.090
 9175TIP3   OH227446   6.275   6.022   3.981
 9175TIP3    H127447   6.227   6.017   4.064
 9175TIP3    H227448   6.257   6.111   3.949
 9176TIP3   OH227449   5.947   6.084   2.507
 9176TIP3    H127450   5.905   6.093   2.422
 9176TIP3    H227451   6.029   6.132   2.499
 9177TIP3   OH227452   5.445   6.017   3.871
 9177TIP3    H127453   5.397   6.025   3.953
 9177TIP3    H227454   5.422   6.095   3.822
 9178TIP3   OH227455   5.321   5.881   3.378
 9178TIP3    H127456   5.231   5.862   3.407
 9178TIP3    H227457   5.328   5.837   3.293
 9179TIP3   OH227458   5.809   5.957   3.113
 9179TIP3    H127459   5.762   6.032   3.076
 9179TIP3    H227460   5.874   5.935   3.047
 9180TIP3   OH227461   5.988   6.233   4.195
 9180TIP3    H127462   5.961   6.166   4.258
 9180TIP3    H227463   6.080   6.250   4.215
 9181TIP3   OH227464   5.974   5.977   3.343
 9181TIP3    H127465   5.905   5.998   3.280
 9181TIP3    H227466   6.021   5.904   3.303
 9182TIP3   OH227467   5.277   6.037   4.086
 9182TIP3    H127468   5.283   6.102   4.156
 9182TIP3    H227469   5.254   5.956   4.130
 9183TIP3   OH227470   5.319   5.544   2.832
 9183TIP3    H127471   5.247   5.587   2.878
 9183TIP3    H227472   5.309   5.571   2.741
 9184TIP3   OH227473   4.866   5.553   3.666
 9184TIP3    H127474   4.946   5.579   3.712
 9184TIP3    H227475   4.897   5.518   3.582
 9185TIP3   OH227476   4.780   5.520   3.173
 9185TIP3    H127477   4.824   5.558   3.097
 9185TIP3    H227478   4.715   5.586   3.198
 9186TIP3   OH227479   6.018   6.231   3.769
 9186TIP3    H127480   6.042   6.163   3.705
 9186TIP3    H227481   5.973   6.184   3.839
 9187TIP3   OH227482   5.685   5.670   3.431
 9187TIP3    H127483   5.609   5.680   3.489
 9187TIP3    H227484   5.760   5.662   3.491
 9188TIP3   OH227485   5.079   5.763   3.444
 9188TIP3    H127486   4.990   5.784   3.414
 9188TIP3    H227487   5.088   5.669   3.428
 9189TIP3   OH227488   5.344   5.730   3.141
 9189TIP3    H127489   5.435   5.759   3.131
 9189TIP3    H227490   5.299   5.766   3.065
 9190TIP3   OH227491   6.141   5.764   3.648
 9190TIP3    H127492   6.122   5.782   3.741
 9190TIP3    H227493   6.073   5.703   3.621
 9191TIP3   OH227494   5.207   5.795   2.910
 9191TIP3    H127495   5.129   5.766   2.862
 9191TIP3    H227496   5.262   5.836   2.844
 9192TIP3   OH227497   6.334   7.474   3.878
 9192TIP3    H127498   6.334   7.483   3.783
 9192TIP3    H227499   6.413   7.519   3.906
 9193TIP3   OH227500   5.279   6.581   4.281
 9193TIP3    H127501   5.359   6.601   4.330
 9193TIP3    H227502   5.208   6.591   4.345
 9194TIP3   OH227503   5.737   6.050   3.549
 9194TIP3    H127504   5.807   6.000   3.507
 9194TIP3    H227505   5.732   6.015   3.638
 9195TIP3   OH227506   5.323   5.463   3.437
 9195TIP3    H127507   5.256   5.411   3.481
 9195TIP3    H227508   5.405   5.419   3.458
 9196TIP3   OH227509   5.711   5.964   3.813
 9196TIP3    H127510   5.624   5.994   3.839
 9196TIP3    H227511   5.771   6.013   3.869
 9197TIP3   OH227512   5.445   6.299   2.933
 9197TIP3    H127513   5.369   6.245   2.909
 9197TIP3    H227514   5.417   6.344   3.013
 9198TIP3   OH227515   6.336   6.562   3.537
 9198TIP3    H127516   6.372   6.611   3.463
 9198TIP3    H227517   6.256   6.522   3.502
 9199TIP3   OH227518   5.891   5.645   2.835
 9199TIP3    H127519   5.797   5.662   2.838
 9199TIP3    H227520   5.931   5.731   2.847
 9200TIP3   OH227521   5.853   6.646   3.953
 9200TIP3    H127522   5.901   6.634   4.035
 9200TIP3    H227523   5.811   6.731   3.962
 9201TIP3   OH227524   5.987   5.893   2.900
 9201TIP3    H127525   6.081   5.901   2.917
 9201TIP3    H227526   5.965   5.972   2.852
 9202TIP3   OH227527   5.134   6.314   3.580
 9202TIP3    H127528   5.172   6.299   3.493
 9202TIP3    H227529   5.200   6.283   3.641
 9203TIP3   OH227530   5.593   6.465   2.775
 9203TIP3    H127531   5.547   6.549   2.772
 9203TIP3    H227532   5.537   6.408   2.828
 9204TIP3   OH227533   5.016   6.247   4.209
 9204TIP3    H127534   5.015   6.222   4.301
 9204TIP3    H227535   4.940   6.203   4.171
 9205TIP3   OH227536   5.756   6.390   4.236
 9205TIP3    H127537   5.686   6.331   4.210
 9205TIP3    H227538   5.836   6.346   4.206
 9206TIP3   OH227539   5.995   6.935   3.831
 9206TIP3    H127540   5.901   6.919   3.838
 9206TIP3    H227541   6.020   6.971   3.916
 9207TIP3   OH227542   6.386   5.978   2.726
 9207TIP3    H127543   6.327   5.933   2.666
 9207TIP3    H227544   6.393   6.067   2.690
 9208TIP3   OH227545   6.633   6.840   3.809
 9208TIP3    H127546   6.539   6.829   3.794
 9208TIP3    H227547   6.674   6.817   3.725
 9209TIP3   OH227548   6.123   6.792   2.656
 9209TIP3    H127549   6.094   6.724   2.716
 9209TIP3    H227550   6.143   6.746   2.575
 9210TIP3   OH227551   6.106   6.428   3.434
 9210TIP3    H127552   6.017   6.406   3.460
 9210TIP3    H227553   6.140   6.346   3.396
 9211TIP3   OH227554   5.259   6.663   3.249
 9211TIP3    H127555   5.252   6.738   3.190
 9211TIP3    H227556   5.172   6.656   3.288
 9212TIP3   OH227557   4.827   5.948   2.971
 9212TIP3    H127558   4.864   6.035   2.988
 9212TIP3    H227559   4.744   5.949   3.018
 9213TIP3   OH227560   5.342   6.419   3.152
 9213TIP3    H127561   5.324   6.509   3.181
 9213TIP3    H227562   5.316   6.364   3.225
 9214TIP3   OH227563   5.542   6.984   3.703
 9214TIP3    H127564   5.579   7.055   3.651
 9214TIP3    H227565   5.615   6.951   3.755
 9215TIP3   OH227566   5.176   6.885   3.097
 9215TIP3    H127567   5.089   6.890   3.135
 9215TIP3    H227568   5.211   6.974   3.102
 9216TIP3   OH227569   5.894   6.649   3.680
 9216TIP3    H127570   5.878   6.646   3.774
 9216TIP3    H227571   5.977   6.603   3.667
 9217TIP3   OH227572   5.890   6.524   2.540
 9217TIP3    H127573   5.939   6.492   2.615
 9217TIP3    H227574   5.805   6.481   2.547
 9218TIP3   OH227575   6.149   7.146   3.715
 9218TIP3    H127576   6.079   7.083   3.732
 9218TIP3    H227577   6.115   7.201   3.644
 9219TIP3   OH227578   6.195   6.990   2.350
 9219TIP3    H127579   6.200   7.045   2.271
 9219TIP3    H227580   6.127   7.032   2.403
 9220TIP3   OH227581   5.210   5.793   4.203
 9220TIP3    H127582   5.115   5.797   4.193
 9220TIP3    H227583   5.224   5.780   4.297
 9221TIP3   OH227584   6.063   6.424   2.728
 9221TIP3    H127585   6.049   6.376   2.810
 9221TIP3    H227586   6.157   6.438   2.724
 9222TIP3   OH227587   4.972   6.869   3.864
 9222TIP3    H127588   5.024   6.808   3.916
 9222TIP3    H227589   4.983   6.953   3.908
 9223TIP3   OH227590   5.245   6.491   2.557
 9223TIP3    H127591   5.252   6.399   2.531
 9223TIP3    H227592   5.229   6.488   2.651
 9224TIP3   OH227593   5.183   6.510   2.828
 9224TIP3    H127594   5.237   6.486   2.903
 9224TIP3    H227595   5.180   6.606   2.830
 9225TIP3   OH227596   4.914   6.205   3.039
 9225TIP3    H127597   4.848   6.251   3.092
 9225TIP3    H227598   4.928   6.263   2.964
 9226TIP3   OH227599   6.086   5.828   3.908
 9226TIP3    H127600   6.160   5.874   3.946
 9226TIP3    H227601   6.077   5.749   3.962
 9227TIP3   OH227602   5.968   5.577   3.099
 9227TIP3    H127603   5.943   5.602   3.010
 9227TIP3    H227604   6.013   5.653   3.134
 9228TIP3   OH227605   5.454   6.697   2.768
 9228TIP3    H127606   5.368   6.719   2.804
 9228TIP3    H227607   5.475   6.770   2.710
 9229TIP3   OH227608   5.624   5.760   3.170
 9229TIP3    H127609   5.685   5.832   3.152
 9229TIP3    H227610   5.639   5.738   3.262
 9230TIP3   OH227611   5.919   6.070   3.969
 9230TIP3    H127612   5.940   6.116   4.051
 9230TIP3    H227613   5.967   5.988   3.975
 9231TIP3   OH227614   5.771   5.466   3.260
 9231TIP3    H127615   5.742   5.538   3.316
 9231TIP3    H227616   5.846   5.501   3.213
 9232TIP3   OH227617   5.203   6.783   2.843
 9232TIP3    H127618   5.182   6.855   2.784
 9232TIP3    H227619   5.191   6.820   2.931
 9233TIP3   OH227620   5.320   5.454   3.114
 9233TIP3    H127621   5.314   5.547   3.134
 9233TIP3    H227622   5.317   5.411   3.200
 9234TIP3   OH227623   6.540   5.974   3.973
 9234TIP3    H127624   6.445   5.976   3.981
 9234TIP3    H227625   6.555   5.929   3.889
 9235TIP3   OH227626   6.198   6.169   3.346
 9235TIP3    H127627   6.121   6.114   3.358
 9235TIP3    H227628   6.265   6.130   3.402
 9236TIP3   OH227629   4.935   6.378   2.822
 9236TIP3    H127630   5.005   6.444   2.827
 9236TIP3    H227631   4.967   6.316   2.757
 9237TIP3   OH227632   4.851   5.672   2.955
 9237TIP3    H127633   4.860   5.765   2.972
 9237TIP3    H227634   4.787   5.665   2.885
 9238TIP3   OH227635   6.173   7.148   3.290
 9238TIP3    H127636   6.132   7.199   3.221
 9238TIP3    H227637   6.267   7.160   3.276
 9239TIP3   OH227638   5.251   5.377   3.827
 9239TIP3    H127639   5.219   5.348   3.741
 9239TIP3    H227640   5.258   5.296   3.878
 9240TIP3   OH227641   4.762   6.649   3.208
 9240TIP3    H127642   4.713   6.681   3.283
 9240TIP3    H227643   4.720   6.688   3.132
 9241TIP3   OH227644   4.969   7.179   4.287
 9241TIP3    H127645   5.052   7.182   4.335
 9241TIP3    H227646   4.949   7.086   4.279
 9242TIP3   OH227647   5.436   7.093   4.325
 9242TIP3    H127648   5.526   7.062   4.336
 9242TIP3    H227649   5.400   7.037   4.256
 9243TIP3   OH227650   5.395   6.694   2.447
 9243TIP3    H127651   5.348   6.623   2.491
 9243TIP3    H227652   5.469   6.650   2.404
 9244TIP3   OH227653   6.055   7.034   4.079
 9244TIP3    H127654   6.066   6.964   4.143
 9244TIP3    H227655   6.129   7.093   4.094
 9245TIP3   OH227656   5.835   6.735   2.374
 9245TIP3    H127657   5.870   6.669   2.433
 9245TIP3    H227658   5.890   6.730   2.296
 9246TIP3   OH227659   5.071   6.589   4.467
 9246TIP3    H127660   5.090   6.496   4.481
 9246TIP3    H227661   4.983   6.589   4.429
 9247TIP3   OH227662   5.067   6.187   2.676
 9247TIP3    H127663   5.119   6.166   2.753
 9247TIP3    H227664   5.132   6.202   2.607
 9248TIP3   OH227665   5.694   6.666   4.251
 9248TIP3    H127666   5.647   6.687   4.171
 9248TIP3    H227667   5.727   6.577   4.239
 9249TIP3   OH227668   5.637   6.406   2.511
 9249TIP3    H127669   5.611   6.421   2.602
 9249TIP3    H227670   5.613   6.315   2.493
 9250TIP3   OH227671   6.165   6.708   3.863
 9250TIP3    H127672   6.242   6.738   3.816
 9250TIP3    H227673   6.100   6.778   3.849
 9251TIP3   OH227674   5.182   6.336   4.484
 9251TIP3    H127675   5.257   6.298   4.437
 9251TIP3    H227676   5.215   6.353   4.572
 9252TIP3   OH227677   5.239   6.121   2.887
 9252TIP3    H127678   5.210   6.096   2.974
 9252TIP3    H227679   5.283   6.043   2.853
 9253TIP3   OH227680   5.551   6.217   4.138
 9253TIP3    H127681   5.464   6.254   4.147
 9253TIP3    H227682   5.581   6.245   4.052
 9254TIP3   OH227683   5.375   5.922   2.733
 9254TIP3    H127684   5.342   5.934   2.644
 9254TIP3    H227685   5.468   5.940   2.727
 9255TIP3   OH227686   6.040   6.587   4.218
 9255TIP3    H127687   6.108   6.546   4.165
 9255TIP3    H227688   6.036   6.534   4.298
 9256TIP3   OH227689   6.166   6.224   2.411
 9256TIP3    H127690   6.155   6.186   2.324
 9256TIP3    H227691   6.144   6.316   2.401
 9257TIP3   OH227692   5.658   5.984   4.236
 9257TIP3    H127693   5.658   5.913   4.171
 9257TIP3    H227694   5.622   6.059   4.189
 9258TIP3   OH227695   5.660   5.784   4.037
 9258TIP3    H127696   5.681   5.820   3.951
 9258TIP3    H227697   5.569   5.756   4.028
 9259TIP3   OH227698   5.666   6.311   3.910
 9259TIP3    H127699   5.753   6.351   3.903
 9259TIP3    H227700   5.609   6.369   3.860
 9260TIP3   OH227701   6.254   6.275   4.293
 9260TIP3    H127702   6.307   6.196   4.303
 9260TIP3    H227703   6.317   6.346   4.290
 9261TIP3   OH227704   6.295   6.532   4.024
 9261TIP3    H127705   6.239   6.593   3.976
 9261TIP3    H227706   6.384   6.552   3.995
 9262TIP3   OH227707   5.545   6.078   4.475
 9262TIP3    H127708   5.466   6.026   4.487
 9262TIP3    H227709   5.576   6.055   4.387
 9263TIP3   OH227710   5.797   5.563   4.135
 9263TIP3    H127711   5.751   5.640   4.102
 9263TIP3    H227712   5.733   5.492   4.130
 9264TIP3   OH227713   5.908   6.019   4.348
 9264TIP3    H127714   5.894   6.005   4.441
 9264TIP3    H227715   5.823   6.000   4.307
 9265TIP3   OH227716   6.143   5.970   4.210
 9265TIP3    H127717   6.065   5.974   4.265
 9265TIP3    H227718   6.215   5.949   4.270
 9266TIP3   OH227719   6.374   5.930   4.361
 9266TIP3    H127720   6.384   5.836   4.370
 9266TIP3    H227721   6.370   5.963   4.450
 9267TIP3   OH227722   5.351   5.887   4.544
 9267TIP3    H127723   5.395   5.803   4.563
 9267TIP3    H227724   5.349   5.932   4.629
 9268TIP3   OH227725   5.855   5.541   4.401
 9268TIP3    H127726   5.911   5.463   4.400
 9268TIP3    H227727   5.831   5.555   4.309
 9269TIP3   OH227728   5.950   5.745   4.559
 9269TIP3    H127729   5.922   5.675   4.500
 9269TIP3    H227730   5.877   5.806   4.559
 9270TIP3   OH227731   5.203   6.997   2.665
 9270TIP3    H127732   5.291   6.973   2.634
 9270TIP3    H227733   5.162   7.040   2.590
 9271TIP3   OH227734   4.661   6.362   2.856
 9271TIP3    H127735   4.753   6.384   2.838
 9271TIP3    H227736   4.647   6.279   2.811
 9272TIP3   OH227737   4.567   6.960   3.304
 9272TIP3    H127738   4.503   6.905   3.258
 9272TIP3    H227739   4.612   6.899   3.362
 9273TIP3   OH227740   4.711   6.792   3.470
 9273TIP3    H127741   4.702   6.721   3.533
 9273TIP3    H227742   4.765   6.858   3.514
 9274TIP3   OH227743   6.444   7.198   3.279
 9274TIP3    H127744   6.467   7.222   3.369
 9274TIP3    H227745   6.497   7.257   3.225
 9275TIP3   OH227746   6.472   7.223   3.560
 9275TIP3    H127747   6.422   7.141   3.555
 9275TIP3    H227748   6.541   7.206   3.624
 9276TIP3   OH227749   6.516   6.922   4.134
 9276TIP3    H127750   6.444   6.934   4.196
 9276TIP3    H227751   6.561   7.006   4.135
 9277TIP3   OH227752   6.343   6.439   2.736
 9277TIP3    H127753   6.398   6.512   2.708
 9277TIP3    H227754   6.389   6.403   2.812
 9278TIP3   OH227755   6.474   6.298   2.940
 9278TIP3    H127756   6.406   6.263   2.997
 9278TIP3    H227757   6.539   6.336   2.999
 9279TIP3   OH227758   6.516   6.703   3.377
 9279TIP3    H127759   6.568   6.636   3.332
 9279TIP3    H227760   6.519   6.778   3.319
 9280TIP3   OH227761   6.321   6.991   3.560
 9280TIP3    H127762   6.255   7.035   3.613
 9280TIP3    H227763   6.272   6.950   3.489
 9281TIP3   OH227764   6.380   6.214   2.583
 9281TIP3    H127765   6.306   6.212   2.522
 9281TIP3    H227766   6.365   6.292   2.636
 9282TIP3   OH227767   6.225   5.867   2.537
 9282TIP3    H127768   6.183   5.908   2.462
 9282TIP3    H227769   6.218   5.773   2.520
 9283TIP3   OH227770   6.270   6.162   3.078
 9283TIP3    H127771   6.278   6.067   3.066
 9283TIP3    H227772   6.249   6.173   3.171
 9284TIP3   OH227773   4.881   6.225   3.847
 9284TIP3    H127774   4.874   6.191   3.758
 9284TIP3    H227775   4.976   6.225   3.865
 9285TIP3   OH227776   6.556   6.585   3.941
 9285TIP3    H127777   6.622   6.518   3.920
 9285TIP3    H227778   6.582   6.662   3.891
 9286TIP3   OH227779   6.725   6.366   3.924
 9286TIP3    H127780   6.652   6.326   3.971
 9286TIP3    H227781   6.801   6.313   3.949
 9287TIP3   OH227782   6.185   5.597   2.487
 9287TIP3    H127783   6.258   5.572   2.542
 9287TIP3    H227784   6.109   5.553   2.526
 9288TIP3   OH227785   6.268   5.885   2.965
 9288TIP3    H127786   6.313   5.801   2.978
 9288TIP3    H227787   6.311   5.924   2.890
 9289TIP3   OH227788   6.413   6.049   3.488
 9289TIP3    H127789   6.494   6.067   3.440
 9289TIP3    H227790   6.426   6.089   3.574
 9290TIP3   OH227791   6.487   6.198   3.718
 9290TIP3    H127792   6.414   6.226   3.771
 9290TIP3    H227793   6.518   6.277   3.674
 9291TIP3   OH227794   5.088   5.884   4.470
 9291TIP3    H127795   5.179   5.898   4.496
 9291TIP3    H227796   5.059   5.809   4.521
 9292TIP3   OH227797   6.939   5.781   4.251
 9292TIP3    H127798   7.007   5.730   4.209
 9292TIP3    H227799   6.901   5.833   4.181
 9293TIP3   OH227800   6.378   5.632   3.013
 9293TIP3    H127801   6.423   5.618   3.096
 9293TIP3    H227802   6.314   5.561   3.007
 9294TIP3   OH227803   5.095   5.608   3.809
 9294TIP3    H127804   5.143   5.529   3.832
 9294TIP3    H227805   5.161   5.677   3.806
 9295TIP3   OH227806   4.864   5.866   3.900
 9295TIP3    H127807   4.914   5.865   3.819
 9295TIP3    H227808   4.886   5.950   3.940
 9296TIP3   OH227809   6.796   5.905   4.054
 9296TIP3    H127810   6.710   5.945   4.063
 9296TIP3    H227811   6.781   5.825   4.002
 9297TIP3   OH227812   6.412   5.547   2.642
 9297TIP3    H127813   6.463   5.485   2.590
 9297TIP3    H227814   6.469   5.624   2.650
 9298TIP3   OH227815   4.848   5.403   3.411
 9298TIP3    H127816   4.763   5.384   3.450
 9298TIP3    H227817   4.828   5.451   3.331
 9299TIP3   OH227818   6.014   7.111   2.922
 9299TIP3    H127819   6.067   7.098   2.844
 9299TIP3    H227820   6.055   7.183   2.968
 9300TIP3   OH227821   5.063   5.457   4.222
 9300TIP3    H127822   5.012   5.449   4.302
 9300TIP3    H227823   5.008   5.509   4.164
 9301TIP3   OH227824   5.104   6.899   4.305
 9301TIP3    H127825   5.010   6.880   4.294
 9301TIP3    H227826   5.119   6.886   4.398
 9302TIP3   OH227827   5.313   6.947   3.852
 9302TIP3    H127828   5.261   7.022   3.820
 9302TIP3    H227829   5.398   6.957   3.809
 9303TIP3   OH227830   5.711   7.180   3.988
 9303TIP3    H127831   5.749   7.171   4.076
 9303TIP3    H227832   5.775   7.233   3.940
 9304TIP3   OH227833   5.900   7.333   3.858
 9304TIP3    H127834   5.962   7.278   3.809
 9304TIP3    H227835   5.956   7.388   3.913
 9305TIP3   OH227836   6.708   5.667   3.944
 9305TIP3    H127837   6.625   5.663   3.896
 9305TIP3    H227838   6.743   5.578   3.938
 9306TIP3   OH227839   4.974   7.191   3.897
 9306TIP3    H127840   4.882   7.207   3.876
 9306TIP3    H227841   4.995   7.256   3.964
 9307TIP3   OH227842   5.204   7.179   3.748
 9307TIP3    H127843   5.121   7.183   3.795
 9307TIP3    H227844   5.181   7.202   3.658
 9308TIP3   OH227845   5.620   7.191   3.535
 9308TIP3    H127846   5.546   7.201   3.475
 9308TIP3    H227847   5.627   7.276   3.579
 9309TIP3   OH227848   5.886   7.134   3.584
 9309TIP3    H127849   5.793   7.151   3.563
 9309TIP3    H227850   5.933   7.203   3.537
 9310TIP3   OH227851   6.090   7.314   3.494
 9310TIP3    H127852   6.078   7.400   3.452
 9310TIP3    H227853   6.118   7.257   3.423
 9311TIP3   OH227854   4.888   6.966   3.615
 9311TIP3    H127855   4.912   6.939   3.703
 9311TIP3    H227856   4.959   6.931   3.560
 9312TIP3   OH227857   5.089   6.849   3.473
 9312TIP3    H127858   5.101   6.765   3.516
 9312TIP3    H227859   5.176   6.890   3.477
 9313TIP3   OH227860   5.357   6.937   3.498
 9313TIP3    H127861   5.378   6.845   3.482
 9313TIP3    H227862   5.409   6.960   3.575
 9314TIP3   OH227863   5.917   5.587   3.572
 9314TIP3    H127864   5.901   5.518   3.637
 9314TIP3    H227865   5.986   5.552   3.516
 9315TIP3   OH227866   6.420   5.493   3.468
 9315TIP3    H127867   6.460   5.544   3.397
 9315TIP3    H227868   6.329   5.523   3.470
 9316TIP3   OH227869   6.534   5.580   3.234
 9316TIP3    H127870   6.602   5.519   3.208
 9316TIP3    H227871   6.574   5.667   3.222
 9317TIP3   OH227872   5.166   5.283   3.579
 9317TIP3    H127873   5.074   5.261   3.591
 9317TIP3    H227874   5.211   5.198   3.577
 9318TIP3   OH227875   4.992   5.215   3.253
 9318TIP3    H127876   4.991   5.263   3.170
 9318TIP3    H227877   4.948   5.274   3.315
 9319TIP3   OH227878   5.592   5.351   3.494
 9319TIP3    H127879   5.657   5.383   3.432
 9319TIP3    H227880   5.636   5.355   3.579
 9320TIP3   OH227881   6.135   5.488   3.432
 9320TIP3    H127882   6.154   5.449   3.346
 9320TIP3    H227883   6.133   5.414   3.492
 9321TIP3   OH227884   6.187   5.425   3.017
 9321TIP3    H127885   6.109   5.473   3.044
 9321TIP3    H227886   6.177   5.338   3.056
 9322TIP3   OH227887   4.646   6.767   2.988
 9322TIP3    H127888   4.562   6.738   2.952
 9322TIP3    H227889   4.653   6.858   2.961
 9323TIP3   OH227890   5.083   5.331   2.987
 9323TIP3    H127891   5.123   5.259   2.939
 9323TIP3    H227892   5.156   5.371   3.036
 9324TIP3   OH227893   5.595   5.523   3.030
 9324TIP3    H127894   5.652   5.470   3.086
 9324TIP3    H227895   5.601   5.611   3.066
 9325TIP3   OH227896   5.455   6.917   2.591
 9325TIP3    H127897   5.538   6.945   2.553
 9325TIP3    H227898   5.425   6.846   2.534
 9326TIP3   OH227899   6.160   7.061   2.692
 9326TIP3    H127900   6.152   6.966   2.684
 9326TIP3    H227901   6.114   7.095   2.614
 9327TIP3   OH227902   5.385   5.583   4.510
 9327TIP3    H127903   5.290   5.572   4.515
 9327TIP3    H227904   5.409   5.546   4.425
 9328TIP3   OH227905   5.673   5.511   4.608
 9328TIP3    H127906   5.725   5.541   4.534
 9328TIP3    H227907   5.723   5.438   4.645
 9329TIP3   OH227908   4.760   6.754   2.632
 9329TIP3    H127909   4.753   6.754   2.727
 9329TIP3    H227910   4.842   6.707   2.615
 9330TIP3   OH227911   6.439   5.658   4.372
 9330TIP3    H127912   6.458   5.630   4.462
 9330TIP3    H227913   6.522   5.652   4.326
 9331TIP3   OH227914   6.369   7.199   3.881
 9331TIP3    H127915   6.293   7.170   3.829
 9331TIP3    H227916   6.356   7.293   3.892
 9332TIP3   OH227917   7.638   6.580   2.625
 9332TIP3    H127918   7.597   6.666   2.618
 9332TIP3    H227919   7.571   6.518   2.598
 9333TIP3   OH227920   7.641   6.576   3.046
 9333TIP3    H127921   7.696   6.561   3.123
 9333TIP3    H227922   7.599   6.491   3.029
 9334TIP3   OH227923   6.945   6.444   3.389
 9334TIP3    H127924   6.980   6.393   3.462
 9334TIP3    H227925   7.023   6.474   3.342
 9335TIP3   OH227926   7.903   6.881   2.715
 9335TIP3    H127927   7.900   6.814   2.783
 9335TIP3    H227928   7.928   6.961   2.762
 9336TIP3   OH227929   7.003   6.856   3.090
 9336TIP3    H127930   6.960   6.770   3.087
 9336TIP3    H227931   7.022   6.870   3.183
 9337TIP3   OH227932   6.624   6.072   2.859
 9337TIP3    H127933   6.586   6.156   2.885
 9337TIP3    H227934   6.551   6.025   2.818
 9338TIP3   OH227935   6.704   6.384   3.081
 9338TIP3    H127936   6.753   6.307   3.108
 9338TIP3    H227937   6.771   6.448   3.058
 9339TIP3   OH227938   7.567   7.307   2.737
 9339TIP3    H127939   7.587   7.233   2.679
 9339TIP3    H227940   7.580   7.272   2.826
 9340TIP3   OH227941   7.461   6.801   3.057
 9340TIP3    H127942   7.505   6.720   3.033
 9340TIP3    H227943   7.532   6.858   3.088
 9341TIP3   OH227944   8.455   6.107   3.071
 9341TIP3    H127945   8.475   6.193   3.107
 9341TIP3    H227946   8.492   6.109   2.982
 9342TIP3   OH227947   7.858   6.285   3.085
 9342TIP3    H127948   7.893   6.201   3.114
 9342TIP3    H227949   7.823   6.268   2.997
 9343TIP3   OH227950   7.216   5.946   3.043
 9343TIP3    H127951   7.196   6.019   2.985
 9343TIP3    H227952   7.161   5.874   3.013
 9344TIP3   OH227953   7.911   6.047   2.682
 9344TIP3    H127954   7.975   6.039   2.753
 9344TIP3    H227955   7.961   6.081   2.608
 9345TIP3   OH227956   6.840   6.161   3.174
 9345TIP3    H127957   6.924   6.144   3.218
 9345TIP3    H227958   6.845   6.110   3.094
 9346TIP3   OH227959   7.263   6.361   2.983
 9346TIP3    H127960   7.357   6.345   2.991
 9346TIP3    H227961   7.228   6.278   2.950
 9347TIP3   OH227962   8.516   6.329   3.225
 9347TIP3    H127963   8.434   6.377   3.218
 9347TIP3    H227964   8.558   6.365   3.303
 9348TIP3   OH227965   7.198   5.952   3.495
 9348TIP3    H127966   7.148   5.987   3.421
 9348TIP3    H227967   7.142   5.969   3.571
 9349TIP3   OH227968   7.508   6.804   2.512
 9349TIP3    H127969   7.474   6.788   2.424
 9349TIP3    H227970   7.595   6.843   2.497
 9350TIP3   OH227971   7.289   6.728   3.261
 9350TIP3    H127972   7.232   6.798   3.291
 9350TIP3    H227973   7.344   6.768   3.194
 9351TIP3   OH227974   8.069   6.068   2.903
 9351TIP3    H127975   8.027   6.048   2.987
 9351TIP3    H227976   8.125   6.144   2.922
 9352TIP3   OH227977   7.088   6.058   3.264
 9352TIP3    H127978   7.142   6.133   3.288
 9352TIP3    H227979   7.135   6.015   3.193
 9353TIP3   OH227980   7.109   6.923   3.350
 9353TIP3    H127981   7.111   7.017   3.330
 9353TIP3    H227982   7.039   6.914   3.414
 9354TIP3   OH227983   6.511   6.633   2.620
 9354TIP3    H127984   6.474   6.655   2.534
 9354TIP3    H227985   6.534   6.718   2.658
 9355TIP3   OH227986   7.932   7.129   2.850
 9355TIP3    H127987   7.845   7.121   2.889
 9355TIP3    H227988   7.932   7.215   2.807
 9356TIP3   OH227989   8.265   5.992   3.237
 9356TIP3    H127990   8.179   6.019   3.205
 9356TIP3    H227991   8.326   6.022   3.170
 9357TIP3   OH227992   7.536   5.641   3.225
 9357TIP3    H127993   7.530   5.549   3.251
 9357TIP3    H227994   7.460   5.682   3.265
 9358TIP3   OH227995   7.623   7.138   2.517
 9358TIP3    H127996   7.673   7.056   2.508
 9358TIP3    H227997   7.687   7.207   2.498
 9359TIP3   OH227998   7.762   6.905   2.483
 9359TIP3    H127999   7.810   6.858   2.414
 9359TIP3    H228000   7.816   6.893   2.561
 9360TIP3   OH228001   8.182   7.027   3.197
 9360TIP3    H128002   8.164   6.948   3.146
 9360TIP3    H228003   8.168   7.099   3.135
 9361TIP3   OH228004   7.464   6.420   2.480
 9361TIP3    H128005   7.384   6.468   2.457
 9361TIP3    H228006   7.513   6.415   2.398
 9362TIP3   OH228007   7.451   6.225   2.159
 9362TIP3    H128008   7.513   6.274   2.213
 9362TIP3    H228009   7.505   6.160   2.115
 9363TIP3   OH228010   8.357   6.670   3.063
 9363TIP3    H128011   8.276   6.720   3.067
 9363TIP3    H228012   8.391   6.686   2.975
 9364TIP3   OH228013   7.831   6.520   2.441
 9364TIP3    H128014   7.776   6.543   2.516
 9364TIP3    H228015   7.912   6.488   2.480
 9365TIP3   OH228016   8.059   6.545   3.380
 9365TIP3    H128017   8.058   6.630   3.422
 9365TIP3    H228018   7.977   6.541   3.331
 9366TIP3   OH228019   7.062   6.491   2.836
 9366TIP3    H128020   7.024   6.431   2.773
 9366TIP3    H228021   7.134   6.443   2.876
 9367TIP3   OH228022   7.230   6.920   2.933
 9367TIP3    H128023   7.157   6.888   2.985
 9367TIP3    H228024   7.307   6.879   2.972
 9368TIP3   OH228025   7.165   6.488   3.210
 9368TIP3    H128026   7.204   6.452   3.131
 9368TIP3    H228027   7.214   6.569   3.227
 9369TIP3   OH228028   7.692   7.119   2.979
 9369TIP3    H128029   7.685   7.201   3.028
 9369TIP3    H228030   7.687   7.051   3.046
 9370TIP3   OH228031   7.340   6.996   3.514
 9370TIP3    H128032   7.289   7.063   3.560
 9370TIP3    H228033   7.275   6.948   3.463
 9371TIP3   OH228034   7.657   6.378   2.283
 9371TIP3    H128035   7.718   6.433   2.332
 9371TIP3    H228036   7.681   6.390   2.192
 9372TIP3   OH228037   7.091   6.579   3.659
 9372TIP3    H128038   7.099   6.667   3.696
 9372TIP3    H228039   6.997   6.561   3.659
 9373TIP3   OH228040   7.355   7.096   2.585
 9373TIP3    H128041   7.354   7.025   2.650
 9373TIP3    H228042   7.447   7.102   2.558
 9374TIP3   OH228043   7.171   7.185   3.601
 9374TIP3    H128044   7.116   7.218   3.530
 9374TIP3    H228045   7.140   7.231   3.679
 9375TIP3   OH228046   8.148   5.601   2.316
 9375TIP3    H128047   8.079   5.628   2.377
 9375TIP3    H228048   8.166   5.679   2.264
 9376TIP3   OH228049   6.932   6.335   2.637
 9376TIP3    H128050   6.856   6.384   2.607
 9376TIP3    H228051   6.899   6.248   2.658
 9377TIP3   OH228052   8.020   6.979   1.916
 9377TIP3    H128053   8.009   7.070   1.888
 9377TIP3    H228054   8.110   6.957   1.892
 9378TIP3   OH228055   6.721   6.744   3.568
 9378TIP3    H128056   6.649   6.722   3.509
 9378TIP3    H228057   6.757   6.659   3.594
 9379TIP3   OH228058   6.558   6.945   3.234
 9379TIP3    H128059   6.643   6.980   3.263
 9379TIP3    H228060   6.496   7.016   3.252
 9380TIP3   OH228061   8.395   7.373   3.247
 9380TIP3    H128062   8.425   7.288   3.281
 9380TIP3    H228063   8.321   7.397   3.303
 9381TIP3   OH228064   7.512   7.172   3.386
 9381TIP3    H128065   7.502   7.260   3.423
 9381TIP3    H228066   7.451   7.118   3.435
 9382TIP3   OH228067   7.260   7.282   2.341
 9382TIP3    H128068   7.246   7.256   2.250
 9382TIP3    H228069   7.242   7.376   2.342
 9383TIP3   OH228070   6.739   7.126   2.740
 9383TIP3    H128071   6.799   7.109   2.813
 9383TIP3    H228072   6.699   7.041   2.720
 9384TIP3   OH228073   7.526   7.221   1.998
 9384TIP3    H128074   7.555   7.133   1.972
 9384TIP3    H228075   7.542   7.224   2.092
 9385TIP3   OH228076   7.529   7.246   2.271
 9385TIP3    H128077   7.439   7.249   2.302
 9385TIP3    H228078   7.578   7.204   2.342
 9386TIP3   OH228079   8.306   6.521   3.547
 9386TIP3    H128080   8.224   6.532   3.499
 9386TIP3    H228081   8.327   6.428   3.539
 9387TIP3   OH228082   6.890   6.953   3.515
 9387TIP3    H128083   6.908   6.989   3.602
 9387TIP3    H228084   6.831   6.879   3.531
 9388TIP3   OH228085   7.301   5.734   3.353
 9388TIP3    H128086   7.217   5.702   3.320
 9388TIP3    H228087   7.280   5.815   3.398
 9389TIP3   OH228088   7.845   5.855   3.553
 9389TIP3    H128089   7.917   5.828   3.610
 9389TIP3    H228090   7.766   5.839   3.604
 9390TIP3   OH228091   8.057   6.275   3.459
 9390TIP3    H128092   8.021   6.270   3.548
 9390TIP3    H228093   8.048   6.367   3.435
 9391TIP3   OH228094   7.729   6.399   2.028
 9391TIP3    H128095   7.689   6.381   1.943
 9391TIP3    H228096   7.815   6.435   2.006
 9392TIP3   OH228097   7.451   5.778   2.322
 9392TIP3    H128098   7.415   5.783   2.410
 9392TIP3    H228099   7.416   5.696   2.287
 9393TIP3   OH228100   7.237   6.268   3.363
 9393TIP3    H128101   7.192   6.276   3.446
 9393TIP3    H228102   7.217   6.349   3.316
 9394TIP3   OH228103   7.121   6.145   2.880
 9394TIP3    H128104   7.032   6.121   2.906
 9394TIP3    H228105   7.129   6.112   2.791
 9395TIP3   OH228106   7.599   6.217   2.609
 9395TIP3    H128107   7.549   6.288   2.569
 9395TIP3    H228108   7.657   6.186   2.540
 9396TIP3   OH228109   7.789   6.483   3.678
 9396TIP3    H128110   7.764   6.416   3.741
 9396TIP3    H228111   7.881   6.502   3.698
 9397TIP3   OH228112   7.766   6.232   2.833
 9397TIP3    H128113   7.697   6.251   2.769
 9397TIP3    H228114   7.814   6.158   2.794
 9398TIP3   OH228115   7.074   6.284   3.584
 9398TIP3    H128116   7.086   6.349   3.653
 9398TIP3    H228117   7.057   6.202   3.631
 9399TIP3   OH228118   7.118   5.754   2.300
 9399TIP3    H128119   7.109   5.759   2.395
 9399TIP3    H228120   7.040   5.799   2.266
 9400TIP3   OH228121   6.670   5.800   3.160
 9400TIP3    H128122   6.739   5.838   3.215
 9400TIP3    H228123   6.713   5.786   3.075
 9401TIP3   OH228124   6.569   5.778   2.662
 9401TIP3    H128125   6.615   5.815   2.587
 9401TIP3    H228126   6.508   5.847   2.689
 9402TIP3   OH228127   7.809   6.489   3.256
 9402TIP3    H128128   7.834   6.422   3.193
 9402TIP3    H228129   7.766   6.441   3.327
 9403TIP3   OH228130   7.484   5.934   2.932
 9403TIP3    H128131   7.407   5.934   2.989
 9403TIP3    H228132   7.558   5.924   2.991
 9404TIP3   OH228133   6.882   6.021   2.942
 9404TIP3    H128134   6.795   6.026   2.904
 9404TIP3    H228135   6.911   5.931   2.926
 9405TIP3   OH228136   7.132   6.022   2.634
 9405TIP3    H128137   7.227   6.032   2.626
 9405TIP3    H228138   7.098   6.041   2.547
 9406TIP3   OH228139   7.929   6.021   3.140
 9406TIP3    H128140   7.909   6.038   3.232
 9406TIP3    H228141   7.861   5.959   3.112
 9407TIP3   OH228142   7.024   6.051   2.384
 9407TIP3    H128143   6.960   6.000   2.334
 9407TIP3    H228144   7.078   6.093   2.317
 9408TIP3   OH228145   8.121   7.723   3.355
 9408TIP3    H128146   8.113   7.720   3.260
 9408TIP3    H228147   8.194   7.782   3.372
 9409TIP3   OH228148   7.083   6.815   3.809
 9409TIP3    H128149   7.157   6.850   3.859
 9409TIP3    H228150   7.022   6.888   3.802
 9410TIP3   OH228151   7.534   6.306   3.038
 9410TIP3    H128152   7.602   6.258   2.993
 9410TIP3    H228153   7.531   6.266   3.126
 9411TIP3   OH228154   7.023   5.772   2.928
 9411TIP3    H128155   6.995   5.696   2.979
 9411TIP3    H228156   7.048   5.735   2.843
 9412TIP3   OH228157   7.504   6.212   3.304
 9412TIP3    H128158   7.418   6.245   3.329
 9412TIP3    H228159   7.565   6.264   3.356
 9413TIP3   OH228160   7.230   6.567   2.425
 9413TIP3    H128161   7.161   6.503   2.407
 9413TIP3    H228162   7.209   6.601   2.512
 9414TIP3   OH228163   8.119   6.811   3.034
 9414TIP3    H128164   8.158   6.858   2.960
 9414TIP3    H228165   8.041   6.769   2.997
 9415TIP3   OH228166   7.703   5.881   2.326
 9415TIP3    H128167   7.610   5.861   2.323
 9415TIP3    H228168   7.707   5.975   2.339
 9416TIP3   OH228169   7.650   6.896   3.442
 9416TIP3    H128170   7.701   6.882   3.521
 9416TIP3    H228171   7.594   6.971   3.462
 9417TIP3   OH228172   7.764   6.143   2.394
 9417TIP3    H128173   7.859   6.146   2.405
 9417TIP3    H228174   7.743   6.221   2.343
 9418TIP3   OH228175   6.934   6.574   3.068
 9418TIP3    H128176   6.969   6.557   2.981
 9418TIP3    H228177   7.000   6.539   3.128
 9419TIP3   OH228178   7.359   6.751   2.272
 9419TIP3    H128179   7.301   6.827   2.277
 9419TIP3    H228180   7.315   6.683   2.322
 9420TIP3   OH228181   6.817   6.512   3.696
 9420TIP3    H128182   6.828   6.491   3.789
 9420TIP3    H228183   6.740   6.463   3.669
 9421TIP3   OH228184   7.554   6.631   3.726
 9421TIP3    H128185   7.485   6.572   3.696
 9421TIP3    H228186   7.635   6.591   3.695
 9422TIP3   OH228187   7.785   7.189   3.317
 9422TIP3    H128188   7.691   7.174   3.325
 9422TIP3    H228189   7.811   7.220   3.403
 9423TIP3   OH228190   8.179   6.239   2.225
 9423TIP3    H128191   8.122   6.192   2.164
 9423TIP3    H228192   8.187   6.327   2.187
 9424TIP3   OH228193   8.432   7.092   3.285
 9424TIP3    H128194   8.338   7.087   3.273
 9424TIP3    H228195   8.469   7.076   3.198
 9425TIP3   OH228196   7.907   7.022   2.163
 9425TIP3    H128197   7.884   6.936   2.200
 9425TIP3    H228198   7.947   7.002   2.079
 9426TIP3   OH228199   7.896   6.680   2.916
 9426TIP3    H128200   7.807   6.659   2.945
 9426TIP3    H228201   7.930   6.598   2.881
 9427TIP3   OH228202   6.617   6.207   2.442
 9427TIP3    H128203   6.658   6.290   2.464
 9427TIP3    H228204   6.536   6.206   2.492
 9428TIP3   OH228205   7.157   6.683   2.661
 9428TIP3    H128206   7.194   6.752   2.715
 9428TIP3    H228207   7.115   6.623   2.723
 9429TIP3   OH228208   7.345   7.238   3.171
 9429TIP3    H128209   7.380   7.316   3.130
 9429TIP3    H228210   7.413   7.210   3.232
 9430TIP3   OH228211   7.695   6.908   3.168
 9430TIP3    H128212   7.677   6.906   3.262
 9430TIP3    H228213   7.781   6.869   3.159
 9431TIP3   OH228214   7.689   6.765   2.063
 9431TIP3    H128215   7.728   6.744   2.148
 9431TIP3    H228216   7.606   6.717   2.061
 9432TIP3   OH228217   7.940   7.384   3.196
 9432TIP3    H128218   7.876   7.320   3.223
 9432TIP3    H228219   7.897   7.434   3.127
 9433TIP3   OH228220   8.020   7.245   1.845
 9433TIP3    H128221   8.080   7.303   1.798
 9433TIP3    H228222   7.945   7.301   1.867
 9434TIP3   OH228223   7.022   6.026   3.700
 9434TIP3    H128224   6.927   6.036   3.703
 9434TIP3    H228225   7.042   5.963   3.770
 9435TIP3   OH228226   7.868   6.740   2.279
 9435TIP3    H128227   7.851   6.663   2.332
 9435TIP3    H228228   7.959   6.732   2.253
 9436TIP3   OH228229   6.760   7.135   3.343
 9436TIP3    H128230   6.810   7.077   3.399
 9436TIP3    H228231   6.773   7.222   3.381
 9437TIP3   OH228232   7.044   6.739   2.045
 9437TIP3    H128233   7.052   6.650   2.011
 9437TIP3    H228234   7.019   6.728   2.137
 9438TIP3   OH228235   7.002   6.748   2.318
 9438TIP3    H128236   7.047   6.698   2.386
 9438TIP3    H228237   7.047   6.832   2.315
 9439TIP3   OH228238   6.709   6.459   2.526
 9439TIP3    H128239   6.643   6.505   2.578
 9439TIP3    H228240   6.729   6.519   2.454
 9440TIP3   OH228241   7.868   6.083   3.400
 9440TIP3    H128242   7.945   6.131   3.429
 9440TIP3    H228243   7.863   6.008   3.458
 9441TIP3   OH228244   7.760   5.831   2.594
 9441TIP3    H128245   7.742   5.849   2.502
 9441TIP3    H228246   7.805   5.909   2.626
 9442TIP3   OH228247   7.152   6.979   2.261
 9442TIP3    H128248   7.088   7.050   2.254
 9442TIP3    H228249   7.188   6.969   2.173
 9443TIP3   OH228250   7.411   6.029   2.681
 9443TIP3    H128251   7.474   6.095   2.655
 9443TIP3    H228252   7.435   6.007   2.771
 9444TIP3   OH228253   7.712   6.323   3.454
 9444TIP3    H128254   7.739   6.366   3.535
 9444TIP3    H228255   7.762   6.241   3.452
 9445TIP3   OH228256   7.575   5.723   2.768
 9445TIP3    H128257   7.553   5.800   2.821
 9445TIP3    H228258   7.646   5.753   2.711
 9446TIP3   OH228259   7.089   5.749   2.578
 9446TIP3    H128260   7.078   5.840   2.605
 9446TIP3    H228261   7.183   5.733   2.584
 9447TIP3   OH228262   8.327   6.256   3.454
 9447TIP3    H128263   8.232   6.245   3.457
 9447TIP3    H228264   8.352   6.230   3.365
 9448TIP3   OH228265   7.986   6.423   2.832
 9448TIP3    H128266   7.911   6.366   2.844
 9448TIP3    H228267   8.054   6.386   2.888
 9449TIP3   OH228268   6.736   6.639   2.314
 9449TIP3    H128269   6.804   6.706   2.321
 9449TIP3    H228270   6.770   6.578   2.249
 9450TIP3   OH228271   6.643   5.929   2.445
 9450TIP3    H128272   6.654   6.023   2.454
 9450TIP3    H228273   6.597   5.917   2.362
 9451TIP3   OH228274   7.973   7.395   2.764
 9451TIP3    H128275   7.937   7.448   2.692
 9451TIP3    H228276   8.067   7.393   2.748
 9452TIP3   OH228277   7.040   5.650   3.309
 9452TIP3    H128278   7.010   5.617   3.225
 9452TIP3    H228279   7.031   5.576   3.369
 9453TIP3   OH228280   6.559   6.901   2.701
 9453TIP3    H128281   6.522   6.942   2.779
 9453TIP3    H228282   6.516   6.946   2.628
 9454TIP3   OH228283   6.733   7.406   3.772
 9454TIP3    H128284   6.824   7.392   3.799
 9454TIP3    H228285   6.693   7.319   3.778
 9455TIP3   OH228286   7.209   6.950   1.991
 9455TIP3    H128287   7.149   6.876   1.999
 9455TIP3    H228288   7.277   6.918   1.931
 9456TIP3   OH228289   7.861   7.278   3.563
 9456TIP3    H128290   7.871   7.209   3.629
 9456TIP3    H228291   7.935   7.336   3.577
 9457TIP3   OH228292   7.610   6.980   1.915
 9457TIP3    H128293   7.649   6.912   1.970
 9457TIP3    H228294   7.682   7.010   1.859
 9458TIP3   OH228295   6.828   6.817   4.009
 9458TIP3    H128296   6.874   6.740   3.977
 9458TIP3    H228297   6.759   6.833   3.945
 9459TIP3   OH228298   6.859   6.448   2.163
 9459TIP3    H128299   6.910   6.421   2.240
 9459TIP3    H228300   6.923   6.456   2.093
 9460TIP3   OH228301   7.478   6.901   3.736
 9460TIP3    H128302   7.434   6.919   3.653
 9460TIP3    H228303   7.511   6.812   3.726
 9461TIP3   OH228304   7.439   6.653   2.017
 9461TIP3    H128305   7.396   6.672   2.101
 9461TIP3    H228306   7.410   6.564   1.996
 9462TIP3   OH228307   7.958   6.966   3.346
 9462TIP3    H128308   8.036   6.998   3.302
 9462TIP3    H228309   7.893   7.036   3.335
 9463TIP3   OH228310   6.987   6.586   3.955
 9463TIP3    H128311   7.041   6.638   3.896
 9463TIP3    H228312   7.022   6.605   4.043
 9464TIP3   OH228313   7.035   6.380   2.373
 9464TIP3    H128314   7.008   6.343   2.457
 9464TIP3    H228315   7.079   6.308   2.328
 9465TIP3   OH228316   7.345   6.465   3.627
 9465TIP3    H128317   7.260   6.508   3.636
 9465TIP3    H228318   7.377   6.493   3.541
 9466TIP3   OH228319   7.173   6.198   2.205
 9466TIP3    H128320   7.144   6.200   2.114
 9466TIP3    H228321   7.268   6.203   2.201
 9467TIP3   OH228322   7.836   6.835   3.702
 9467TIP3    H128323   7.910   6.800   3.652
 9467TIP3    H228324   7.833   6.783   3.782
 9468TIP3   OH228325   7.961   6.511   1.933
 9468TIP3    H128326   7.949   6.467   1.848
 9468TIP3    H228327   7.942   6.603   1.914
 9469TIP3   OH228328   7.447   6.236   3.738
 9469TIP3    H128329   7.452   6.166   3.673
 9469TIP3    H228330   7.414   6.311   3.689
 9470TIP3   OH228331   7.457   6.038   3.533
 9470TIP3    H128332   7.485   6.076   3.449
 9470TIP3    H228333   7.366   6.012   3.518
 9471TIP3   OH228334   7.460   6.561   3.400
 9471TIP3    H128335   7.549   6.596   3.391
 9471TIP3    H228336   7.405   6.624   3.353
 9472TIP3   OH228337   8.055   6.527   3.778
 9472TIP3    H128338   8.106   6.446   3.784
 9472TIP3    H228339   8.120   6.596   3.772
 9473TIP3   OH228340   8.089   6.791   3.509
 9473TIP3    H128341   8.033   6.852   3.461
 9473TIP3    H228342   8.177   6.809   3.476
 9474TIP3   OH228343   7.329   6.309   3.983
 9474TIP3    H128344   7.259   6.246   3.994
 9474TIP3    H228345   7.360   6.296   3.893
 9475TIP3   OH228346   7.578   5.806   3.634
 9475TIP3    H128347   7.538   5.887   3.600
 9475TIP3    H228348   7.512   5.739   3.619
 9476TIP3   OH228349   7.707   6.274   3.836
 9476TIP3    H128350   7.701   6.262   3.931
 9476TIP3    H228351   7.620   6.254   3.804
 9477TIP3   OH228352   7.951   6.229   3.703
 9477TIP3    H128353   7.873   6.229   3.758
 9477TIP3    H228354   8.023   6.209   3.762
 9478TIP3   OH228355   8.181   6.197   3.857
 9478TIP3    H128356   8.193   6.102   3.865
 9478TIP3    H228357   8.177   6.228   3.947
 9479TIP3   OH228358   7.158   6.097   4.054
 9479TIP3    H128359   7.160   6.014   4.007
 9479TIP3    H228360   7.210   6.081   4.133
 9480TIP3   OH228361   7.642   5.781   3.899
 9480TIP3    H128362   7.713   5.717   3.892
 9480TIP3    H228363   7.613   5.794   3.808
 9481TIP3   OH228364   7.742   5.994   4.044
 9481TIP3    H128365   7.712   5.922   3.988
 9481TIP3    H228366   7.670   6.057   4.044
 9482TIP3   OH228367   7.009   7.223   2.171
 9482TIP3    H128368   7.091   7.232   2.122
 9482TIP3    H228369   6.944   7.263   2.114
 9483TIP3   OH228370   6.461   6.631   2.320
 9483TIP3    H128371   6.556   6.642   2.321
 9483TIP3    H228372   6.446   6.542   2.288
 9484TIP3   OH228373   6.365   7.213   2.790
 9484TIP3    H128374   6.301   7.159   2.743
 9484TIP3    H228375   6.410   7.151   2.847
 9485TIP3   OH228376   6.508   7.040   2.953
 9485TIP3    H128377   6.498   6.974   3.023
 9485TIP3    H228378   6.566   7.105   2.990
 9486TIP3   OH228379   8.269   7.461   3.018
 9486TIP3    H128380   8.219   7.379   3.017
 9486TIP3    H228381   8.333   7.450   3.088
 9487TIP3   OH228382   8.316   7.176   3.607
 9487TIP3    H128383   8.244   7.184   3.669
 9487TIP3    H228384   8.365   7.258   3.614
 9488TIP3   OH228385   8.136   6.705   2.229
 9488TIP3    H128386   8.203   6.763   2.193
 9488TIP3    H228387   8.176   6.666   2.306
 9489TIP3   OH228388   8.246   6.566   2.436
 9489TIP3    H128389   8.181   6.520   2.489
 9489TIP3    H228390   8.312   6.594   2.499
 9490TIP3   OH228391   8.289   6.941   2.865
 9490TIP3    H128392   8.346   6.874   2.826
 9490TIP3    H228393   8.302   7.018   2.811
 9491TIP3   OH228394   8.112   7.235   3.033
 9491TIP3    H128395   8.051   7.282   3.091
 9491TIP3    H228396   8.056   7.192   2.969
 9492TIP3   OH228397   8.184   6.472   2.085
 9492TIP3    H128398   8.108   6.473   2.026
 9492TIP3    H228399   8.175   6.553   2.136
 9493TIP3   OH228400   8.033   6.133   2.027
 9493TIP3    H128401   8.049   6.172   1.941
 9493TIP3    H228402   8.005   6.044   2.008
 9494TIP3   OH228403   8.054   6.412   2.565
 9494TIP3    H128404   8.061   6.318   2.550
 9494TIP3    H228405   8.038   6.420   2.659
 9495TIP3   OH228406   6.681   6.478   3.337
 9495TIP3    H128407   6.672   6.447   3.247
 9495TIP3    H228408   6.775   6.476   3.355
 9496TIP3   OH228409   8.346   6.844   3.414
 9496TIP3    H128410   8.418   6.784   3.395
 9496TIP3    H228411   8.367   6.923   3.363
 9497TIP3   OH228412   8.537   6.646   3.464
 9497TIP3    H128413   8.452   6.617   3.499
 9497TIP3    H228414   8.588   6.565   3.457
 9498TIP3   OH228415   7.970   5.865   1.984
 9498TIP3    H128416   8.044   5.839   2.039
 9498TIP3    H228417   7.895   5.817   2.020
 9499TIP3   OH228418   8.050   6.142   2.453
 9499TIP3    H128419   8.092   6.057   2.465
 9499TIP3    H228420   8.095   6.181   2.379
 9500TIP3   OH228421   8.196   6.306   2.976
 9500TIP3    H128422   8.280   6.324   2.933
 9500TIP3    H228423   8.206   6.343   3.064
 9501TIP3   OH228424   8.268   6.453   3.205
 9501TIP3    H128425   8.198   6.485   3.262
 9501TIP3    H228426   8.298   6.529   3.157
 9502TIP3   OH228427   6.895   6.151   3.975
 9502TIP3    H128428   6.988   6.155   3.998
 9502TIP3    H228429   6.865   6.068   4.011
 9503TIP3   OH228430   8.723   6.047   3.737
 9503TIP3    H128431   8.793   6.001   3.691
 9503TIP3    H228432   8.684   6.104   3.670
 9504TIP3   OH228433   8.153   5.891   2.506
 9504TIP3    H128434   8.201   5.884   2.588
 9504TIP3    H228435   8.093   5.816   2.507
 9505TIP3   OH228436   6.877   5.875   3.330
 9505TIP3    H128437   6.931   5.796   3.334
 9505TIP3    H228438   6.939   5.945   3.313
 9506TIP3   OH228439   6.657   6.137   3.390
 9506TIP3    H128440   6.710   6.128   3.311
 9506TIP3    H228441   6.679   6.224   3.424
 9507TIP3   OH228442   8.579   6.172   3.549
 9507TIP3    H128443   8.502   6.218   3.581
 9507TIP3    H228444   8.543   6.101   3.495
 9508TIP3   OH228445   8.199   5.804   2.128
 9508TIP3    H128446   8.258   5.741   2.084
 9508TIP3    H228447   8.253   5.882   2.140
 9509TIP3   OH228448   6.644   5.639   2.885
 9509TIP3    H128449   6.560   5.631   2.931
 9509TIP3    H228450   6.625   5.696   2.811
 9510TIP3   OH228451   7.776   7.347   2.434
 9510TIP3    H128452   7.822   7.330   2.352
 9510TIP3    H228453   7.827   7.417   2.476
 9511TIP3   OH228454   6.880   5.718   3.722
 9511TIP3    H128455   6.824   5.702   3.798
 9511TIP3    H228456   6.822   5.759   3.658
 9512TIP3   OH228457   6.908   7.045   3.775
 9512TIP3    H128458   6.820   7.071   3.799
 9512TIP3    H228459   6.962   7.121   3.795
 9513TIP3   OH228460   7.108   7.192   3.304
 9513TIP3    H128461   7.058   7.271   3.282
 9513TIP3    H228462   7.195   7.208   3.266
 9514TIP3   OH228463   7.503   7.438   3.468
 9514TIP3    H128464   7.539   7.423   3.556
 9514TIP3    H228465   7.571   7.487   3.422
 9515TIP3   OH228466   7.708   7.580   3.348
 9515TIP3    H128467   7.774   7.523   3.309
 9515TIP3    H228468   7.757   7.640   3.404
 9516TIP3   OH228469   8.463   5.948   3.429
 9516TIP3    H128470   8.385   5.963   3.375
 9516TIP3    H228471   8.486   5.856   3.414
 9517TIP3   OH228472   6.767   7.440   3.384
 9517TIP3    H128473   6.676   7.462   3.365
 9517TIP3    H228474   6.791   7.497   3.457
 9518TIP3   OH228475   6.997   7.434   3.231
 9518TIP3    H128476   6.916   7.437   3.282
 9518TIP3    H228477   6.971   7.462   3.143
 9519TIP3   OH228478   7.412   7.463   3.022
 9519TIP3    H128479   7.334   7.477   2.969
 9519TIP3    H228480   7.422   7.544   3.072
 9520TIP3   OH228481   7.671   7.381   3.058
 9520TIP3    H128482   7.581   7.410   3.046
 9520TIP3    H228483   7.724   7.451   3.023
 9521TIP3   OH228484   7.872   7.549   2.970
 9521TIP3    H128485   7.851   7.632   2.927
 9521TIP3    H228486   7.908   7.495   2.900
 9522TIP3   OH228487   6.691   7.213   3.086
 9522TIP3    H128488   6.709   7.192   3.178
 9522TIP3    H228489   6.765   7.177   3.037
 9523TIP3   OH228490   6.906   7.092   2.965
 9523TIP3    H128491   6.928   7.008   3.005
 9523TIP3    H228492   6.989   7.140   2.964
 9524TIP3   OH228493   7.171   7.191   2.961
 9524TIP3    H128494   7.195   7.102   2.934
 9524TIP3    H228495   7.224   7.208   3.039
 9525TIP3   OH228496   7.713   5.840   3.066
 9525TIP3    H128497   7.675   5.768   3.117
 9525TIP3    H228498   7.780   5.798   3.012
 9526TIP3   OH228499   8.211   5.770   2.952
 9526TIP3    H128500   8.253   5.821   2.883
 9526TIP3    H228501   8.122   5.804   2.956
 9527TIP3   OH228502   8.322   5.858   2.718
 9527TIP3    H128503   8.382   5.792   2.683
 9527TIP3    H228504   8.363   5.942   2.697
 9528TIP3   OH228505   6.951   5.543   3.070
 9528TIP3    H128506   6.862   5.509   3.078
 9528TIP3    H228507   7.006   5.465   3.062
 9529TIP3   OH228508   6.759   5.445   2.714
 9529TIP3    H128509   6.791   5.496   2.640
 9529TIP3    H228510   6.727   5.510   2.776
 9530TIP3   OH228511   7.430   5.584   2.966
 9530TIP3    H128512   7.479   5.629   2.898
 9530TIP3    H228513   7.472   5.611   3.048
 9531TIP3   OH228514   7.923   5.717   2.935
 9531TIP3    H128515   7.963   5.680   2.856
 9531TIP3    H228516   7.929   5.647   3.000
 9532TIP3   OH228517   7.977   5.677   2.517
 9532TIP3    H128518   7.897   5.722   2.544
 9532TIP3    H228519   7.969   5.590   2.556
 9533TIP3   OH228520   6.442   7.022   2.480
 9533TIP3    H128521   6.357   6.993   2.447
 9533TIP3    H228522   6.448   7.113   2.453
 9534TIP3   OH228523   6.878   5.582   2.486
 9534TIP3    H128524   6.925   5.522   2.428
 9534TIP3    H228525   6.946   5.638   2.523
 9535TIP3   OH228526   7.364   5.777   2.585
 9535TIP3    H128527   7.424   5.724   2.638
 9535TIP3    H228528   7.379   5.867   2.613
 9536TIP3   OH228529   7.261   7.209   2.071
 9536TIP3    H128530   7.345   7.234   2.033
 9536TIP3    H228531   7.241   7.125   2.031
 9537TIP3   OH228532   7.902   7.297   2.197
 9537TIP3    H128533   7.910   7.202   2.190
 9537TIP3    H228534   7.898   7.327   2.107
 9538TIP3   OH228535   7.179   5.832   3.953
 9538TIP3    H128536   7.147   5.765   4.013
 9538TIP3    H228537   7.272   5.840   3.975
 9539TIP3   OH228538   7.429   5.832   4.074
 9539TIP3    H128539   7.505   5.812   4.020
 9539TIP3    H228540   7.427   5.762   4.139
 9540TIP3   OH228541   6.563   7.022   2.142
 9540TIP3    H128542   6.555   7.031   2.237
 9540TIP3    H228543   6.645   6.976   2.129
 9541TIP3   OH228544   8.237   5.925   3.867
 9541TIP3    H128545   8.260   5.897   3.955
 9541TIP3    H228546   8.320   5.920   3.818
 9542TIP3   OH228547   8.156   7.448   3.365
 9542TIP3    H128548   8.085   7.419   3.308
 9542TIP3    H228549   8.148   7.543   3.368
 9543TIP3   OH228550   8.716   6.698   2.914
 9543TIP3    H128551   8.767   6.651   2.981
 9543TIP3    H228552   8.781   6.732   2.853
 9544TIP3   OH228553   8.403   6.347   2.355
 9544TIP3    H128554   8.362   6.430   2.375
 9544TIP3    H228555   8.334   6.294   2.316
 9545TIP3   OH228556   8.485   6.617   2.567
 9545TIP3    H128557   8.515   6.532   2.599
 9545TIP3    H228558   8.546   6.639   2.497
 9546TIP3   OH228559   8.586   6.381   2.658
 9546TIP3    H128560   8.679   6.400   2.653
 9546TIP3    H228561   8.573   6.306   2.600
 9547TIP3   OH228562   8.325   6.871   2.112
 9547TIP3    H128563   8.304   6.888   2.020
 9547TIP3    H228564   8.323   6.957   2.154
 9548TIP3   OH228565   8.512   7.010   3.032
 9548TIP3    H128566   8.435   6.985   2.981
 9548TIP3    H228567   8.535   6.931   3.080
 9549TIP3   OH228568   8.372   7.174   2.743
 9549TIP3    H128569   8.458   7.184   2.703
 9549TIP3    H228570   8.368   7.245   2.808
 9550TIP3   OH228571   8.775   7.102   3.014
 9550TIP3    H128572   8.776   7.115   3.109
 9550TIP3    H228573   8.686   7.070   2.995
 9551TIP3   OH228574   8.889   6.565   3.090
 9551TIP3    H128575   8.920   6.605   3.171
 9551TIP3    H228576   8.858   6.478   3.116
 9552TIP3   OH228577   8.452   6.078   2.632
 9552TIP3    H128578   8.504   6.102   2.709
 9552TIP3    H228579   8.510   6.096   2.558
 9553TIP3   OH228580   8.358   6.035   2.159
 9553TIP3    H128581   8.414   6.068   2.087
 9553TIP3    H228582   8.303   6.110   2.182
 9554TIP3   OH228583   8.617   6.202   2.443
 9554TIP3    H128584   8.544   6.247   2.401
 9554TIP3    H228585   8.695   6.234   2.398
 9555TIP3   OH228586   8.569   6.807   3.203
 9555TIP3    H128587   8.636   6.769   3.260
 9555TIP3    H228588   8.520   6.731   3.170
 9556TIP3   OH228589   8.412   6.418   1.932
 9556TIP3    H128590   8.459   6.501   1.945
 9556TIP3    H228591   8.334   6.427   1.987
 9557TIP3   OH228592   8.803   6.323   3.180
 9557TIP3    H128593   8.709   6.302   3.184
 9557TIP3    H228594   8.844   6.261   3.240
 9558TIP3   OH228595   8.502   6.677   1.967
 9558TIP3    H128596   8.459   6.744   2.021
 9558TIP3    H228597   8.538   6.726   1.893
 9559TIP3   OH228598   8.493   6.149   1.950
 9559TIP3    H128599   8.472   6.241   1.934
 9559TIP3    H228600   8.486   6.107   1.864
 9560TIP3   OH228601   8.793   5.931   2.720
 9560TIP3    H128602   8.744   5.896   2.646
 9560TIP3    H228603   8.869   5.874   2.729
 9561TIP3   OH228604   8.660   7.091   3.446
 9561TIP3    H128605   8.692   7.003   3.430
 9561TIP3    H228606   8.576   7.095   3.400
 9562TIP3   OH228607   8.758   6.811   3.449
 9562TIP3    H128608   8.678   6.762   3.469
 9562TIP3    H228609   8.786   6.847   3.533
 9563TIP3   OH228610   0.032   6.449   3.489
 9563TIP3    H128611   0.050   6.372   3.434
 9563TIP3    H228612   0.054   6.421   3.577
 9564TIP3   OH228613   8.281   6.909   1.847
 9564TIP3    H128614   8.308   6.963   1.772
 9564TIP3    H228615   8.275   6.820   1.812
 9565TIP3   OH228616   8.464   6.736   2.815
 9565TIP3    H128617   8.467   6.699   2.727
 9565TIP3    H228618   8.555   6.729   2.847
 9566TIP3   OH228619   8.663   6.409   3.446
 9566TIP3    H128620   8.758   6.422   3.457
 9566TIP3    H228621   8.645   6.326   3.490
 9567TIP3   OH228622   8.621   6.109   2.847
 9567TIP3    H128623   8.670   6.034   2.814
 9567TIP3    H228624   8.688   6.175   2.867
 9568TIP3   OH228625   8.443   6.393   2.894
 9568TIP3    H128626   8.489   6.380   2.812
 9568TIP3    H228627   8.488   6.467   2.936
 9569TIP3   OH228628   8.397   5.852   2.355
 9569TIP3    H128629   8.323   5.862   2.415
 9569TIP3    H228630   8.394   5.931   2.300
 9570TIP3   OH228631   8.649   5.970   3.220
 9570TIP3    H128632   8.595   5.976   3.298
 9570TIP3    H228633   8.595   6.009   3.150
 9571TIP3   OH228634   8.659   5.841   2.499
 9571TIP3    H128635   8.589   5.786   2.533
 9571TIP3    H228636   8.657   5.827   2.404
 9572TIP3   OH228637   8.508   5.696   2.160
 9572TIP3    H128638   8.556   5.754   2.101
 9572TIP3    H228639   8.473   5.753   2.228
 9573TIP3   OH228640   8.670   5.861   2.007
 9573TIP3    H128641   8.742   5.825   2.060
 9573TIP3    H228642   8.682   5.956   2.012
 9574TIP3   OH228643   0.069   6.202   3.374
 9574TIP3    H128644   0.096   6.166   3.458
 9574TIP3    H228645   0.146   6.194   3.318
 9575TIP3   OH228646   0.950   6.945   4.739
 9575TIP3    H128647   0.976   7.002   4.811
 9575TIP3    H228648   0.924   7.005   4.669
 9576TIP3   OH228649   0.395   6.863   4.374
 9576TIP3    H128650   0.471   6.845   4.430
 9576TIP3    H228651   0.433   6.882   4.288
 9577TIP3   OH228652   1.018   7.121   4.935
 9577TIP3    H128653   0.929   7.155   4.930
 9577TIP3    H228654   1.056   7.165   5.011
 9578TIP3   OH228655   0.596   6.844   4.556
 9578TIP3    H128656   0.551   6.779   4.610
 9578TIP3    H228657   0.614   6.916   4.616
 9579TIP3   OH228658   0.730   6.838   4.900
 9579TIP3    H128659   0.643   6.865   4.871
 9579TIP3    H228660   0.789   6.867   4.830
 9580TIP3   OH228661   0.639   7.834   4.913
 9580TIP3    H128662   0.609   7.753   4.870
 9580TIP3    H228663   0.575   7.900   4.886
 9581TIP3   OH228664   0.817   7.452   4.763
 9581TIP3    H128665   0.739   7.508   4.771
 9581TIP3    H228666   0.853   7.474   4.677
 9582TIP3   OH228667   0.628   6.392   4.011
 9582TIP3    H128668   0.546   6.411   4.057
 9582TIP3    H228669   0.646   6.471   3.960
 9583TIP3   OH228670   0.451   7.754   3.568
 9583TIP3    H128671   0.474   7.847   3.559
 9583TIP3    H228672   0.532   7.707   3.549
 9584TIP3   OH228673   0.895   8.142   5.040
 9584TIP3    H128674   0.870   8.070   5.098
 9584TIP3    H228675   0.838   8.132   4.964
 9585TIP3   OH228676   0.773   7.256   5.221
 9585TIP3    H128677   0.693   7.257   5.274
 9585TIP3    H228678   0.794   7.163   5.209
 9586TIP3   OH228679   0.519   7.068   5.193
 9586TIP3    H128680   0.484   7.005   5.255
 9586TIP3    H228681   0.442   7.115   5.161
 9587TIP3   OH228682   0.179   7.249   3.594
 9587TIP3    H128683   0.209   7.215   3.509
 9587TIP3    H228684   0.244   7.316   3.617
 9588TIP3   OH228685   0.579   7.608   4.757
 9588TIP3    H128686   0.621   7.643   4.679
 9588TIP3    H228687   0.499   7.567   4.725
 9589TIP3   OH228688   0.266   6.887   4.059
 9589TIP3    H128689   0.355   6.915   4.077
 9589TIP3    H228690   0.235   6.946   3.990
 9590TIP3   OH228691   0.648   7.017   3.894
 9590TIP3    H128692   0.593   6.970   3.831
 9590TIP3    H228693   0.649   7.107   3.861
 9591TIP3   OH228694   0.901   7.837   4.981
 9591TIP3    H128695   0.808   7.856   4.976
 9591TIP3    H228696   0.929   7.824   4.890
 9592TIP3   OH228697   0.349   7.797   3.850
 9592TIP3    H128698   0.373   7.716   3.894
 9592TIP3    H228699   0.374   7.784   3.759
 9593TIP3   OH228700   0.514   8.015   3.552
 9593TIP3    H128701   0.480   8.083   3.494
 9593TIP3    H228702   0.500   8.049   3.640
 9594TIP3   OH228703   0.777   6.992   5.131
 9594TIP3    H128704   0.687   7.011   5.155
 9594TIP3    H228705   0.770   6.933   5.056
 9595TIP3   OH228706   0.437   7.142   4.517
 9595TIP3    H128707   0.394   7.057   4.511
 9595TIP3    H228708   0.506   7.129   4.582
 9596TIP3   OH228709   0.473   7.304   3.562
 9596TIP3    H128710   0.432   7.246   3.498
 9596TIP3    H228711   0.433   7.389   3.547
 9597TIP3   OH228712   0.682   6.986   5.546
 9597TIP3    H128713   0.688   6.891   5.544
 9597TIP3    H228714   0.623   7.005   5.619
 9598TIP3   OH228715   0.711   8.166   4.461
 9598TIP3    H128716   0.743   8.234   4.521
 9598TIP3    H228717   0.623   8.196   4.436
 9599TIP3   OH228718   0.731   8.135   4.826
 9599TIP3    H128719   0.640   8.127   4.796
 9599TIP3    H228720   0.783   8.113   4.749
 9600TIP3   OH228721   0.793   7.972   5.241
 9600TIP3    H128722   0.716   7.927   5.276
 9600TIP3    H228723   0.808   8.044   5.303
 9601TIP3   OH228724   0.586   7.478   3.921
 9601TIP3    H128725   0.652   7.538   3.885
 9601TIP3    H228726   0.628   7.440   3.998
 9602TIP3   OH228727   0.728   7.343   4.117
 9602TIP3    H128728   0.669   7.298   4.178
 9602TIP3    H228729   0.792   7.386   4.173
 9603TIP3   OH228730   0.734   7.685   4.554
 9603TIP3    H128731   0.796   7.623   4.516
 9603TIP3    H228732   0.753   7.768   4.509
 9604TIP3   OH228733   0.643   7.259   3.767
 9604TIP3    H128734   0.582   7.266   3.693
 9604TIP3    H228735   0.620   7.332   3.824
 9605TIP3   OH228736   0.502   6.896   3.700
 9605TIP3    H128737   0.448   6.932   3.629
 9605TIP3    H228738   0.490   6.801   3.693
 9606TIP3   OH228739   0.564   7.185   4.271
 9606TIP3    H128740   0.545   7.099   4.233
 9606TIP3    H228741   0.515   7.185   4.354
 9607TIP3   OH228742   0.804   7.613   5.129
 9607TIP3    H128743   0.858   7.540   5.097
 9607TIP3    H228744   0.821   7.684   5.067
 9608TIP3   OH228745   0.963   7.392   5.084
 9608TIP3    H128746   0.895   7.350   5.136
 9608TIP3    H228747   1.045   7.354   5.115
 9609TIP3   OH228748   0.471   6.618   3.693
 9609TIP3    H128749   0.542   6.608   3.756
 9609TIP3    H228750   0.393   6.589   3.740
 9610TIP3   OH228751   0.533   6.930   4.133
 9610TIP3    H128752   0.572   6.843   4.144
 9610TIP3    H228753   0.575   6.966   4.055
 9611TIP3   OH228754   0.660   7.084   4.687
 9611TIP3    H128755   0.732   7.111   4.629
 9611TIP3    H228756   0.678   7.128   4.770
 9612TIP3   OH228757   0.760   7.226   4.904
 9612TIP3    H128758   0.734   7.250   4.993
 9612TIP3    H228759   0.782   7.310   4.863
 9613TIP3   OH228760   1.217   6.843   5.422
 9613TIP3    H128761   1.277   6.783   5.378
 9613TIP3    H228762   1.174   6.891   5.352
 9614TIP3   OH228763   0.629   6.675   4.183
 9614TIP3    H128764   0.673   6.660   4.266
 9614TIP3    H228765   0.558   6.611   4.182
 9615TIP3   OH228766   1.052   6.970   5.242
 9615TIP3    H128767   0.994   7.008   5.307
 9615TIP3    H228768   0.994   6.923   5.182
 9616TIP3   OH228769   0.700   6.592   3.837
 9616TIP3    H128770   0.748   6.536   3.776
 9616TIP3    H228771   0.753   6.672   3.841
 9617TIP3   OH228772   0.978   6.691   5.126
 9617TIP3    H128773   0.889   6.665   5.103
 9617TIP3    H228774   1.028   6.610   5.123
 9618TIP3   OH228775   0.735   6.556   4.626
 9618TIP3    H128776   0.766   6.609   4.554
 9618TIP3    H228777   0.643   6.582   4.637
 9619TIP3   OH228778   0.820   6.652   4.383
 9619TIP3    H128779   0.882   6.584   4.356
 9619TIP3    H228780   0.861   6.734   4.356
 9620TIP3   OH228781   0.466   6.613   4.643
 9620TIP3    H128782   0.433   6.556   4.574
 9620TIP3    H228783   0.461   6.560   4.722
 9621TIP3   OH228784   0.423   6.486   4.184
 9621TIP3    H128785   0.337   6.529   4.184
 9621TIP3    H228786   0.412   6.411   4.243
 9622TIP3   OH228787   0.723   6.719   5.555
 9622TIP3    H128788   0.734   6.684   5.643
 9622TIP3    H228789   0.806   6.700   5.511
 9623TIP3   OH228790   1.909   7.609   3.817
 9623TIP3    H128791   1.880   7.695   3.788
 9623TIP3    H228792   1.838   7.550   3.792
 9624TIP3   OH228793   1.888   7.610   4.218
 9624TIP3    H128794   1.938   7.597   4.298
 9624TIP3    H228795   1.846   7.525   4.202
 9625TIP3   OH228796   1.192   7.476   4.589
 9625TIP3    H128797   1.220   7.418   4.659
 9625TIP3    H228798   1.264   7.538   4.578
 9626TIP3   OH228799   2.147   7.852   3.848
 9626TIP3    H128800   2.116   7.781   3.905
 9626TIP3    H228801   2.184   7.917   3.909
 9627TIP3   OH228802   1.167   7.875   4.273
 9627TIP3    H128803   1.152   7.780   4.275
 9627TIP3    H228804   1.261   7.884   4.256
 9628TIP3   OH228805   0.872   7.114   4.041
 9628TIP3    H128806   0.834   7.199   4.065
 9628TIP3    H228807   0.802   7.069   3.995
 9629TIP3   OH228808   0.953   7.435   4.254
 9629TIP3    H128809   0.997   7.352   4.276
 9629TIP3    H228810   1.025   7.496   4.236
 9630TIP3   OH228811   1.850   8.294   3.975
 9630TIP3    H128812   1.915   8.229   4.002
 9630TIP3    H228813   1.784   8.292   4.044
 9631TIP3   OH228814   1.694   7.832   4.222
 9631TIP3    H128815   1.735   7.754   4.186
 9631TIP3    H228816   1.766   7.883   4.259
 9632TIP3   OH228817   2.734   7.164   4.240
 9632TIP3    H128818   2.753   7.248   4.283
 9632TIP3    H228819   2.761   7.177   4.149
 9633TIP3   OH228820   2.105   7.324   4.265
 9633TIP3    H128821   2.148   7.242   4.291
 9633TIP3    H228822   2.072   7.307   4.177
 9634TIP3   OH228823   1.462   6.977   4.211
 9634TIP3    H128824   1.449   7.053   4.154
 9634TIP3    H228825   1.412   6.907   4.169
 9635TIP3   OH228826   2.161   7.091   3.853
 9635TIP3    H128827   2.224   7.087   3.924
 9635TIP3    H228828   2.210   7.124   3.778
 9636TIP3   OH228829   1.066   7.198   4.343
 9636TIP3    H128830   1.152   7.183   4.383
 9636TIP3    H228831   1.069   7.149   4.261
 9637TIP3   OH228832   1.521   7.395   4.145
 9637TIP3    H128833   1.615   7.377   4.155
 9637TIP3    H228834   1.484   7.312   4.114
 9638TIP3   OH228835   2.795   7.384   4.403
 9638TIP3    H128836   2.704   7.416   4.403
 9638TIP3    H228837   2.833   7.419   4.483
 9639TIP3   OH228838   1.409   6.992   4.672
 9639TIP3    H128839   1.431   7.084   4.656
 9639TIP3    H228840   1.386   6.988   4.765
 9640TIP3   OH228841   1.786   7.814   3.684
 9640TIP3    H128842   1.758   7.811   3.592
 9640TIP3    H228843   1.729   7.880   3.724
 9641TIP3   OH228844   1.555   7.732   4.439
 9641TIP3    H128845   1.495   7.797   4.474
 9641TIP3    H228846   1.598   7.776   4.365
 9642TIP3   OH228847   2.318   7.124   4.073
 9642TIP3    H128848   2.285   7.097   4.158
 9642TIP3    H228849   2.379   7.195   4.092
 9643TIP3   OH228850   1.308   7.062   4.421
 9643TIP3    H128851   1.354   7.140   4.451
 9643TIP3    H228852   1.353   7.037   4.341
 9644TIP3   OH228853   1.382   7.912   4.550
 9644TIP3    H128854   1.357   7.997   4.513
 9644TIP3    H228855   1.315   7.894   4.617
 9645TIP3   OH228856   0.785   7.642   3.819
 9645TIP3    H128857   0.757   7.705   3.754
 9645TIP3    H228858   0.802   7.694   3.898
 9646TIP3   OH228859   2.212   8.055   4.027
 9646TIP3    H128860   2.138   8.062   4.086
 9646TIP3    H228861   2.188   8.110   3.951
 9647TIP3   OH228862   2.533   7.057   4.409
 9647TIP3    H128863   2.448   7.077   4.369
 9647TIP3    H228864   2.597   7.083   4.344
 9648TIP3   OH228865   1.802   6.677   4.396
 9648TIP3    H128866   1.799   6.585   4.422
 9648TIP3    H228867   1.728   6.718   4.441
 9649TIP3   OH228868   1.917   8.117   3.706
 9649TIP3    H128869   1.977   8.055   3.665
 9649TIP3    H228870   1.971   8.163   3.771
 9650TIP3   OH228871   2.098   7.948   3.594
 9650TIP3    H128872   2.086   7.872   3.537
 9650TIP3    H228873   2.121   7.911   3.679
 9651TIP3   OH228874   2.441   8.042   4.364
 9651TIP3    H128875   2.423   7.960   4.319
 9651TIP3    H228876   2.437   8.108   4.294
 9652TIP3   OH228877   1.726   7.462   3.659
 9652TIP3    H128878   1.647   7.512   3.640
 9652TIP3    H228879   1.774   7.460   3.577
 9653TIP3   OH228880   1.699   7.266   3.342
 9653TIP3    H128881   1.762   7.318   3.392
 9653TIP3    H228882   1.752   7.200   3.298
 9654TIP3   OH228883   2.617   7.719   4.255
 9654TIP3    H128884   2.529   7.755   4.250
 9654TIP3    H228885   2.652   7.728   4.166
 9655TIP3   OH228886   2.086   7.538   3.622
 9655TIP3    H128887   2.035   7.566   3.698
 9655TIP3    H228888   2.173   7.517   3.656
 9656TIP3   OH228889   2.312   7.582   4.553
 9656TIP3    H128890   2.312   7.665   4.601
 9656TIP3    H228891   2.231   7.585   4.501
 9657TIP3   OH228892   1.312   7.527   4.015
 9657TIP3    H128893   1.275   7.467   3.950
 9657TIP3    H228894   1.389   7.481   4.049
 9658TIP3   OH228895   1.429   7.924   4.179
 9658TIP3    H128896   1.415   7.924   4.084
 9658TIP3    H228897   1.521   7.897   4.189
 9659TIP3   OH228898   1.425   7.499   4.381
 9659TIP3    H128899   1.462   7.471   4.297
 9659TIP3    H228900   1.473   7.579   4.402
 9660TIP3   OH228901   1.994   8.130   4.173
 9660TIP3    H128902   1.984   8.215   4.216
 9660TIP3    H228903   1.967   8.067   4.239
 9661TIP3   OH228904   1.563   8.016   4.733
 9661TIP3    H128905   1.500   8.079   4.768
 9661TIP3    H228906   1.513   7.964   4.670
 9662TIP3   OH228907   1.907   7.419   3.453
 9662TIP3    H128908   1.970   7.469   3.505
 9662TIP3    H228909   1.938   7.427   3.363
 9663TIP3   OH228910   1.349   7.611   4.823
 9663TIP3    H128911   1.367   7.694   4.866
 9663TIP3    H228912   1.253   7.602   4.827
 9664TIP3   OH228913   1.662   8.050   3.785
 9664TIP3    H128914   1.756   8.069   3.782
 9664TIP3    H228915   1.627   8.090   3.706
 9665TIP3   OH228916   1.351   8.186   4.790
 9665TIP3    H128917   1.318   8.176   4.701
 9665TIP3    H228918   1.282   8.151   4.846
 9666TIP3   OH228919   2.427   6.649   3.497
 9666TIP3    H128920   2.350   6.667   3.550
 9666TIP3    H228921   2.434   6.723   3.438
 9667TIP3   OH228922   1.188   7.370   3.815
 9667TIP3    H128923   1.114   7.420   3.779
 9667TIP3    H228924   1.152   7.283   3.830
 9668TIP3   OH228925   2.232   7.987   3.022
 9668TIP3    H128926   2.247   8.069   3.068
 9668TIP3    H228927   2.320   7.954   3.002
 9669TIP3   OH228928   0.964   7.758   4.725
 9669TIP3    H128929   0.887   7.724   4.679
 9669TIP3    H228930   1.003   7.681   4.766
 9670TIP3   OH228931   0.831   7.919   4.464
 9670TIP3    H128932   0.898   7.923   4.533
 9670TIP3    H228933   0.787   8.003   4.468
 9671TIP3   OH228934   2.707   8.389   4.506
 9671TIP3    H128935   2.722   8.295   4.514
 9671TIP3    H228936   2.612   8.399   4.520
 9672TIP3   OH228937   1.808   8.097   4.644
 9672TIP3    H128938   1.809   8.191   4.627
 9672TIP3    H228939   1.720   8.081   4.679
 9673TIP3   OH228940   0.993   8.015   3.833
 9673TIP3    H128941   1.010   8.026   3.927
 9673TIP3    H228942   0.900   8.036   3.824
 9674TIP3   OH228943   2.002   8.083   3.275
 9674TIP3    H128944   1.985   8.113   3.186
 9674TIP3    H228945   1.916   8.057   3.309
 9675TIP3   OH228946   1.780   8.058   3.449
 9675TIP3    H128947   1.730   8.132   3.483
 9675TIP3    H228948   1.852   8.046   3.511
 9676TIP3   OH228949   2.555   7.539   4.722
 9676TIP3    H128950   2.475   7.544   4.670
 9676TIP3    H228951   2.576   7.446   4.726
 9677TIP3   OH228952   1.191   7.916   4.741
 9677TIP3    H128953   1.183   7.964   4.823
 9677TIP3    H228954   1.105   7.875   4.728
 9678TIP3   OH228955   1.566   6.769   4.521
 9678TIP3    H128956   1.499   6.735   4.461
 9678TIP3    H228957   1.523   6.842   4.565
 9679TIP3   OH228958   2.097   6.900   4.730
 9679TIP3    H128959   2.170   6.875   4.787
 9679TIP3    H228960   2.019   6.881   4.781
 9680TIP3   OH228961   2.308   7.318   4.641
 9680TIP3    H128962   2.271   7.314   4.729
 9680TIP3    H228963   2.296   7.409   4.614
 9681TIP3   OH228964   2.001   7.416   3.202
 9681TIP3    H128965   1.958   7.404   3.117
 9681TIP3    H228966   2.085   7.457   3.182
 9682TIP3   OH228967   1.694   6.827   3.495
 9682TIP3    H128968   1.661   6.832   3.584
 9682TIP3    H228969   1.664   6.742   3.463
 9683TIP3   OH228970   1.440   7.270   4.537
 9683TIP3    H128971   1.417   7.301   4.625
 9683TIP3    H228972   1.436   7.348   4.482
 9684TIP3   OH228973   1.369   7.182   4.057
 9684TIP3    H128974   1.279   7.159   4.081
 9684TIP3    H228975   1.377   7.152   3.966
 9685TIP3   OH228976   1.852   7.257   3.786
 9685TIP3    H128977   1.804   7.329   3.745
 9685TIP3    H228978   1.911   7.226   3.717
 9686TIP3   OH228979   2.050   7.523   4.855
 9686TIP3    H128980   2.021   7.455   4.916
 9686TIP3    H228981   2.142   7.537   4.877
 9687TIP3   OH228982   2.014   7.271   4.012
 9687TIP3    H128983   1.948   7.294   3.946
 9687TIP3    H228984   2.063   7.199   3.973
 9688TIP3   OH228985   1.310   7.303   4.781
 9688TIP3    H128986   1.344   7.373   4.837
 9688TIP3    H228987   1.294   7.230   4.841
 9689TIP3   OH228988   1.363   6.797   3.475
 9689TIP3    H128989   1.355   6.804   3.571
 9689TIP3    H228990   1.286   6.844   3.442
 9690TIP3   OH228991   0.844   6.829   3.848
 9690TIP3    H128992   0.884   6.861   3.767
 9690TIP3    H228993   0.778   6.894   3.870
 9691TIP3   OH228994   2.056   7.533   4.431
 9691TIP3    H128995   2.081   7.463   4.371
 9691TIP3    H228996   2.013   7.488   4.504
 9692TIP3   OH228997   1.735   6.979   4.105
 9692TIP3    H128998   1.659   6.973   4.162
 9692TIP3    H228999   1.810   6.962   4.162
 9693TIP3   OH229000   1.130   7.055   4.116
 9693TIP3    H129001   1.043   7.062   4.078
 9693TIP3    H229002   1.158   6.966   4.096
 9694TIP3   OH229003   1.381   7.066   3.810
 9694TIP3    H129004   1.476   7.076   3.800
 9694TIP3    H229005   1.346   7.084   3.723
 9695TIP3   OH229006   2.197   7.064   4.317
 9695TIP3    H129007   2.172   7.081   4.408
 9695TIP3    H229008   2.138   6.994   4.288
 9696TIP3   OH229009   1.269   7.092   3.562
 9696TIP3    H129010   1.206   7.043   3.509
 9696TIP3    H229011   1.326   7.135   3.499
 9697TIP3   OH229012   1.368   7.823   5.001
 9697TIP3    H129013   1.436   7.870   5.049
 9697TIP3    H229014   1.286   7.856   5.037
 9698TIP3   OH229015   1.787   7.339   4.210
 9698TIP3    H129016   1.857   7.298   4.159
 9698TIP3    H229017   1.792   7.297   4.296
 9699TIP3   OH229018   1.276   6.807   4.091
 9699TIP3    H129019   1.249   6.735   4.148
 9699TIP3    H229020   1.293   6.767   4.006
 9700TIP3   OH229021   1.750   7.255   4.497
 9700TIP3    H129022   1.671   7.305   4.520
 9700TIP3    H229023   1.821   7.302   4.540
 9701TIP3   OH229024   1.497   7.606   3.596
 9701TIP3    H129025   1.429   7.542   3.578
 9701TIP3    H229026   1.475   7.641   3.682
 9702TIP3   OH229027   2.364   7.825   4.211
 9702TIP3    H129028   2.397   7.873   4.135
 9702TIP3    H229029   2.280   7.789   4.182
 9703TIP3   OH229030   1.951   6.924   3.497
 9703TIP3    H129031   1.857   6.905   3.493
 9703TIP3    H229032   1.956   7.018   3.511
 9704TIP3   OH229033   1.921   7.850   4.627
 9704TIP3    H129034   1.982   7.843   4.701
 9704TIP3    H229035   1.879   7.935   4.639
 9705TIP3   OH229036   2.015   7.185   3.569
 9705TIP3    H129037   2.110   7.188   3.579
 9705TIP3    H229038   1.994   7.263   3.518
 9706TIP3   OH229039   1.185   7.592   4.252
 9706TIP3    H129040   1.224   7.581   4.165
 9706TIP3    H229041   1.252   7.560   4.312
 9707TIP3   OH229042   1.665   7.742   3.425
 9707TIP3    H129043   1.616   7.824   3.422
 9707TIP3    H229044   1.615   7.686   3.484
 9708TIP3   OH229045   1.082   7.568   4.895
 9708TIP3    H129046   1.120   7.579   4.982
 9708TIP3    H229047   1.017   7.498   4.905
 9709TIP3   OH229048   1.823   7.677   4.886
 9709TIP3    H129049   1.775   7.658   4.805
 9709TIP3    H229050   1.907   7.633   4.874
 9710TIP3   OH229051   2.041   8.126   4.496
 9710TIP3    H129052   1.949   8.108   4.517
 9710TIP3    H229053   2.078   8.159   4.577
 9711TIP3   OH229054   2.426   7.268   3.384
 9711TIP3    H129055   2.369   7.221   3.323
 9711TIP3    H229056   2.436   7.354   3.346
 9712TIP3   OH229057   2.685   8.107   4.482
 9712TIP3    H129058   2.590   8.108   4.472
 9712TIP3    H229059   2.717   8.088   4.393
 9713TIP3   OH229060   2.262   8.004   3.347
 9713TIP3    H129061   2.242   7.995   3.440
 9713TIP3    H229062   2.176   8.006   3.304
 9714TIP3   OH229063   2.132   7.704   4.102
 9714TIP3    H129064   2.043   7.678   4.125
 9714TIP3    H229065   2.172   7.624   4.068
 9715TIP3   OH229066   1.309   7.951   3.920
 9715TIP3    H129067   1.314   8.022   3.856
 9715TIP3    H229068   1.222   7.960   3.959
 9716TIP3   OH229069   0.875   7.241   3.620
 9716TIP3    H129070   0.919   7.325   3.636
 9716TIP3    H229071   0.796   7.245   3.673
 9717TIP3   OH229072   1.402   7.709   3.825
 9717TIP3    H129073   1.380   7.797   3.855
 9717TIP3    H229074   1.372   7.651   3.896
 9718TIP3   OH229075   1.574   8.245   4.442
 9718TIP3    H129076   1.548   8.333   4.471
 9718TIP3    H229077   1.666   8.238   4.467
 9719TIP3   OH229078   1.200   8.161   3.746
 9719TIP3    H129079   1.127   8.100   3.752
 9719TIP3    H229080   1.181   8.227   3.813
 9720TIP3   OH229081   1.934   7.901   4.341
 9720TIP3    H129082   1.936   7.883   4.435
 9720TIP3    H229083   2.003   7.845   4.304
 9721TIP3   OH229084   1.901   7.797   3.244
 9721TIP3    H129085   1.973   7.778   3.304
 9721TIP3    H229086   1.822   7.779   3.294
 9722TIP3   OH229087   5.100   0.142   4.421
 9722TIP3    H129088   5.118   0.048   4.419
 9722TIP3    H229089   5.102   0.169   4.329
 9723TIP3   OH229090   2.294   8.253   3.090
 9723TIP3    H129091   2.326   8.268   3.001
 9723TIP3    H229092   2.199   8.262   3.082
 9724TIP3   OH229093   1.290   7.043   4.912
 9724TIP3    H129094   1.196   7.051   4.927
 9724TIP3    H229095   1.323   6.998   4.990
 9725TIP3   OH229096   2.095   7.729   3.426
 9725TIP3    H129097   2.084   7.661   3.492
 9725TIP3    H229098   2.188   7.729   3.406
 9726TIP3   OH229099   0.948   8.089   4.651
 9726TIP3    H129100   0.982   8.101   4.562
 9726TIP3    H229101   0.990   8.158   4.702
 9727TIP3   OH229102   1.259   7.764   3.238
 9727TIP3    H129103   1.283   7.675   3.211
 9727TIP3    H229104   1.269   7.764   3.333
 9728TIP3   OH229105   1.300   7.805   3.510
 9728TIP3    H129106   1.344   7.738   3.562
 9728TIP3    H229107   1.369   7.867   3.487
 9729TIP3   OH229108   0.972   7.490   3.691
 9729TIP3    H129109   0.907   7.530   3.749
 9729TIP3    H229110   0.979   7.551   3.617
 9730TIP3   OH229111   2.122   7.126   4.574
 9730TIP3    H129112   2.199   7.174   4.605
 9730TIP3    H229113   2.116   7.051   4.633
 9731TIP3   OH229114   2.012   6.872   3.764
 9731TIP3    H129115   1.994   6.890   3.672
 9731TIP3    H229116   2.057   6.951   3.796
 9732TIP3   OH229117   1.513   7.969   3.439
 9732TIP3    H129118   1.449   8.039   3.452
 9732TIP3    H229119   1.595   8.014   3.418
 9733TIP3   OH229120   1.659   7.075   3.857
 9733TIP3    H129121   1.723   7.140   3.829
 9733TIP3    H229122   1.685   7.052   3.946
 9734TIP3   OH229123   1.965   7.363   4.631
 9734TIP3    H129124   1.994   7.409   4.710
 9734TIP3    H229125   2.019   7.284   4.628
 9735TIP3   OH229126   1.827   6.766   3.939
 9735TIP3    H129127   1.808   6.843   3.993
 9735TIP3    H229128   1.897   6.794   3.881
 9736TIP3   OH229129   1.312   8.141   3.484
 9736TIP3    H129130   1.264   8.157   3.402
 9736TIP3    H229131   1.247   8.155   3.553
 9737TIP3   OH229132   1.338   6.793   3.757
 9737TIP3    H129133   1.329   6.884   3.784
 9737TIP3    H229134   1.433   6.777   3.760
 9738TIP3   OH229135   2.573   7.262   4.623
 9738TIP3    H129136   2.479   7.273   4.633
 9738TIP3    H229137   2.582   7.200   4.550
 9739TIP3   OH229138   2.239   7.460   4.010
 9739TIP3    H129139   2.166   7.399   4.021
 9739TIP3    H229140   2.309   7.424   4.065
 9740TIP3   OH229141   0.959   7.682   3.490
 9740TIP3    H129142   0.997   7.769   3.500
 9740TIP3    H229143   1.020   7.637   3.431
 9741TIP3   OH229144   0.892   6.964   3.615
 9741TIP3    H129145   0.909   7.057   3.626
 9741TIP3    H229146   0.828   6.960   3.544
 9742TIP3   OH229147   5.208   0.037   4.003
 9742TIP3    H129148   5.253   0.078   3.929
 9742TIP3    H229149   5.272  -0.026   4.039
 9743TIP3   OH229150   1.264   6.739   4.509
 9743TIP3    H129151   1.242   6.701   4.424
 9743TIP3    H229152   1.269   6.665   4.569
 9744TIP3   OH229153   0.773   7.854   3.989
 9744TIP3    H129154   0.733   7.909   4.055
 9744TIP3    H229155   0.736   7.884   3.906
 9745TIP3   OH229156   1.050   8.372   5.015
 9745TIP3    H129157   1.110   8.376   5.089
 9745TIP3    H229158   0.995   8.296   5.033
 9746TIP3   OH229159   1.454   8.335   4.998
 9746TIP3    H129160   1.543   8.303   5.004
 9746TIP3    H229161   1.417   8.290   4.921
 9747TIP3   OH229162   1.471   7.909   3.130
 9747TIP3    H129163   1.385   7.882   3.162
 9747TIP3    H229164   1.525   7.830   3.138
 9748TIP3   OH229165   2.149   8.223   4.715
 9748TIP3    H129166   2.125   8.185   4.799
 9748TIP3    H229167   2.128   8.316   4.723
 9749TIP3   OH229168   1.823   7.973   3.041
 9749TIP3    H129169   1.857   7.918   3.111
 9749TIP3    H229170   1.895   7.978   2.978
 9750TIP3   OH229171   1.122   7.857   5.143
 9750TIP3    H129172   1.140   7.764   5.160
 9750TIP3    H229173   1.041   7.856   5.092
 9751TIP3   OH229174   1.120   7.502   3.362
 9751TIP3    H129175   1.170   7.473   3.438
 9751TIP3    H229176   1.182   7.497   3.289
 9752TIP3   OH229177   1.735   7.939   4.933
 9752TIP3    H129178   1.682   7.954   4.855
 9752TIP3    H229179   1.777   7.855   4.917
 9753TIP3   OH229180   1.607   7.672   3.165
 9753TIP3    H129181   1.632   7.679   3.257
 9753TIP3    H229182   1.616   7.578   3.145
 9754TIP3   OH229183   2.229   7.929   4.507
 9754TIP3    H129184   2.301   7.974   4.463
 9754TIP3    H229185   2.154   7.987   4.497
 9755TIP3   OH229186   1.236   7.599   5.132
 9755TIP3    H129187   1.313   7.623   5.081
 9755TIP3    H229188   1.260   7.615   5.223
 9756TIP3   OH229189   1.298   7.423   3.558
 9756TIP3    H129190   1.270   7.387   3.642
 9756TIP3    H229191   1.339   7.349   3.513
 9757TIP3   OH229192   1.569   7.461   4.748
 9757TIP3    H129193   1.498   7.520   4.775
 9757TIP3    H229194   1.631   7.518   4.703
 9758TIP3   OH229195   1.427   7.238   3.394
 9758TIP3    H129196   1.398   7.237   3.302
 9758TIP3    H229197   1.522   7.245   3.388
 9759TIP3   OH229198   2.093   7.863   4.868
 9759TIP3    H129199   2.179   7.847   4.829
 9759TIP3    H229200   2.093   7.812   4.948
 9760TIP3   OH229201   2.219   7.528   3.078
 9760TIP3    H129202   2.210   7.484   2.993
 9760TIP3    H229203   2.182   7.615   3.064
 9761TIP3   OH229204   1.691   7.274   4.909
 9761TIP3    H129205   1.700   7.197   4.854
 9761TIP3    H229206   1.652   7.341   4.852
 9762TIP3   OH229207   1.703   7.069   4.707
 9762TIP3    H129208   1.740   7.120   4.634
 9762TIP3    H229209   1.627   7.026   4.670
 9763TIP3   OH229210   1.736   7.639   4.622
 9763TIP3    H129211   1.812   7.696   4.611
 9763TIP3    H229212   1.674   7.668   4.555
 9764TIP3   OH229213   2.312   7.556   4.961
 9764TIP3    H129214   2.354   7.471   4.975
 9764TIP3    H229215   2.384   7.615   4.940
 9765TIP3   OH229216   2.348   7.816   4.717
 9765TIP3    H129217   2.295   7.862   4.651
 9765TIP3    H229218   2.438   7.828   4.687
 9766TIP3   OH229219   1.583   7.367   5.153
 9766TIP3    H129220   1.511   7.308   5.176
 9766TIP3    H229221   1.609   7.339   5.066
 9767TIP3   OH229222   1.835   6.846   4.815
 9767TIP3    H129223   1.793   6.925   4.782
 9767TIP3    H229224   1.769   6.777   4.803
 9768TIP3   OH229225   1.952   7.319   5.011
 9768TIP3    H129226   1.945   7.307   5.105
 9768TIP3    H229227   1.864   7.301   4.978
 9769TIP3   OH229228   2.199   7.267   4.882
 9769TIP3    H129229   2.122   7.266   4.938
 9769TIP3    H229230   2.272   7.246   4.941
 9770TIP3   OH229231   2.432   7.240   5.034
 9770TIP3    H129232   2.448   7.146   5.040
 9770TIP3    H229233   2.430   7.270   5.125
 9771TIP3   OH229234   1.419   7.147   5.220
 9771TIP3    H129235   1.425   7.057   5.187
 9771TIP3    H229236   1.457   7.142   5.308
 9772TIP3   OH229237   1.895   6.825   5.081
 9772TIP3    H129238   1.964   6.759   5.079
 9772TIP3    H229239   1.869   6.836   4.990
 9773TIP3   OH229240   1.990   7.042   5.222
 9773TIP3    H129241   1.960   6.968   5.169
 9773TIP3    H229242   1.916   7.103   5.222
 9774TIP3   OH229243   0.689   7.641   3.497
 9774TIP3    H129244   0.782   7.661   3.504
 9774TIP3    H229245   0.686   7.550   3.466
 9775TIP3   OH229246   0.742   8.021   4.218
 9775TIP3    H129247   0.782   7.948   4.265
 9775TIP3    H229248   0.718   8.083   4.287
 9776TIP3   OH229249   5.506   0.056   3.979
 9776TIP3    H129250   5.479   0.087   4.065
 9776TIP3    H229251   5.454   0.107   3.918
 9777TIP3   OH229252   5.492   0.046   4.255
 9777TIP3    H129253   5.449  -0.033   4.222
 9777TIP3    H229254   5.585   0.030   4.241
 9778TIP3   OH229255   2.544   8.208   4.805
 9778TIP3    H129256   2.475   8.215   4.870
 9778TIP3    H229257   2.587   8.293   4.805
 9779TIP3   OH229258   2.366   7.703   3.419
 9779TIP3    H129259   2.421   7.768   3.377
 9779TIP3    H229260   2.419   7.670   3.492
 9780TIP3   OH229261   2.524   7.589   3.611
 9780TIP3    H129262   2.460   7.553   3.672
 9780TIP3    H229263   2.591   7.629   3.668
 9781TIP3   OH229264   2.540   7.956   4.048
 9781TIP3    H129265   2.599   7.890   4.012
 9781TIP3    H229266   2.538   8.026   3.983
 9782TIP3   OH229267   2.375   8.230   4.158
 9782TIP3    H129268   2.311   8.248   4.228
 9782TIP3    H229269   2.336   8.159   4.108
 9783TIP3   OH229270   2.433   7.504   3.244
 9783TIP3    H129271   2.362   7.506   3.180
 9783TIP3    H229272   2.411   7.574   3.306
 9784TIP3   OH229273   2.273   7.153   3.187
 9784TIP3    H129274   2.234   7.192   3.109
 9784TIP3    H229275   2.268   7.058   3.172
 9785TIP3   OH229276   2.320   7.454   3.746
 9785TIP3    H129277   2.325   7.359   3.731
 9785TIP3    H229278   2.298   7.462   3.839
 9786TIP3   OH229279   0.932   7.502   4.517
 9786TIP3    H129280   0.929   7.482   4.423
 9786TIP3    H229281   1.025   7.501   4.539
 9787TIP3   OH229282   2.599   7.866   4.612
 9787TIP3    H129283   2.661   7.796   4.593
 9787TIP3    H229284   2.627   7.939   4.556
 9788TIP3   OH229285   2.768   7.654   4.593
 9788TIP3    H129286   2.697   7.611   4.640
 9788TIP3    H229287   2.846   7.602   4.613
 9789TIP3   OH229288   2.241   6.879   3.138
 9789TIP3    H129289   2.306   6.859   3.204
 9789TIP3    H229290   2.159   6.844   3.173
 9790TIP3   OH229291   2.303   7.180   3.625
 9790TIP3    H129292   2.349   7.097   3.639
 9790TIP3    H229293   2.345   7.218   3.548
 9791TIP3   OH229294   2.459   7.351   4.148
 9791TIP3    H129295   2.540   7.369   4.100
 9791TIP3    H229296   2.474   7.388   4.235
 9792TIP3   OH229297   2.530   7.490   4.381
 9792TIP3    H129298   2.457   7.519   4.436
 9792TIP3    H229299   2.564   7.571   4.343
 9793TIP3   OH229300   1.158   7.211   5.159
 9793TIP3    H129301   1.252   7.210   5.180
 9793TIP3    H229302   1.124   7.132   5.200
 9794TIP3   OH229303   2.973   7.103   4.909
 9794TIP3    H129304   3.046   7.046   4.885
 9794TIP3    H229305   2.948   7.146   4.827
 9795TIP3   OH229306   2.419   6.932   3.678
 9795TIP3    H129307   2.464   6.917   3.761
 9795TIP3    H229308   2.358   6.859   3.670
 9796TIP3   OH229309   0.906   7.168   4.574
 9796TIP3    H129310   0.944   7.178   4.486
 9796TIP3    H229311   0.914   7.255   4.613
 9797TIP3   OH229312   2.840   7.211   4.696
 9797TIP3    H129313   2.754   7.248   4.716
 9797TIP3    H229314   2.820   7.127   4.652
 9798TIP3   OH229315   2.459   6.848   3.308
 9798TIP3    H129316   2.505   6.787   3.250
 9798TIP3    H229317   2.518   6.923   3.315
 9799TIP3   OH229318   0.894   6.673   4.068
 9799TIP3    H129319   0.805   6.663   4.100
 9799TIP3    H229320   0.887   6.739   3.999
 9800TIP3   OH229321   2.125   8.357   3.614
 9800TIP3    H129322   2.151   8.335   3.524
 9800TIP3    H229323   2.136   8.452   3.619
 9801TIP3   OH229324   1.106   6.761   4.882
 9801TIP3    H129325   1.060   6.745   4.964
 9801TIP3    H229326   1.042   6.807   4.827
 9802TIP3   OH229327   1.163   8.087   4.964
 9802TIP3    H129328   1.069   8.102   4.975
 9802TIP3    H229329   1.197   8.084   5.053
 9803TIP3   OH229330   1.318   8.178   4.502
 9803TIP3    H129331   1.282   8.266   4.513
 9803TIP3    H229332   1.408   8.191   4.474
 9804TIP3   OH229333   4.825   0.200   4.587
 9804TIP3    H129334   4.900   0.160   4.630
 9804TIP3    H229335   4.854   0.288   4.564
 9805TIP3   OH229336   2.756   6.957   4.610
 9805TIP3    H129337   2.668   6.944   4.574
 9805TIP3    H229338   2.797   6.870   4.607
 9806TIP3   OH229339   4.891  -0.001   4.255
 9806TIP3    H129340   4.801  -0.014   4.227
 9806TIP3    H229341   4.902   0.094   4.257
 9807TIP3   OH229342   0.941   8.291   4.229
 9807TIP3    H129343   0.979   8.228   4.290
 9807TIP3    H229344   0.909   8.237   4.157
 9808TIP3   OH229345   1.097   8.065   4.085
 9808TIP3    H129346   1.089   7.992   4.147
 9808TIP3    H229347   1.171   8.116   4.118
 9809TIP3   OH229348   1.331   8.184   4.173
 9809TIP3    H129349   1.366   8.101   4.205
 9809TIP3    H229350   1.387   8.206   4.098
 9810TIP3   OH229351   1.953   6.871   4.239
 9810TIP3    H129352   1.918   6.799   4.291
 9810TIP3    H229353   2.026   6.833   4.191
 9811TIP3   OH229354   2.466   6.804   4.138
 9811TIP3    H129355   2.502   6.851   4.063
 9811TIP3    H229356   2.373   6.823   4.136
 9812TIP3   OH229357   2.576   6.882   3.899
 9812TIP3    H129358   2.644   6.819   3.873
 9812TIP3    H229359   2.617   6.968   3.886
 9813TIP3   OH229360   1.213   6.603   4.272
 9813TIP3    H129361   1.125   6.565   4.272
 9813TIP3    H229362   1.272   6.528   4.263
 9814TIP3   OH229363   1.009   6.485   3.889
 9814TIP3    H129364   1.041   6.538   3.817
 9814TIP3    H229365   0.976   6.549   3.952
 9815TIP3   OH229366   1.676   6.636   4.143
 9815TIP3    H129367   1.726   6.673   4.071
 9815TIP3    H229368   1.729   6.652   4.220
 9816TIP3   OH229369   2.180   6.761   4.123
 9816TIP3    H129370   2.202   6.724   4.037
 9816TIP3    H229371   2.187   6.687   4.184
 9817TIP3   OH229372   2.234   6.721   3.681
 9817TIP3    H129373   2.154   6.767   3.708
 9817TIP3    H229374   2.225   6.633   3.718
 9818TIP3   OH229375   0.730   7.896   3.704
 9818TIP3    H129376   0.708   7.874   3.614
 9818TIP3    H229377   0.728   7.991   3.707
 9819TIP3   OH229378   1.129   6.626   3.666
 9819TIP3    H129379   1.175   6.569   3.605
 9819TIP3    H229380   1.197   6.683   3.702
 9820TIP3   OH229381   1.613   6.822   3.760
 9820TIP3    H129382   1.675   6.769   3.811
 9820TIP3    H229383   1.629   6.912   3.790
 9821TIP3   OH229384   1.530   8.178   3.199
 9821TIP3    H129385   1.475   8.209   3.128
 9821TIP3    H229386   1.516   8.083   3.201
 9822TIP3   OH229387   2.156   8.292   3.345
 9822TIP3    H129388   2.112   8.209   3.329
 9822TIP3    H229389   2.246   8.279   3.315
 9823TIP3   OH229390   1.426   6.879   5.122
 9823TIP3    H129391   1.392   6.809   5.178
 9823TIP3    H229392   1.518   6.886   5.146
 9824TIP3   OH229393   1.672   6.880   5.245
 9824TIP3    H129394   1.752   6.858   5.197
 9824TIP3    H229395   1.666   6.812   5.312
 9825TIP3   OH229396   0.792   7.935   3.409
 9825TIP3    H129397   0.810   8.018   3.452
 9825TIP3    H229398   0.875   7.909   3.370
 9826TIP3   OH229399   2.497   6.970   5.040
 9826TIP3    H129400   2.515   6.939   5.129
 9826TIP3    H229401   2.581   6.964   4.995
 9827TIP3   OH229402   5.400   0.037   4.513
 9827TIP3    H129403   5.422   0.052   4.420
 9827TIP3    H229404   5.368   0.121   4.544
 9828TIP3   OH229405   3.712   7.871   3.295
 9828TIP3    H129406   3.684   7.959   3.270
 9828TIP3    H229407   3.637   7.815   3.271
 9829TIP3   OH229408   3.686   7.860   3.700
 9829TIP3    H129409   3.734   7.847   3.781
 9829TIP3    H229410   3.641   7.776   3.685
 9830TIP3   OH229411   2.991   7.743   4.059
 9830TIP3    H129412   3.030   7.688   4.128
 9830TIP3    H229413   3.066   7.771   4.006
 9831TIP3   OH229414   3.950   8.119   3.350
 9831TIP3    H129415   3.926   8.050   3.413
 9831TIP3    H229416   3.978   8.192   3.405
 9832TIP3   OH229417   2.973   8.135   3.745
 9832TIP3    H129418   2.957   8.040   3.748
 9832TIP3    H229419   3.068   8.142   3.735
 9833TIP3   OH229420   2.667   7.366   3.518
 9833TIP3    H129421   2.629   7.450   3.546
 9833TIP3    H229422   2.593   7.318   3.481
 9834TIP3   OH229423   2.749   7.680   3.747
 9834TIP3    H129424   2.799   7.602   3.771
 9834TIP3    H229425   2.816   7.745   3.726
 9835TIP3   OH229426   6.614   0.184   3.455
 9835TIP3    H129427   6.696   0.136   3.462
 9835TIP3    H229428   6.575   0.178   3.542
 9836TIP3   OH229429   3.507   8.088   3.702
 9836TIP3    H129430   3.543   8.005   3.671
 9836TIP3    H229431   3.581   8.134   3.740
 9837TIP3   OH229432   4.533   7.420   3.727
 9837TIP3    H129433   4.550   7.505   3.769
 9837TIP3    H229434   4.555   7.434   3.635
 9838TIP3   OH229435   3.905   7.587   3.747
 9838TIP3    H129436   3.938   7.502   3.776
 9838TIP3    H229437   3.869   7.571   3.660
 9839TIP3   OH229438   3.262   7.245   3.706
 9839TIP3    H129439   3.240   7.317   3.647
 9839TIP3    H229440   3.207   7.172   3.677
 9840TIP3   OH229441   3.959   7.347   3.340
 9840TIP3    H129442   4.022   7.341   3.413
 9840TIP3    H229443   4.011   7.381   3.267
 9841TIP3   OH229444   2.887   7.458   3.835
 9841TIP3    H129445   2.970   7.439   3.878
 9841TIP3    H229446   2.890   7.407   3.754
 9842TIP3   OH229447   3.307   7.655   3.649
 9842TIP3    H129448   3.401   7.639   3.656
 9842TIP3    H229449   3.271   7.573   3.615
 9843TIP3   OH229450   4.590   7.641   3.892
 9843TIP3    H129451   4.499   7.671   3.889
 9843TIP3    H229452   4.624   7.675   3.975
 9844TIP3   OH229453   3.243   7.250   4.158
 9844TIP3    H129454   3.191   7.285   4.086
 9844TIP3    H229455   3.190   7.264   4.235
 9845TIP3   OH229456   3.592   8.082   3.168
 9845TIP3    H129457   3.563   8.061   3.079
 9845TIP3    H229458   3.526   8.141   3.202
 9846TIP3   OH229459   3.352   8.004   3.915
 9846TIP3    H129460   3.291   8.069   3.949
 9846TIP3    H229461   3.396   8.047   3.842
 9847TIP3   OH229462   4.113   7.373   3.564
 9847TIP3    H129463   4.072   7.349   3.647
 9847TIP3    H229464   4.171   7.446   3.586
 9848TIP3   OH229465   3.133   7.356   3.927
 9848TIP3    H129466   3.188   7.430   3.951
 9848TIP3    H229467   3.180   7.312   3.856
 9849TIP3   OH229468   3.178   8.178   4.027
 9849TIP3    H129469   3.153   8.265   3.994
 9849TIP3    H229470   3.112   8.158   4.093
 9850TIP3   OH229471   2.542   7.862   3.285
 9850TIP3    H129472   2.482   7.908   3.226
 9850TIP3    H229473   2.571   7.929   3.346
 9851TIP3   OH229474   3.994   8.341   3.509
 9851TIP3    H129475   3.918   8.342   3.567
 9851TIP3    H229476   3.969   8.396   3.435
 9852TIP3   OH229477   4.332   7.313   3.897
 9852TIP3    H129478   4.247   7.333   3.857
 9852TIP3    H229479   4.396   7.339   3.830
 9853TIP3   OH229480   3.584   6.942   3.890
 9853TIP3    H129481   3.578   6.850   3.916
 9853TIP3    H229482   3.507   6.983   3.929
 9854TIP3   OH229483   3.712   8.377   3.198
 9854TIP3    H129484   3.755   8.300   3.161
 9854TIP3    H229485   3.778   8.417   3.255
 9855TIP3   OH229486   3.894   8.200   3.096
 9855TIP3    H129487   3.879   8.123   3.042
 9855TIP3    H229488   3.918   8.165   3.182
 9856TIP3   OH229489   4.237   8.300   3.843
 9856TIP3    H129490   4.219   8.217   3.799
 9856TIP3    H229491   4.227   8.366   3.774
 9857TIP3   OH229492   3.526   7.724   3.141
 9857TIP3    H129493   3.443   7.769   3.121
 9857TIP3    H229494   3.572   7.720   3.057
 9858TIP3   OH229495   3.491   7.528   2.823
 9858TIP3    H129496   3.556   7.577   2.873
 9858TIP3    H229497   3.541   7.460   2.779
 9859TIP3   OH229498   4.418   7.978   3.747
 9859TIP3    H129499   4.330   8.015   3.743
 9859TIP3    H229500   4.451   7.985   3.657
 9860TIP3   OH229501   3.886   7.795   3.099
 9860TIP3    H129502   3.834   7.823   3.174
 9860TIP3    H229503   3.971   7.771   3.137
 9861TIP3   OH229504   4.109   7.839   4.037
 9861TIP3    H129505   4.108   7.922   4.084
 9861TIP3    H229506   4.028   7.839   3.986
 9862TIP3   OH229507   3.108   7.785   3.499
 9862TIP3    H129508   3.072   7.724   3.435
 9862TIP3    H229509   3.181   7.737   3.539
 9863TIP3   OH229510   3.239   8.178   3.663
 9863TIP3    H129511   3.216   8.182   3.571
 9863TIP3    H229512   3.331   8.151   3.664
 9864TIP3   OH229513   3.203   7.781   3.872
 9864TIP3    H129514   3.241   7.742   3.793
 9864TIP3    H229515   3.256   7.860   3.888
 9865TIP3   OH229516   3.767   8.363   3.658
 9865TIP3    H129517   3.684   8.408   3.672
 9865TIP3    H229518   3.767   8.292   3.723
 9866TIP3   OH229519   3.373   8.249   4.207
 9866TIP3    H129520   3.314   8.305   4.257
 9866TIP3    H229521   3.317   8.208   4.141
 9867TIP3   OH229522   3.705   7.675   2.930
 9867TIP3    H129523   3.769   7.726   2.980
 9867TIP3    H229524   3.735   7.680   2.840
 9868TIP3   OH229525   3.141   7.857   4.339
 9868TIP3    H129526   3.152   7.947   4.372
 9868TIP3    H229527   3.046   7.848   4.328
 9869TIP3   OH229528   3.450   8.312   3.259
 9869TIP3    H129529   3.544   8.329   3.261
 9869TIP3    H229530   3.420   8.354   3.179
 9870TIP3   OH229531   6.158   0.010   4.331
 9870TIP3    H129532   6.098   0.057   4.273
 9870TIP3    H229533   6.100  -0.031   4.396
 9871TIP3   OH229534   4.223   6.903   2.990
 9871TIP3    H129535   4.145   6.922   3.043
 9871TIP3    H229536   4.232   6.979   2.933
 9872TIP3   OH229537   2.984   7.628   3.299
 9872TIP3    H129538   2.907   7.675   3.265
 9872TIP3    H229539   2.952   7.540   3.318
 9873TIP3   OH229540   4.052   8.259   2.514
 9873TIP3    H129541   4.077   8.349   2.536
 9873TIP3    H229542   4.135   8.216   2.491
 9874TIP3   OH229543   2.751   8.023   4.230
 9874TIP3    H129544   2.677   7.994   4.176
 9874TIP3    H229545   2.794   7.943   4.259
 9875TIP3   OH229546   2.609   8.190   3.924
 9875TIP3    H129547   2.670   8.169   3.994
 9875TIP3    H229548   2.584   8.281   3.940
 9876TIP3   OH229549   7.460   0.246   4.017
 9876TIP3    H129550   7.469   0.152   4.004
 9876TIP3    H229551   7.368   0.259   4.040
 9877TIP3   OH229552   6.554  -0.018   4.104
 9877TIP3    H129553   6.561   0.070   4.141
 9877TIP3    H229554   6.476  -0.055   4.145
 9878TIP3   OH229555   2.847   8.230   3.356
 9878TIP3    H129556   2.859   8.283   3.435
 9878TIP3    H229557   2.776   8.170   3.377
 9879TIP3   OH229558   3.823   8.367   2.731
 9879TIP3    H129559   3.795   8.402   2.646
 9879TIP3    H229560   3.760   8.401   2.793
 9880TIP3   OH229561   6.632   0.079   2.931
 9880TIP3    H129562   6.544   0.061   2.965
 9880TIP3    H229563   6.691   0.058   3.003
 9881TIP3   OH229564   4.356   7.790   4.198
 9881TIP3    H129565   4.273   7.802   4.152
 9881TIP3    H229566   4.373   7.696   4.192
 9882TIP3   OH229567   2.999   8.153   4.226
 9882TIP3    H129568   3.030   8.150   4.316
 9882TIP3    H229569   2.908   8.123   4.231
 9883TIP3   OH229570   3.346   7.033   4.014
 9883TIP3    H129571   3.262   6.999   3.984
 9883TIP3    H229572   3.324   7.113   4.061
 9884TIP3   OH229573   3.888   7.157   4.216
 9884TIP3    H129574   3.958   7.132   4.277
 9884TIP3    H229575   3.807   7.141   4.264
 9885TIP3   OH229576   4.110   7.577   4.134
 9885TIP3    H129577   4.070   7.573   4.220
 9885TIP3    H229578   4.092   7.666   4.103
 9886TIP3   OH229579   3.789   7.666   2.672
 9886TIP3    H129580   3.744   7.660   2.588
 9886TIP3    H229581   3.870   7.713   2.652
 9887TIP3   OH229582   3.495   7.080   2.982
 9887TIP3    H129583   3.460   7.086   3.071
 9887TIP3    H229584   3.461   6.997   2.948
 9888TIP3   OH229585   3.284   7.565   4.024
 9888TIP3    H129586   3.239   7.572   4.109
 9888TIP3    H229587   3.259   7.645   3.977
 9889TIP3   OH229588   3.164   7.443   3.543
 9889TIP3    H129589   3.075   7.418   3.569
 9889TIP3    H229590   3.173   7.410   3.454
 9890TIP3   OH229591   3.646   7.517   3.274
 9890TIP3    H129592   3.600   7.590   3.233
 9890TIP3    H229593   3.705   7.485   3.205
 9891TIP3   OH229594   3.837   7.778   4.341
 9891TIP3    H129595   3.811   7.710   4.403
 9891TIP3    H229596   3.928   7.797   4.363
 9892TIP3   OH229597   3.816   7.532   3.495
 9892TIP3    H129598   3.746   7.553   3.432
 9892TIP3    H229599   3.862   7.458   3.455
 9893TIP3   OH229600   3.123   7.578   4.246
 9893TIP3    H129601   3.137   7.644   4.315
 9893TIP3    H229602   3.106   7.497   4.294
 9894TIP3   OH229603   3.165   7.058   2.961
 9894TIP3    H129604   3.155   7.060   3.056
 9894TIP3    H229605   3.086   7.101   2.928
 9895TIP3   OH229606   2.712   7.102   3.823
 9895TIP3    H129607   2.784   7.137   3.876
 9895TIP3    H229608   2.752   7.080   3.739
 9896TIP3   OH229609   2.619   7.076   3.327
 9896TIP3    H129610   2.662   7.111   3.250
 9896TIP3    H229611   2.554   7.142   3.351
 9897TIP3   OH229612   3.855   7.793   3.916
 9897TIP3    H129613   3.880   7.724   3.855
 9897TIP3    H229614   3.809   7.748   3.987
 9898TIP3   OH229615   3.531   7.237   3.597
 9898TIP3    H129616   3.453   7.235   3.652
 9898TIP3    H229617   3.604   7.225   3.657
 9899TIP3   OH229618   2.926   7.318   3.603
 9899TIP3    H129619   2.838   7.322   3.565
 9899TIP3    H229620   2.954   7.228   3.589
 9900TIP3   OH229621   3.177   7.323   3.297
 9900TIP3    H129622   3.272   7.333   3.287
 9900TIP3    H229623   3.142   7.341   3.210
 9901TIP3   OH229624   3.975   7.324   3.803
 9901TIP3    H129625   3.957   7.341   3.896
 9901TIP3    H229626   3.907   7.262   3.777
 9902TIP3   OH229627   3.064   7.349   3.049
 9902TIP3    H129628   3.001   7.298   2.998
 9902TIP3    H229629   3.120   7.391   2.984
 9903TIP3   OH229630   3.144   8.099   4.475
 9903TIP3    H129631   3.222   8.133   4.519
 9903TIP3    H229632   3.071   8.138   4.524
 9904TIP3   OH229633   3.576   7.597   3.700
 9904TIP3    H129634   3.643   7.545   3.655
 9904TIP3    H229635   3.573   7.562   3.789
 9905TIP3   OH229636   3.068   7.070   3.593
 9905TIP3    H129637   3.039   6.996   3.646
 9905TIP3    H229638   3.094   7.032   3.509
 9906TIP3   OH229639   3.551   7.513   3.966
 9906TIP3    H129640   3.464   7.544   3.992
 9906TIP3    H229641   3.612   7.565   4.019
 9907TIP3   OH229642   3.291   7.865   3.077
 9907TIP3    H129643   3.223   7.799   3.060
 9907TIP3    H229644   3.271   7.897   3.165
 9908TIP3   OH229645   4.164   8.080   3.695
 9908TIP3    H129646   4.200   8.127   3.620
 9908TIP3    H229647   4.081   8.044   3.663
 9909TIP3   OH229648   3.750   7.179   2.987
 9909TIP3    H129649   3.656   7.158   2.983
 9909TIP3    H229650   3.752   7.274   3.000
 9910TIP3   OH229651   3.707   8.112   4.107
 9910TIP3    H129652   3.760   8.107   4.187
 9910TIP3    H229653   3.655   8.192   4.118
 9911TIP3   OH229654   3.809   7.444   3.057
 9911TIP3    H129655   3.904   7.446   3.067
 9911TIP3    H229656   3.789   7.521   3.004
 9912TIP3   OH229657   2.970   7.853   3.728
 9912TIP3    H129658   3.010   7.840   3.642
 9912TIP3    H229659   3.038   7.827   3.790
 9913TIP3   OH229660   3.473   7.997   2.920
 9913TIP3    H129661   3.432   8.084   2.920
 9913TIP3    H229662   3.415   7.943   2.972
 9914TIP3   OH229663   2.862   7.810   4.370
 9914TIP3    H129664   2.878   7.786   4.462
 9914TIP3    H229665   2.787   7.756   4.345
 9915TIP3   OH229666   3.603   7.920   4.392
 9915TIP3    H129667   3.534   7.862   4.360
 9915TIP3    H229668   3.684   7.880   4.359
 9916TIP3   OH229669   3.830   8.388   3.978
 9916TIP3    H129670   3.745   8.353   4.007
 9916TIP3    H229671   3.872   8.418   4.058
 9917TIP3   OH229672   4.221   7.531   2.869
 9917TIP3    H129673   4.164   7.484   2.808
 9917TIP3    H229674   4.229   7.619   2.832
 9918TIP3   OH229675   4.477   8.362   3.957
 9918TIP3    H129676   4.384   8.354   3.935
 9918TIP3    H229677   4.522   8.347   3.874
 9919TIP3   OH229678   4.041   8.308   2.888
 9919TIP3    H129679   4.001   8.273   2.968
 9919TIP3    H229680   3.972   8.301   2.822
 9920TIP3   OH229681   3.931   7.958   3.586
 9920TIP3    H129682   3.841   7.933   3.608
 9920TIP3    H229683   3.971   7.878   3.552
 9921TIP3   OH229684   3.129   8.209   3.404
 9921TIP3    H129685   3.155   8.290   3.360
 9921TIP3    H229686   3.034   8.207   3.396
 9922TIP3   OH229687   2.668   7.496   3.101
 9922TIP3    H129688   2.712   7.579   3.120
 9922TIP3    H229689   2.588   7.499   3.153
 9923TIP3   OH229690   3.209   7.963   3.313
 9923TIP3    H129691   3.192   8.052   3.345
 9923TIP3    H229692   3.175   7.906   3.382
 9924TIP3   OH229693   6.349   0.099   3.926
 9924TIP3    H129694   6.337   0.190   3.954
 9924TIP3    H229695   6.425   0.069   3.976
 9925TIP3   OH229696   5.940   0.044   3.218
 9925TIP3    H129697   5.886  -0.033   3.237
 9925TIP3    H229698   5.915   0.108   3.285
 9926TIP3   OH229699   3.752   8.140   3.829
 9926TIP3    H129700   3.742   8.123   3.922
 9926TIP3    H229701   3.818   8.077   3.799
 9927TIP3   OH229702   3.707   8.061   2.732
 9927TIP3    H129703   3.777   8.046   2.796
 9927TIP3    H229704   3.627   8.032   2.777
 9928TIP3   OH229705   6.848   0.389   3.946
 9928TIP3    H129706   6.918   0.339   3.989
 9928TIP3    H229707   6.885   0.413   3.861
 9929TIP3   OH229708   7.105   0.134   2.513
 9929TIP3    H129709   7.167   0.154   2.443
 9929TIP3    H229710   7.022   0.173   2.484
 9930TIP3   OH229711   3.073   7.324   4.366
 9930TIP3    H129712   2.978   7.331   4.371
 9930TIP3    H229713   3.097   7.270   4.441
 9931TIP3   OH229714   3.902   7.993   2.912
 9931TIP3    H129715   3.894   7.920   2.973
 9931TIP3    H229716   3.996   7.997   2.892
 9932TIP3   OH229717   2.776   8.375   4.158
 9932TIP3    H129718   2.797   8.361   4.065
 9932TIP3    H229719   2.855   8.413   4.195
 9933TIP3   OH229720   3.071   8.027   2.715
 9933TIP3    H129721   3.087   7.937   2.686
 9933TIP3    H229722   3.075   8.022   2.811
 9934TIP3   OH229723   3.105   8.069   2.990
 9934TIP3    H129724   3.154   8.000   3.034
 9934TIP3    H229725   3.170   8.139   2.976
 9935TIP3   OH229726   2.764   7.745   3.177
 9935TIP3    H129727   2.688   7.775   3.226
 9935TIP3    H229728   2.775   7.810   3.108
 9936TIP3   OH229729   3.921   7.385   4.065
 9936TIP3    H129730   3.998   7.430   4.099
 9936TIP3    H229731   3.910   7.309   4.122
 9937TIP3   OH229732   3.808   7.130   3.255
 9937TIP3    H129733   3.788   7.147   3.163
 9937TIP3    H229734   3.853   7.209   3.286
 9938TIP3   OH229735   3.334   8.228   2.922
 9938TIP3    H129736   3.285   8.303   2.956
 9938TIP3    H229737   3.324   8.235   2.827
 9939TIP3   OH229738   3.457   7.331   3.346
 9939TIP3    H129739   3.521   7.397   3.320
 9939TIP3    H229740   3.480   7.309   3.436
 9940TIP3   OH229741   3.762   7.622   4.113
 9940TIP3    H129742   3.787   7.664   4.195
 9940TIP3    H229743   3.811   7.540   4.112
 9941TIP3   OH229744   3.622   7.025   3.431
 9941TIP3    H129745   3.600   7.103   3.483
 9941TIP3    H229746   3.692   7.055   3.373
 9942TIP3   OH229747   6.090  -0.004   2.986
 9942TIP3    H129748   6.045   0.007   2.902
 9942TIP3    H229749   6.023   0.016   3.052
 9943TIP3   OH229750   3.136   7.049   3.240
 9943TIP3    H129751   3.124   7.140   3.269
 9943TIP3    H229752   3.230   7.034   3.245
 9944TIP3   OH229753   4.372   7.515   4.104
 9944TIP3    H129754   4.278   7.528   4.118
 9944TIP3    H229755   4.377   7.451   4.033
 9945TIP3   OH229756   4.039   7.716   3.494
 9945TIP3    H129757   3.963   7.658   3.503
 9945TIP3    H229758   4.106   7.678   3.551
 9946TIP3   OH229759   2.757   7.945   2.981
 9946TIP3    H129760   2.790   8.035   2.985
 9946TIP3    H229761   2.815   7.901   2.919
 9947TIP3   OH229762   2.685   7.220   3.104
 9947TIP3    H129763   2.700   7.314   3.115
 9947TIP3    H229764   2.638   7.213   3.020
 9948TIP3   OH229765   6.990   0.308   3.502
 9948TIP3    H129766   7.043   0.347   3.433
 9948TIP3    H229767   7.046   0.240   3.540
 9949TIP3   OH229768   3.083   6.947   3.977
 9949TIP3    H129769   3.053   6.912   3.893
 9949TIP3    H229770   3.075   6.873   4.037
 9950TIP3   OH229771   2.616   8.094   3.408
 9950TIP3    H129772   2.544   8.140   3.451
 9950TIP3    H229773   2.603   8.110   3.314
 9951TIP3   OH229774   5.823   0.227   4.452
 9951TIP3    H129775   5.881   0.235   4.528
 9951TIP3    H229776   5.767   0.152   4.472
 9952TIP3   OH229777   6.236   0.204   4.504
 9952TIP3    H129778   6.329   0.183   4.509
 9952TIP3    H229779   6.201   0.144   4.439
 9953TIP3   OH229780   3.286   8.189   2.656
 9953TIP3    H129781   3.194   8.161   2.660
 9953TIP3    H229782   3.335   8.107   2.644
 9954TIP3   OH229783   6.915   0.099   4.192
 9954TIP3    H129784   6.893   0.054   4.274
 9954TIP3    H229785   6.885   0.189   4.205
 9955TIP3   OH229786   3.659   8.227   2.510
 9955TIP3    H129787   3.668   8.197   2.600
 9955TIP3    H229788   3.723   8.175   2.460
 9956TIP3   OH229789   2.909   8.094   4.649
 9956TIP3    H129790   2.937   8.003   4.645
 9956TIP3    H229791   2.826   8.095   4.600
 9957TIP3   OH229792   2.921   7.772   2.843
 9957TIP3    H129793   2.973   7.740   2.917
 9957TIP3    H229794   2.980   7.767   2.768
 9958TIP3   OH229795   3.539   8.189   4.413
 9958TIP3    H129796   3.485   8.199   4.335
 9958TIP3    H229797   3.574   8.100   4.406
 9959TIP3   OH229798   3.410   7.942   2.655
 9959TIP3    H129799   3.432   7.942   2.748
 9959TIP3    H229800   3.414   7.849   2.630
 9960TIP3   OH229801   4.028   8.194   3.996
 9960TIP3    H129802   4.100   8.237   3.950
 9960TIP3    H229803   3.951   8.247   3.976
 9961TIP3   OH229804   3.035   7.845   4.629
 9961TIP3    H129805   3.110   7.850   4.569
 9961TIP3    H229806   3.070   7.874   4.714
 9962TIP3   OH229807   3.092   7.681   3.041
 9962TIP3    H129808   3.062   7.647   3.126
 9962TIP3    H229809   3.130   7.605   2.997
 9963TIP3   OH229810   3.398   7.758   4.283
 9963TIP3    H129811   3.312   7.799   4.291
 9963TIP3    H229812   3.433   7.792   4.200
 9964TIP3   OH229813   3.219   7.496   2.877
 9964TIP3    H129814   3.189   7.495   2.786
 9964TIP3    H229815   3.314   7.503   2.870
 9965TIP3   OH229816   3.882   8.122   4.357
 9965TIP3    H129817   3.966   8.099   4.316
 9965TIP3    H229818   3.881   8.072   4.439
 9966TIP3   OH229819   4.002   7.803   2.557
 9966TIP3    H129820   3.992   7.758   2.473
 9966TIP3    H229821   3.968   7.891   2.542
 9967TIP3   OH229822   3.495   7.531   4.398
 9967TIP3    H129823   3.498   7.459   4.335
 9967TIP3    H229824   3.462   7.605   4.349
 9968TIP3   OH229825   3.502   7.336   4.193
 9968TIP3    H129826   3.529   7.374   4.109
 9968TIP3    H229827   3.412   7.309   4.179
 9969TIP3   OH229828   3.530   7.869   4.072
 9969TIP3    H129829   3.606   7.927   4.078
 9969TIP3    H229830   3.470   7.915   4.012
 9970TIP3   OH229831   4.100   7.817   4.443
 9970TIP3    H129832   4.139   7.730   4.453
 9970TIP3    H229833   4.174   7.875   4.424
 9971TIP3   OH229834   4.146   8.071   4.202
 9971TIP3    H129835   4.094   8.120   4.138
 9971TIP3    H229836   4.237   8.085   4.174
 9972TIP3   OH229837   3.380   7.619   4.639
 9972TIP3    H129838   3.311   7.556   4.661
 9972TIP3    H229839   3.409   7.593   4.552
 9973TIP3   OH229840   3.624   7.106   4.295
 9973TIP3    H129841   3.583   7.186   4.262
 9973TIP3    H229842   3.557   7.038   4.283
 9974TIP3   OH229843   3.751   7.572   4.500
 9974TIP3    H129844   3.740   7.560   4.594
 9974TIP3    H229845   3.665   7.550   4.463
 9975TIP3   OH229846   3.998   7.528   4.374
 9975TIP3    H129847   3.919   7.525   4.427
 9975TIP3    H229848   4.069   7.503   4.434
 9976TIP3   OH229849   4.235   7.498   4.521
 9976TIP3    H129850   4.248   7.403   4.527
 9976TIP3    H229851   4.230   7.527   4.613
 9977TIP3   OH229852   3.213   7.401   4.703
 9977TIP3    H129853   3.218   7.313   4.666
 9977TIP3    H229854   3.250   7.392   4.791
 9978TIP3   OH229855   3.691   7.084   4.560
 9978TIP3    H129856   3.758   7.016   4.555
 9978TIP3    H229857   3.661   7.095   4.470
 9979TIP3   OH229858   3.787   7.298   4.705
 9979TIP3    H129859   3.756   7.225   4.651
 9979TIP3    H229860   3.714   7.359   4.706
 9980TIP3   OH229861   2.487   7.904   2.978
 9980TIP3    H129862   2.580   7.923   2.989
 9980TIP3    H229863   2.483   7.809   2.965
 9981TIP3   OH229864   2.453   8.307   3.713
 9981TIP3    H129865   2.498   8.245   3.771
 9981TIP3    H229866   2.484   8.284   3.626
 9982TIP3   OH229867   7.306   0.311   3.483
 9982TIP3    H129868   7.262   0.338   3.564
 9982TIP3    H229869   7.250   0.344   3.413
 9983TIP3   OH229870   7.299   0.291   3.763
 9983TIP3    H129871   7.262   0.216   3.717
 9983TIP3    H229872   7.393   0.283   3.751
 9984TIP3   OH229873   7.310   0.075   4.308
 9984TIP3    H129874   7.236   0.081   4.369
 9984TIP3    H229875   7.347   0.163   4.307
 9985TIP3   OH229876   4.177   7.984   2.891
 9985TIP3    H129877   4.234   8.052   2.857
 9985TIP3    H229878   4.225   7.947   2.965
 9986TIP3   OH229879   4.315   7.855   3.091
 9986TIP3    H129880   4.252   7.814   3.150
 9986TIP3    H229881   4.382   7.891   3.149
 9987TIP3   OH229882   4.353   8.217   3.549
 9987TIP3    H129883   4.405   8.150   3.505
 9987TIP3    H229884   4.366   8.295   3.496
 9988TIP3   OH229885   7.140   0.105   3.639
 9988TIP3    H129886   7.080   0.122   3.712
 9988TIP3    H229887   7.096   0.037   3.587
 9989TIP3   OH229888   4.216   7.768   2.727
 9989TIP3    H129889   4.144   7.771   2.664
 9989TIP3    H229890   4.201   7.843   2.785
 9990TIP3   OH229891   4.066   7.418   2.673
 9990TIP3    H129892   4.024   7.450   2.594
 9990TIP3    H229893   4.061   7.322   2.665
 9991TIP3   OH229894   4.117   7.710   3.228
 9991TIP3    H129895   4.122   7.616   3.213
 9991TIP3    H229896   4.096   7.719   3.321
 9992TIP3   OH229897   2.727   7.762   4.007
 9992TIP3    H129898   2.721   7.732   3.916
 9992TIP3    H229899   2.821   7.764   4.025
 9993TIP3   OH229900   4.398   8.128   4.101
 9993TIP3    H129901   4.463   8.060   4.081
 9993TIP3    H229902   4.424   8.202   4.046
 9994TIP3   OH229903   4.571   7.916   4.084
 9994TIP3    H129904   4.496   7.873   4.125
 9994TIP3    H229905   4.646   7.859   4.104
 9995TIP3   OH229906   4.033   7.146   2.645
 9995TIP3    H129907   4.098   7.120   2.712
 9995TIP3    H229908   3.951   7.108   2.676
 9996TIP3   OH229909   4.101   7.439   3.111
 9996TIP3    H129910   4.147   7.355   3.124
 9996TIP3    H229911   4.142   7.476   3.033
 9997TIP3   OH229912   4.254   7.602   3.637
 9997TIP3    H129913   4.335   7.620   3.589
 9997TIP3    H229914   4.268   7.641   3.723
 9998TIP3   OH229915   4.327   7.747   3.866
 9998TIP3    H129916   4.252   7.775   3.920
 9998TIP3    H229917   4.361   7.828   3.830
 9999TIP3   OH229918   2.951   7.455   4.637
 9999TIP3    H129919   3.044   7.452   4.657
 9999TIP3    H229920   2.916   7.372   4.670
10000TIP3   OH229921   4.793   7.350   4.405
10000TIP3    H129922   4.857   7.293   4.363
10000TIP3    H229923   4.754   7.400   4.332
10001TIP3   OH229924   4.217   7.191   3.165
10001TIP3    H129925   4.261   7.176   3.249
10001TIP3    H229926   4.154   7.119   3.158
10002TIP3   OH229927   2.921   7.173   3.993
10002TIP3    H129928   2.974   7.093   4.000
10002TIP3    H229929   2.985   7.242   3.975
10003TIP3   OH229930   2.702   7.436   4.048
10003TIP3    H129931   2.754   7.426   3.968
10003TIP3    H229932   2.738   7.514   4.090
10004TIP3   OH229933   4.641   7.471   4.213
10004TIP3    H129934   4.567   7.511   4.258
10004TIP3    H229935   4.602   7.406   4.155
10005TIP3   OH229936   4.260   7.103   2.805
10005TIP3    H129937   4.309   7.042   2.750
10005TIP3    H229938   4.316   7.181   2.809
10006TIP3   OH229939   2.690   6.945   3.556
10006TIP3    H129940   2.604   6.934   3.597
10006TIP3    H229941   2.673   6.999   3.479
10007TIP3   OH229942   6.892   0.205   3.059
10007TIP3    H129943   6.944   0.199   2.979
10007TIP3    H229944   6.891   0.298   3.080
10008TIP3   OH229945   2.918   7.011   4.382
10008TIP3    H129946   2.865   6.997   4.461
10008TIP3    H229947   2.859   7.055   4.321
10009TIP3   OH229948   2.987   8.342   4.499
10009TIP3    H129949   2.908   8.371   4.455
10009TIP3    H229950   2.970   8.359   4.592
10010TIP3   OH229951   6.079   0.040   3.950
10010TIP3    H129952   6.031   0.121   3.965
10010TIP3    H229953   6.170   0.067   3.940
10011TIP3   OH229954   6.593   0.488   4.098
10011TIP3    H129955   6.627   0.402   4.076
10011TIP3    H229956   6.667   0.548   4.083
10012TIP3   OH229957   4.551   7.219   4.101
10012TIP3    H129958   4.463   7.211   4.064
10012TIP3    H229959   4.587   7.131   4.096
10013TIP3   OH229960   6.671   0.321   3.696
10013TIP3    H129961   6.612   0.263   3.744
10013TIP3    H229962   6.666   0.405   3.742
10014TIP3   OH229963   5.730   0.179   3.746
10014TIP3    H129964   5.768   0.109   3.799
10014TIP3    H229965   5.691   0.134   3.671
10015TIP3   OH229966   2.912   8.351   3.589
10015TIP3    H129967   2.912   8.272   3.643
10015TIP3    H229968   2.992   8.397   3.614
10016TIP3   OH229969   6.119   0.063   3.660
10016TIP3    H129970   6.147  -0.013   3.712
10016TIP3    H229971   6.184   0.070   3.591
10017TIP3   OH229972   3.758   7.142   3.734
10017TIP3    H129973   3.720   7.070   3.785
10017TIP3    H229974   3.827   7.100   3.682
10018TIP3   OH229975   4.261   7.065   3.628
10018TIP3    H129976   4.295   7.113   3.553
10018TIP3    H229977   4.166   7.081   3.626
10019TIP3   OH229978   4.373   7.139   3.389
10019TIP3    H129979   4.442   7.079   3.362
10019TIP3    H229980   4.410   7.226   3.375
10020TIP3   OH229981   2.993   6.843   3.736
10020TIP3    H129982   2.904   6.808   3.746
10020TIP3    H229983   3.048   6.766   3.729
10021TIP3   OH229984   2.791   6.743   3.378
10021TIP3    H129985   2.830   6.792   3.306
10021TIP3    H229986   2.765   6.810   3.442
10022TIP3   OH229987   3.475   6.885   3.630
10022TIP3    H129988   3.525   6.930   3.562
10022TIP3    H229989   3.517   6.912   3.712
10023TIP3   OH229990   3.975   7.026   3.603
10023TIP3    H129991   3.989   6.989   3.516
10023TIP3    H229992   3.980   6.951   3.663
10024TIP3   OH229993   4.031   6.982   3.173
10024TIP3    H129994   3.950   7.028   3.197
10024TIP3    H229995   4.022   6.895   3.213
10025TIP3   OH229996   2.549   8.178   3.162
10025TIP3    H129997   2.454   8.183   3.152
10025TIP3    H229998   2.577   8.268   3.173
10026TIP3   OH229999   2.926   6.878   3.159
10026TIP3    H130000   2.971   6.817   3.100
10026TIP3    H230001   2.996   6.934   3.193
10027TIP3   OH230002   3.411   7.080   3.246
10027TIP3    H130003   3.469   7.025   3.299
10027TIP3    H230004   3.427   7.169   3.277
10028TIP3   OH230005   1.826   8.332   4.505
10028TIP3    H130006   1.827   8.423   4.537
10028TIP3    H230007   1.884   8.332   4.429
10029TIP3   OH230008   7.013   0.177   2.797
10029TIP3    H130009   7.007   0.086   2.824
10029TIP3    H230010   7.067   0.175   2.718
10030TIP3   OH230011   3.223   7.132   4.615
10030TIP3    H130012   3.187   7.068   4.676
10030TIP3    H230013   3.316   7.138   4.638
10031TIP3   OH230014   3.473   7.139   4.731
10031TIP3    H130015   3.551   7.115   4.681
10031TIP3    H230016   3.465   7.070   4.797
10032TIP3   OH230017   2.527   8.236   2.891
10032TIP3    H130018   2.586   8.311   2.904
10032TIP3    H230019   2.548   8.177   2.964
10033TIP3   OH230020   4.296   7.226   4.525
10033TIP3    H130021   4.312   7.196   4.614
10033TIP3    H230022   4.381   7.220   4.482
10034TIP3   OH230023   7.181   0.301   4.011
10034TIP3    H130024   7.215   0.290   3.922
10034TIP3    H230025   7.157   0.393   4.017
10035TIP3   OH230026   5.488   8.147   2.771
10035TIP3    H130027   5.456   8.234   2.746
10035TIP3    H230028   5.418   8.088   2.744
10036TIP3   OH230029   5.494   8.125   3.192
10036TIP3    H130030   5.545   8.108   3.271
10036TIP3    H230031   5.450   8.042   3.174
10037TIP3   OH230032   4.782   8.009   3.550
10037TIP3    H130033   4.817   7.945   3.613
10037TIP3    H230034   4.851   8.075   3.542
10038TIP3   OH230035   8.720   0.040   2.864
10038TIP3    H130036   8.710  -0.029   2.930
10038TIP3    H230037   8.743   0.118   2.914
10039TIP3   OH230038   4.778   8.413   3.241
10039TIP3    H130039   4.754   8.321   3.242
10039TIP3    H230040   4.874   8.413   3.232
10040TIP3   OH230041   4.462   7.628   3.005
10040TIP3    H130042   4.423   7.712   3.031
10040TIP3    H230043   4.390   7.579   2.967
10041TIP3   OH230044   4.545   7.940   3.229
10041TIP3    H130045   4.594   7.862   3.252
10041TIP3    H230046   4.612   8.007   3.212
10042TIP3   OH230047   8.438   0.460   2.946
10042TIP3    H130048   8.445   0.432   2.855
10042TIP3    H230049   8.449   0.379   2.996
10043TIP3   OH230050   5.309   8.341   3.200
10043TIP3    H130051   5.358   8.262   3.174
10043TIP3    H230052   5.376   8.402   3.229
10044TIP3   OH230053   6.315   7.672   3.223
10044TIP3    H130054   6.334   7.755   3.267
10044TIP3    H230055   6.337   7.689   3.131
10045TIP3   OH230056   5.697   7.838   3.242
10045TIP3    H130057   5.739   7.754   3.264
10045TIP3    H230058   5.665   7.825   3.153
10046TIP3   OH230059   5.061   7.500   3.190
10046TIP3    H130060   5.038   7.573   3.133
10046TIP3    H230061   5.006   7.428   3.160
10047TIP3   OH230062   5.754   7.607   2.828
10047TIP3    H130063   5.820   7.601   2.897
10047TIP3    H230064   5.801   7.641   2.752
10048TIP3   OH230065   4.679   7.716   3.320
10048TIP3    H130066   4.761   7.695   3.365
10048TIP3    H230067   4.682   7.665   3.239
10049TIP3   OH230068   5.110   7.915   3.122
10049TIP3    H130069   5.204   7.898   3.129
10049TIP3    H230070   5.073   7.832   3.092
10050TIP3   OH230071   6.371   7.889   3.393
10050TIP3    H130072   6.296   7.943   3.372
10050TIP3    H230073   6.420   7.938   3.459
10051TIP3   OH230074   5.039   7.509   3.644
10051TIP3    H130075   4.986   7.539   3.570
10051TIP3    H230076   4.983   7.522   3.721
10052TIP3   OH230077   5.380   8.366   2.634
10052TIP3    H130078   5.343   8.337   2.551
10052TIP3    H230079   5.330   8.444   2.657
10053TIP3   OH230080   5.158   8.262   3.418
10053TIP3    H130081   5.098   8.329   3.451
10053TIP3    H230082   5.203   8.304   3.344
10054TIP3   OH230083   5.919   7.631   3.043
10054TIP3    H130084   5.880   7.606   3.127
10054TIP3    H230085   5.976   7.705   3.064
10055TIP3   OH230086   4.924   7.603   3.410
10055TIP3    H130087   4.974   7.682   3.432
10055TIP3    H230088   4.973   7.563   3.338
10056TIP3   OH230089   7.948   0.061   3.503
10056TIP3    H130090   7.935   0.154   3.484
10056TIP3    H230091   7.895   0.044   3.581
10057TIP3   OH230092   4.363   8.166   2.789
10057TIP3    H130093   4.343   8.224   2.715
10057TIP3    H230094   4.388   8.225   2.860
10058TIP3   OH230095   8.759   0.270   3.018
10058TIP3    H130096   8.672   0.268   3.058
10058TIP3    H230097   8.761   0.353   2.971
10059TIP3   OH230098   6.095   7.572   3.379
10059TIP3    H130099   6.012   7.582   3.332
10059TIP3    H230100   6.162   7.597   3.316
10060TIP3   OH230101   5.380   7.198   3.379
10060TIP3    H130102   5.372   7.106   3.403
10060TIP3    H230103   5.303   7.240   3.417
10061TIP3   OH230104   8.478   0.353   2.684
10061TIP3    H130105   8.522   0.269   2.670
10061TIP3    H230106   8.543   0.419   2.656
10062TIP3   OH230107   8.591   0.109   2.630
10062TIP3    H130108   8.519   0.046   2.629
10062TIP3    H230109   8.647   0.081   2.701
10063TIP3   OH230110   0.084   0.187   3.352
10063TIP3    H130111   0.070   0.111   3.296
10063TIP3    H230112   0.074   0.262   3.294
10064TIP3   OH230113   5.316   7.983   2.622
10064TIP3    H130114   5.235   8.029   2.599
10064TIP3    H230115   5.366   7.978   2.541
10065TIP3   OH230116   5.290   7.795   2.304
10065TIP3    H130117   5.354   7.843   2.356
10065TIP3    H230118   5.340   7.727   2.259
10066TIP3   OH230119   6.208   8.245   3.227
10066TIP3    H130120   6.123   8.288   3.224
10066TIP3    H230121   6.244   8.256   3.139
10067TIP3   OH230122   5.675   8.075   2.584
10067TIP3    H130123   5.622   8.104   2.658
10067TIP3    H230124   5.759   8.050   2.623
10068TIP3   OH230125   5.916   8.113   3.510
10068TIP3    H130126   5.905   8.196   3.556
10068TIP3    H230127   5.831   8.095   3.470
10069TIP3   OH230128   4.897   8.041   2.992
10069TIP3    H130129   4.861   7.980   2.928
10069TIP3    H230130   4.973   7.995   3.029
10070TIP3   OH230131   8.009   0.029   3.142
10070TIP3    H130132   7.985   0.017   3.050
10070TIP3    H230133   8.100  -0.002   3.147
10071TIP3   OH230134   5.011   8.043   3.346
10071TIP3    H130135   5.049   8.009   3.265
10071TIP3    H230136   5.062   8.122   3.365
10072TIP3   OH230137   8.517   0.277   3.145
10072TIP3    H130138   8.506   0.354   3.201
10072TIP3    H230139   8.504   0.203   3.204
10073TIP3   OH230140   5.506   7.934   2.419
10073TIP3    H130141   5.566   7.991   2.469
10073TIP3    H230142   5.537   7.941   2.329
10074TIP3   OH230143   4.932   8.138   3.785
10074TIP3    H130144   4.923   8.231   3.764
10074TIP3    H230145   4.843   8.111   3.809
10075TIP3   OH230146   8.229   0.225   2.682
10075TIP3    H130147   8.309   0.276   2.696
10075TIP3    H230148   8.158   0.290   2.685
10076TIP3   OH230149   6.016   7.158   2.476
10076TIP3    H130150   5.939   7.179   2.530
10076TIP3    H230151   6.026   7.233   2.418
10077TIP3   OH230152   4.780   7.885   2.787
10077TIP3    H130153   4.702   7.931   2.756
10077TIP3    H230154   4.751   7.795   2.801
10078TIP3   OH230155   8.789   0.121   2.044
10078TIP3    H130156   8.786   0.217   2.051
10078TIP3    H230157   8.883   0.101   2.033
10079TIP3   OH230158   4.574   8.278   3.716
10079TIP3    H130159   4.498   8.259   3.661
10079TIP3    H230160   4.605   8.192   3.745
10080TIP3   OH230161   7.371   0.055   3.415
10080TIP3    H130162   7.334   0.069   3.328
10080TIP3    H230163   7.345   0.132   3.465
10081TIP3   OH230164   0.341   0.519   3.434
10081TIP3    H130165   0.336   0.426   3.454
10081TIP3    H230166   0.260   0.555   3.470
10082TIP3   OH230167   8.301   0.321   3.546
10082TIP3    H130168   8.320   0.411   3.572
10082TIP3    H230169   8.223   0.298   3.596
10083TIP3   OH230170   7.604   0.138   2.859
10083TIP3    H130171   7.618   0.173   2.947
10083TIP3    H230172   7.518   0.173   2.833
10084TIP3   OH230173   8.511   0.385   2.145
10084TIP3    H130174   8.474   0.312   2.095
10084TIP3    H230175   8.461   0.386   2.226
10085TIP3   OH230176   8.345   0.329   2.393
10085TIP3    H130177   8.332   0.394   2.461
10085TIP3    H230178   8.406   0.265   2.431
10086TIP3   OH230179   6.112   8.034   3.692
10086TIP3    H130180   6.049   8.058   3.624
10086TIP3    H230181   6.131   7.942   3.675
10087TIP3   OH230182   7.791  -0.000   3.724
10087TIP3    H130183   7.785   0.063   3.795
10087TIP3    H230184   7.701  -0.031   3.711
10088TIP3   OH230185   5.144   7.292   3.502
10088TIP3    H130186   5.060   7.257   3.471
10088TIP3    H230187   5.120   7.372   3.549
10089TIP3   OH230188   5.676   7.405   3.702
10089TIP3    H130189   5.745   7.380   3.763
10089TIP3    H230190   5.595   7.390   3.750
10090TIP3   OH230191   5.596   7.938   2.163
10090TIP3    H130192   5.546   7.929   2.082
10090TIP3    H230193   5.677   7.982   2.137
10091TIP3   OH230194   5.295   7.333   2.469
10091TIP3    H130195   5.258   7.341   2.557
10091TIP3    H230196   5.258   7.251   2.435
10092TIP3   OH230197   5.060   7.822   3.499
10092TIP3    H130198   5.016   7.830   3.584
10092TIP3    H230199   5.035   7.901   3.451
10093TIP3   OH230200   4.962   7.699   3.030
10093TIP3    H130201   4.873   7.676   3.056
10093TIP3    H230202   4.970   7.667   2.941
10094TIP3   OH230203   5.443   7.780   2.761
10094TIP3    H130204   5.395   7.852   2.720
10094TIP3    H230205   5.500   7.748   2.692
10095TIP3   OH230206   5.611   7.791   2.985
10095TIP3    H130207   5.543   7.814   2.921
10095TIP3    H230208   5.658   7.717   2.944
10096TIP3   OH230209   4.910   7.834   3.729
10096TIP3    H130210   4.911   7.896   3.802
10096TIP3    H230211   4.892   7.749   3.771
10097TIP3   OH230212   4.961   7.316   2.448
10097TIP3    H130213   4.950   7.318   2.543
10097TIP3    H230214   4.884   7.362   2.415
10098TIP3   OH230215   4.501   7.362   3.309
10098TIP3    H130216   4.577   7.393   3.358
10098TIP3    H230217   4.536   7.336   3.224
10099TIP3   OH230218   4.413   7.336   2.819
10099TIP3    H130219   4.461   7.372   2.744
10099TIP3    H230220   4.348   7.402   2.840
10100TIP3   OH230221   5.654   8.038   3.418
10100TIP3    H130222   5.678   7.972   3.353
10100TIP3    H230223   5.608   7.989   3.486
10101TIP3   OH230224   5.328   7.494   3.083
10101TIP3    H130225   5.249   7.491   3.136
10101TIP3    H230226   5.400   7.483   3.146
10102TIP3   OH230227   4.721   7.577   3.088
10102TIP3    H130228   4.633   7.581   3.051
10102TIP3    H230229   4.749   7.486   3.074
10103TIP3   OH230230   4.977   7.581   2.784
10103TIP3    H130231   5.072   7.591   2.773
10103TIP3    H230232   4.941   7.600   2.697
10104TIP3   OH230233   5.796   7.579   3.286
10104TIP3    H130234   5.787   7.591   3.381
10104TIP3    H230235   5.726   7.518   3.263
10105TIP3   OH230236   4.864   7.611   2.537
10105TIP3    H130237   4.801   7.560   2.485
10105TIP3    H230238   4.920   7.653   2.472
10106TIP3   OH230239   5.379   7.859   3.183
10106TIP3    H130240   5.445   7.808   3.136
10106TIP3    H230241   5.376   7.819   3.270
10107TIP3   OH230242   4.866   7.328   3.076
10107TIP3    H130243   4.837   7.253   3.129
10107TIP3    H230244   4.883   7.291   2.989
10108TIP3   OH230245   5.330   7.795   3.463
10108TIP3    H130246   5.234   7.791   3.466
10108TIP3    H230247   5.352   7.884   3.493
10109TIP3   OH230248   5.083   8.127   2.556
10109TIP3    H130249   5.012   8.066   2.534
10109TIP3    H230250   5.062   8.158   2.644
10110TIP3   OH230251   5.967   8.371   3.177
10110TIP3    H130252   6.005   8.420   3.104
10110TIP3    H230253   5.889   8.329   3.141
10111TIP3   OH230254   5.547   7.436   2.477
10111TIP3    H130255   5.454   7.414   2.471
10111TIP3    H230256   5.549   7.531   2.487
10112TIP3   OH230257   8.415   0.066   3.578
10112TIP3    H130258   8.389   0.043   3.667
10112TIP3    H230259   8.375   0.152   3.563
10113TIP3   OH230260   5.604   7.702   2.544
10113TIP3    H130261   5.700   7.705   2.551
10113TIP3    H230262   5.582   7.778   2.490
10114TIP3   OH230263   4.765   8.122   3.223
10114TIP3    H130264   4.805   8.106   3.137
10114TIP3    H230265   4.831   8.092   3.286
10115TIP3   OH230266   5.250   8.277   2.395
10115TIP3    H130267   5.205   8.361   2.387
10115TIP3    H230268   5.190   8.223   2.448
10116TIP3   OH230269   4.671   8.053   3.854
10116TIP3    H130270   4.681   8.037   3.948
10116TIP3    H230271   4.592   8.006   3.829
10117TIP3   OH230272   5.422   8.159   3.868
10117TIP3    H130273   5.351   8.103   3.841
10117TIP3    H230274   5.395   8.247   3.841
10118TIP3   OH230275   8.590   0.338   3.478
10118TIP3    H130276   8.496   0.323   3.485
10118TIP3    H230277   8.614   0.379   3.561
10119TIP3   OH230278   6.020   7.787   2.365
10119TIP3    H130279   5.963   7.741   2.303
10119TIP3    H230280   6.022   7.878   2.334
10120TIP3   OH230281   0.333   0.238   3.454
10120TIP3    H130282   0.238   0.233   3.439
10120TIP3    H230283   0.371   0.218   3.369
10121TIP3   OH230284   8.746   0.165   2.327
10121TIP3    H130285   8.711   0.099   2.386
10121TIP3    H230286   8.751   0.122   2.241
10122TIP3   OH230287   5.742   8.234   3.070
10122TIP3    H130288   5.652   8.213   3.095
10122TIP3    H230289   5.776   8.153   3.032
10123TIP3   OH230290   7.877   0.062   2.887
10123TIP3    H130291   7.906   0.144   2.846
10123TIP3    H230292   7.781   0.066   2.882
10124TIP3   OH230293   4.455   7.758   2.590
10124TIP3    H130294   4.500   7.839   2.614
10124TIP3    H230295   4.373   7.759   2.640
10125TIP3   OH230296   4.995   8.211   2.795
10125TIP3    H130297   4.973   8.299   2.826
10125TIP3    H230298   4.963   8.153   2.865
10126TIP3   OH230299   8.211   0.419   3.290
10126TIP3    H130300   8.156   0.485   3.332
10126TIP3    H230301   8.241   0.363   3.362
10127TIP3   OH230302   7.769   0.274   2.685
10127TIP3    H130303   7.710   0.205   2.714
10127TIP3    H230304   7.744   0.351   2.736
10128TIP3   OH230305   8.505   0.062   3.318
10128TIP3    H130306   8.480   0.058   3.410
10128TIP3    H230307   8.592   0.023   3.314
10129TIP3   OH230308   5.509   8.339   2.201
10129TIP3    H130309   5.573   8.318   2.268
10129TIP3    H230310   5.424   8.319   2.241
10130TIP3   OH230311   8.742   0.528   3.344
10130TIP3    H130312   8.699   0.457   3.391
10130TIP3    H230313   8.673   0.568   3.291
10131TIP3   OH230314   8.783   0.396   2.032
10131TIP3    H130315   8.803   0.406   1.939
10131TIP3    H230316   8.690   0.417   2.039
10132TIP3   OH230317   4.862   7.583   3.848
10132TIP3    H130318   4.767   7.593   3.853
10132TIP3    H230319   4.885   7.532   3.926
10133TIP3   OH230320   5.701   8.269   2.384
10133TIP3    H130321   5.680   8.210   2.456
10133TIP3    H230322   5.797   8.269   2.379
10134TIP3   OH230323   7.567   0.261   3.697
10134TIP3    H130324   7.596   0.242   3.608
10134TIP3    H230325   7.636   0.227   3.753
10135TIP3   OH230326   4.851   8.294   2.203
10135TIP3    H130327   4.875   8.207   2.172
10135TIP3    H230328   4.848   8.286   2.298
10136TIP3   OH230329   4.833   8.314   2.478
10136TIP3    H130330   4.901   8.284   2.537
10136TIP3    H230331   4.850   8.408   2.467
10137TIP3   OH230332   4.555   8.002   2.676
10137TIP3    H130333   4.487   8.046   2.727
10137TIP3    H230334   4.575   8.064   2.605
10138TIP3   OH230335   5.764   7.617   3.552
10138TIP3    H130336   5.805   7.669   3.621
10138TIP3    H230337   5.725   7.543   3.599
10139TIP3   OH230338   5.606   7.387   2.744
10139TIP3    H130339   5.585   7.405   2.652
10139TIP3    H230340   5.649   7.468   2.774
10140TIP3   OH230341   8.097   0.126   2.371
10140TIP3    H130342   8.009   0.160   2.386
10140TIP3    H230343   8.154   0.204   2.378
10141TIP3   OH230344   5.258   7.587   2.831
10141TIP3    H130345   5.319   7.656   2.805
10141TIP3    H230346   5.280   7.567   2.921
10142TIP3   OH230347   5.419   7.284   2.919
10142TIP3    H130348   5.395   7.361   2.970
10142TIP3    H230349   5.488   7.314   2.860
10143TIP3   OH230350   7.830   0.195   2.428
10143TIP3    H130351   7.760   0.223   2.368
10143TIP3    H230352   7.808   0.236   2.511
10144TIP3   OH230353   4.933   7.308   2.727
10144TIP3    H130354   4.922   7.399   2.755
10144TIP3    H230355   5.027   7.292   2.732
10145TIP3   OH230356   6.157   7.783   3.569
10145TIP3    H130357   6.117   7.707   3.528
10145TIP3    H230358   6.228   7.808   3.510
10146TIP3   OH230359   5.833   7.979   2.983
10146TIP3    H130360   5.758   7.920   2.993
10146TIP3    H230361   5.901   7.939   3.037
10147TIP3   OH230362   4.582   8.186   2.469
10147TIP3    H130363   4.652   8.250   2.481
10147TIP3    H230364   4.615   8.126   2.402
10148TIP3   OH230365   4.490   7.484   2.604
10148TIP3    H130366   4.493   7.580   2.605
10148TIP3    H230367   4.453   7.462   2.518
10149TIP3   OH230368   8.779   0.523   2.923
10149TIP3    H130369   8.724   0.586   2.876
10149TIP3    H230370   8.867   0.560   2.916
10150TIP3   OH230371   4.884   7.202   3.461
10150TIP3    H130372   4.854   7.169   3.376
10150TIP3    H230373   4.875   7.127   3.520
10151TIP3   OH230374   7.255   0.026   2.939
10151TIP3    H130375   7.171  -0.019   2.940
10151TIP3    H230376   7.279   0.030   2.846
10152TIP3   OH230377   7.655   0.481   3.891
10152TIP3    H130378   7.618   0.500   3.978
10152TIP3    H230379   7.596   0.414   3.855
10153TIP3   OH230380   7.978   0.082   2.066
10153TIP3    H130381   7.917   0.025   2.114
10153TIP3    H230382   8.063   0.066   2.108
10154TIP3   OH230383   8.675   0.453   3.710
10154TIP3    H130384   8.683   0.382   3.774
10154TIP3    H230385   8.754   0.505   3.722
10155TIP3   OH230386   8.427   0.158   2.011
10155TIP3    H130387   8.464   0.087   2.064
10155TIP3    H230388   8.474   0.153   1.928
10156TIP3   OH230389   4.685   8.345   4.139
10156TIP3    H130390   4.732   8.264   4.118
10156TIP3    H230391   4.612   8.347   4.077
10157TIP3   OH230392   4.708   7.999   2.315
10157TIP3    H130393   4.759   7.975   2.391
10157TIP3    H230394   4.772   8.010   2.244
10158TIP3   OH230395   8.311   0.033   3.837
10158TIP3    H130396   8.230   0.084   3.842
10158TIP3    H230397   8.356   0.050   3.920
10159TIP3   OH230398   5.211   8.226   2.124
10159TIP3    H130399   5.220   8.233   2.219
10159TIP3    H230400   5.213   8.131   2.107
10160TIP3   OH230401   8.763   0.117   3.500
10160TIP3    H130402   8.839   0.149   3.452
10160TIP3    H230403   8.698   0.186   3.490
10161TIP3   OH230404   4.846   8.118   4.103
10161TIP3    H130405   4.928   8.123   4.054
10161TIP3    H230406   4.869   8.143   4.192
10162TIP3   OH230407   4.881   7.941   2.524
10162TIP3    H130408   4.857   7.909   2.611
10162TIP3    H230409   4.926   7.867   2.484
10163TIP3   OH230410   5.194   8.030   3.760
10163TIP3    H130411   5.107   8.069   3.767
10163TIP3    H230412   5.225   8.055   3.673
10164TIP3   OH230413   5.018   7.758   2.364
10164TIP3    H130414   4.986   7.760   2.274
10164TIP3    H230415   5.113   7.766   2.356
10165TIP3   OH230416   5.712   8.392   3.890
10165TIP3    H130417   5.771   8.379   3.815
10165TIP3    H230418   5.675   8.305   3.906
10166TIP3   OH230419   5.824   8.061   2.038
10166TIP3    H130420   5.799   8.007   1.964
10166TIP3    H230421   5.779   8.145   2.024
10167TIP3   OH230422   5.321   7.814   3.874
10167TIP3    H130423   5.316   7.736   3.820
10167TIP3    H230424   5.272   7.881   3.825
10168TIP3   OH230425   5.297   7.600   3.686
10168TIP3    H130426   5.322   7.642   3.604
10168TIP3    H230427   5.207   7.572   3.672
10169TIP3   OH230428   5.343   8.094   3.530
10169TIP3    H130429   5.420   8.150   3.533
10169TIP3    H230430   5.275   8.149   3.489
10170TIP3   OH230431   5.888   8.004   3.893
10170TIP3    H130432   5.949   7.965   3.956
10170TIP3    H230433   5.942   8.029   3.819
10171TIP3   OH230434   5.921   8.349   3.679
10171TIP3    H130435   5.869   8.406   3.622
10171TIP3    H230436   6.011   8.359   3.648
10172TIP3   OH230437   5.179   7.873   4.118
10172TIP3    H130438   5.110   7.809   4.136
10172TIP3    H230439   5.209   7.853   4.029
10173TIP3   OH230440   5.413   7.362   3.788
10173TIP3    H130441   5.372   7.442   3.755
10173TIP3    H230442   5.347   7.294   3.774
10174TIP3   OH230443   5.565   7.894   4.005
10174TIP3    H130444   5.536   7.854   4.086
10174TIP3    H230445   5.493   7.878   3.943
10175TIP3   OH230446   6.065   7.749   3.977
10175TIP3    H130447   6.058   7.654   3.990
10175TIP3    H230448   6.025   7.787   4.055
10176TIP3   OH230449   5.012   7.655   4.183
10176TIP3    H130450   5.016   7.565   4.151
10176TIP3    H230451   5.048   7.650   4.272
10177TIP3   OH230452   5.490   7.344   4.051
10177TIP3    H130453   5.557   7.276   4.045
10177TIP3    H230454   5.456   7.353   3.963
10178TIP3   OH230455   5.590   7.564   4.187
10178TIP3    H130456   5.559   7.489   4.137
10178TIP3    H230457   5.517   7.626   4.185
10179TIP3   OH230458   4.307   8.170   2.456
10179TIP3    H130459   4.401   8.183   2.470
10179TIP3    H230460   4.299   8.078   2.428
10180TIP3   OH230461   7.270   0.162   3.187
10180TIP3    H130462   7.254   0.106   3.111
10180TIP3    H230463   7.337   0.224   3.158
10181TIP3   OH230464   0.143   0.605   2.912
10181TIP3    H130465   0.178   0.619   3.000
10181TIP3    H230466   0.213   0.635   2.853
10182TIP3   OH230467   0.258   0.567   3.165
10182TIP3    H130468   0.185   0.506   3.172
10182TIP3    H230469   0.291   0.575   3.255
10183TIP3   OH230470   0.214   0.338   3.764
10183TIP3    H130471   0.147   0.347   3.832
10183TIP3    H230472   0.266   0.418   3.770
10184TIP3   OH230473   5.976   8.254   2.390
10184TIP3    H130474   6.034   8.322   2.359
10184TIP3    H230475   6.022   8.213   2.463
10185TIP3   OH230476   6.112   8.108   2.582
10185TIP3    H130477   6.045   8.073   2.640
10185TIP3    H230478   6.177   8.147   2.640
10186TIP3   OH230479   0.221   0.113   3.021
10186TIP3    H130480   0.270   0.045   2.975
10186TIP3    H230481   0.221   0.187   2.960
10187TIP3   OH230482   8.938   0.403   3.190
10187TIP3    H130483   8.870   0.454   3.235
10187TIP3    H230484   8.891   0.359   3.120
10188TIP3   OH230485   6.005   8.029   2.239
10188TIP3    H130486   5.937   8.034   2.172
10188TIP3    H230487   5.992   8.107   2.293
10189TIP3   OH230488   5.864   7.678   2.173
10189TIP3    H130489   5.811   7.717   2.103
10189TIP3    H230490   5.856   7.584   2.160
10190TIP3   OH230491   5.903   7.974   2.715
10190TIP3    H130492   5.908   7.880   2.699
10190TIP3    H230493   5.883   7.983   2.808
10191TIP3   OH230494   4.519   8.004   3.493
10191TIP3    H130495   4.512   7.982   3.400
10191TIP3    H230496   4.613   8.012   3.509
10192TIP3   OH230497   6.179   8.382   3.582
10192TIP3    H130498   6.239   8.309   3.562
10192TIP3    H230499   6.208   8.453   3.524
10193TIP3   OH230500   6.340   8.160   3.573
10193TIP3    H130501   6.271   8.115   3.621
10193TIP3    H230502   6.420   8.113   3.597
10194TIP3   OH230503   5.828   7.408   2.138
10194TIP3    H130504   5.894   7.379   2.201
10194TIP3    H230505   5.747   7.368   2.168
10195TIP3   OH230506   5.896   7.696   2.602
10195TIP3    H130507   5.942   7.613   2.615
10195TIP3    H230508   5.938   7.735   2.525
10196TIP3   OH230509   6.051   7.863   3.122
10196TIP3    H130510   6.132   7.883   3.074
10196TIP3    H230511   6.065   7.903   3.208
10197TIP3   OH230512   6.126   8.014   3.348
10197TIP3    H130513   6.052   8.041   3.402
10197TIP3    H230514   6.156   8.095   3.307
10198TIP3   OH230515   4.747   7.711   4.127
10198TIP3    H130516   4.841   7.707   4.144
10198TIP3    H230517   4.713   7.630   4.166
10199TIP3   OH230518   6.581   7.610   3.882
10199TIP3    H130519   6.642   7.541   3.856
10199TIP3    H230520   6.558   7.654   3.800
10200TIP3   OH230521   6.014   7.447   2.653
10200TIP3    H130522   6.058   7.431   2.736
10200TIP3    H230523   5.950   7.375   2.645
10201TIP3   OH230524   4.716   7.424   3.474
10201TIP3    H130525   4.769   7.344   3.482
10201TIP3    H230526   4.780   7.493   3.455
10202TIP3   OH230527   4.496   7.693   3.536
10202TIP3    H130528   4.548   7.679   3.457
10202TIP3    H230529   4.513   7.784   3.560
10203TIP3   OH230530   6.436   7.729   3.677
10203TIP3    H130531   6.374   7.766   3.740
10203TIP3    H230532   6.389   7.655   3.638
10204TIP3   OH230533   6.056   7.356   2.291
10204TIP3    H130534   6.107   7.296   2.237
10204TIP3    H230535   6.109   7.436   2.294
10205TIP3   OH230536   4.489   7.216   3.051
10205TIP3    H130537   4.403   7.196   3.088
10205TIP3    H230538   4.470   7.264   2.971
10206TIP3   OH230539   8.684   0.512   2.594
10206TIP3    H130540   8.696   0.493   2.501
10206TIP3    H230541   8.773   0.522   2.628
10207TIP3   OH230542   4.710   7.257   3.867
10207TIP3    H130543   4.659   7.252   3.948
10207TIP3    H230544   4.654   7.306   3.807
10208TIP3   OH230545   7.731   0.184   3.918
10208TIP3    H130546   7.665   0.213   3.980
10208TIP3    H230547   7.814   0.198   3.964
10209TIP3   OH230548   7.912   0.332   3.457
10209TIP3    H130549   7.826   0.374   3.466
10209TIP3    H230550   7.975   0.404   3.469
10210TIP3   OH230551   8.373   0.573   3.623
10210TIP3    H130552   8.410   0.581   3.710
10210TIP3    H230553   8.426   0.630   3.568
10211TIP3   OH230554   6.341   7.467   3.593
10211TIP3    H130555   6.252   7.445   3.563
10211TIP3    H230556   6.389   7.384   3.587
10212TIP3   OH230557   8.480   0.551   3.211
10212TIP3    H130558   8.388   0.540   3.234
10212TIP3    H230559   8.482   0.550   3.115
10213TIP3   OH230560   7.502   0.377   3.230
10213TIP3    H130561   7.524   0.333   3.313
10213TIP3    H230562   7.570   0.348   3.169
10214TIP3   OH230563   7.711   0.253   3.092
10214TIP3    H130564   7.706   0.172   3.142
10214TIP3    H230565   7.802   0.282   3.103
10215TIP3   OH230566   7.980   0.304   3.147
10215TIP3    H130567   7.993   0.210   3.156
10215TIP3    H230568   8.063   0.343   3.174
10216TIP3   OH230569   5.552   7.402   3.228
10216TIP3    H130570   5.513   7.330   3.277
10216TIP3    H230571   5.621   7.361   3.175
10217TIP3   OH230572   6.055   7.322   3.115
10217TIP3    H130573   6.091   7.370   3.040
10217TIP3    H230574   5.961   7.340   3.112
10218TIP3   OH230575   6.170   7.391   2.875
10218TIP3    H130576   6.240   7.331   2.848
10218TIP3    H230577   6.208   7.478   2.863
10219TIP3   OH230578   4.794   7.102   3.220
10219TIP3    H130579   4.705   7.069   3.230
10219TIP3    H230580   4.847   7.023   3.210
10220TIP3   OH230581   4.628   7.023   2.888
10220TIP3    H130582   4.645   7.069   2.806
10220TIP3    H230583   4.588   7.089   2.945
10221TIP3   OH230584   5.276   7.139   3.117
10221TIP3    H130585   5.323   7.187   3.049
10221TIP3    H230586   5.316   7.168   3.199
10222TIP3   OH230587   5.768   7.291   3.094
10222TIP3    H130588   5.775   7.258   3.005
10222TIP3    H230589   5.775   7.213   3.149
10223TIP3   OH230590   5.827   7.238   2.660
10223TIP3    H130591   5.747   7.284   2.684
10223TIP3    H230592   5.816   7.150   2.698
10224TIP3   OH230593   7.312   0.045   2.674
10224TIP3    H130594   7.244   0.048   2.607
10224TIP3    H230595   7.362   0.127   2.661
10225TIP3   OH230596   4.718   7.147   2.640
10225TIP3    H130597   4.759   7.083   2.582
10225TIP3    H230598   4.791   7.198   2.674
10226TIP3   OH230599   5.208   7.336   2.733
10226TIP3    H130600   5.266   7.282   2.787
10226TIP3    H230601   5.225   7.426   2.762
10227TIP3   OH230602   6.634   0.226   3.965
10227TIP3    H130603   6.704   0.289   3.953
10227TIP3    H230604   6.674   0.141   3.949
10228TIP3   OH230605   8.745   0.438   2.338
10228TIP3    H130606   8.758   0.344   2.345
10228TIP3    H230607   8.708   0.451   2.251
10229TIP3   OH230608   5.023   7.383   4.105
10229TIP3    H130609   4.987   7.316   4.164
10229TIP3    H230610   5.115   7.390   4.131
10230TIP3   OH230611   5.271   7.390   4.228
10230TIP3    H130612   5.350   7.368   4.178
10230TIP3    H230613   5.264   7.321   4.294
10231TIP3   OH230614   7.331   0.177   2.308
10231TIP3    H130615   7.357   0.269   2.317
10231TIP3    H230616   7.411   0.132   2.281
10232TIP3   OH230617   6.088   7.473   4.010
10232TIP3    H130618   6.104   7.446   4.100
10232TIP3    H230619   6.175   7.471   3.969
10233TIP3   OH230620   0.082   0.609   3.494
10233TIP3    H130621   0.004   0.577   3.447
10233TIP3    H230622   0.082   0.703   3.477
10234TIP3   OH230623   7.177   8.370   2.688
10234TIP3    H130624   7.246   8.356   2.753
10234TIP3    H230625   7.154   8.282   2.658
10235TIP3   OH230626   6.582   8.261   3.036
10235TIP3    H130627   6.620   8.205   3.103
10235TIP3    H230628   6.656   8.286   2.981
10236TIP3   OH230629   0.604   0.266   2.743
10236TIP3    H130630   0.589   0.172   2.740
10236TIP3    H230631   0.698   0.276   2.731
10237TIP3   OH230632   6.257   7.884   2.495
10237TIP3    H130633   6.219   7.968   2.520
10237TIP3    H230634   6.185   7.836   2.455
10238TIP3   OH230635   6.339   8.195   2.721
10238TIP3    H130636   6.389   8.117   2.745
10238TIP3    H230637   6.405   8.261   2.699
10239TIP3   OH230638   1.120   0.223   2.693
10239TIP3    H130639   1.157   0.136   2.678
10239TIP3    H230640   1.196   0.281   2.700
10240TIP3   OH230641   7.481   8.104   2.713
10240TIP3    H130642   7.509   8.017   2.742
10240TIP3    H230643   7.445   8.090   2.626
10241TIP3   OH230644   6.849   7.753   2.671
10241TIP3    H130645   6.825   7.829   2.619
10241TIP3    H230646   6.791   7.683   2.640
10242TIP3   OH230647   7.554   7.858   2.323
10242TIP3    H130648   7.609   7.847   2.401
10242TIP3    H230649   7.616   7.871   2.251
10243TIP3   OH230650   6.478   7.973   2.810
10243TIP3    H130651   6.561   7.954   2.853
10243TIP3    H230652   6.479   7.920   2.730
10244TIP3   OH230653   6.890   8.169   2.619
10244TIP3    H130654   6.981   8.142   2.629
10244TIP3    H230655   6.845   8.091   2.587
10245TIP3   OH230656   6.831   7.763   3.132
10245TIP3    H130657   6.781   7.800   3.059
10245TIP3    H230658   6.776   7.779   3.209
10246TIP3   OH230659   0.988   0.133   2.917
10246TIP3    H130660   0.932   0.200   2.956
10246TIP3    H230661   1.029   0.177   2.842
10247TIP3   OH230662   7.709   7.847   2.551
10247TIP3    H130663   7.649   7.832   2.624
10247TIP3    H230664   7.772   7.911   2.584
10248TIP3   OH230665   6.725   7.865   2.897
10248TIP3    H130666   6.780   7.940   2.919
10248TIP3    H230667   6.772   7.823   2.825
10249TIP3   OH230668   0.832   0.337   3.011
10249TIP3    H130669   0.824   0.427   2.980
10249TIP3    H230670   0.754   0.323   3.065
10250TIP3   OH230671   0.223   0.036   2.277
10250TIP3    H130672   0.189   0.059   2.191
10250TIP3    H230673   0.251   0.120   2.314
10251TIP3   OH230674   7.811   7.793   2.855
10251TIP3    H130675   7.719   7.809   2.834
10251TIP3    H230676   7.836   7.866   2.911
10252TIP3   OH230677   7.170   7.455   2.865
10252TIP3    H130678   7.167   7.365   2.897
10252TIP3    H230679   7.093   7.497   2.903
10253TIP3   OH230680   7.131   8.207   2.016
10253TIP3    H130681   7.052   8.253   2.046
10253TIP3    H230682   7.180   8.273   1.968
10254TIP3   OH230683   7.066   7.992   1.839
10254TIP3    H130684   7.091   8.064   1.896
10254TIP3    H230685   7.147   7.943   1.825
10255TIP3   OH230686   6.696   8.311   2.470
10255TIP3    H130687   6.654   8.247   2.412
10255TIP3    H230688   6.769   8.263   2.510
10256TIP3   OH230689   0.857   0.314   2.642
10256TIP3    H130690   0.843   0.315   2.548
10256TIP3    H230691   0.948   0.286   2.653
10257TIP3   OH230692   6.792   8.295   2.846
10257TIP3    H130693   6.832   8.262   2.766
10257TIP3    H230694   6.841   8.374   2.867
10258TIP3   OH230695   1.034   0.413   3.187
10258TIP3    H130696   0.983   0.484   3.225
10258TIP3    H230697   0.977   0.374   3.121
10259TIP3   OH230698   0.792  -0.010   3.312
10259TIP3    H130699   0.796   0.084   3.330
10259TIP3    H230700   0.698  -0.028   3.305
10260TIP3   OH230701   0.831   0.579   3.267
10260TIP3    H130702   0.791   0.593   3.182
10260TIP3    H230703   0.756   0.572   3.328
10261TIP3   OH230704   7.821   7.425   1.952
10261TIP3    H130705   7.735   7.409   1.989
10261TIP3    H230706   7.838   7.517   1.969
10262TIP3   OH230707   6.558   8.142   2.288
10262TIP3    H130708   6.484   8.187   2.250
10262TIP3    H230709   6.526   8.054   2.307
10263TIP3   OH230710   0.423   0.158   3.211
10263TIP3    H130711   0.354   0.140   3.147
10263TIP3    H230712   0.459   0.072   3.231
10264TIP3   OH230713   0.257   0.337   2.862
10264TIP3    H130714   0.349   0.359   2.847
10264TIP3    H230715   0.217   0.420   2.888
10265TIP3   OH230716   0.501   0.490   2.367
10265TIP3    H130717   0.510   0.514   2.459
10265TIP3    H230718   0.425   0.432   2.365
10266TIP3   OH230719   0.613   0.353   3.181
10266TIP3    H130720   0.666   0.343   3.259
10266TIP3    H230721   0.545   0.285   3.189
10267TIP3   OH230722   6.935   7.548   2.987
10267TIP3    H130723   6.850   7.514   2.957
10267TIP3    H230724   6.913   7.629   3.033
10268TIP3   OH230725   7.484   7.663   3.200
10268TIP3    H130726   7.556   7.636   3.257
10268TIP3    H230727   7.405   7.644   3.250
10269TIP3   OH230728   7.713   8.049   3.090
10269TIP3    H130729   7.679   8.056   3.180
10269TIP3    H230730   7.724   8.140   3.062
10270TIP3   OH230731   7.098   7.558   1.973
10270TIP3    H130732   7.051   7.577   2.054
10270TIP3    H230733   7.057   7.479   1.938
10271TIP3   OH230734   6.875   8.075   2.995
10271TIP3    H130735   6.830   8.083   3.079
10271TIP3    H230736   6.853   8.156   2.948
10272TIP3   OH230737   6.747   7.958   2.523
10272TIP3    H130738   6.658   7.932   2.547
10272TIP3    H230739   6.758   7.924   2.434
10273TIP3   OH230740   7.234   8.051   2.228
10273TIP3    H130741   7.185   8.112   2.173
10273TIP3    H230742   7.311   8.029   2.176
10274TIP3   OH230743   7.409   8.302   3.324
10274TIP3    H130744   7.383   8.231   3.383
10274TIP3    H230745   7.495   8.329   3.354
10275TIP3   OH230746   7.360   8.010   2.478
10275TIP3    H130747   7.305   8.044   2.408
10275TIP3    H230748   7.423   7.953   2.434
10276TIP3   OH230749   6.716   8.092   3.220
10276TIP3    H130750   6.733   8.157   3.288
10276TIP3    H230751   6.697   8.011   3.267
10277TIP3   OH230752   6.756   7.568   1.950
10277TIP3    H130753   6.743   7.576   2.045
10277TIP3    H230754   6.680   7.612   1.912
10278TIP3   OH230755   6.301   7.615   2.802
10278TIP3    H130756   6.375   7.649   2.851
10278TIP3    H230757   6.336   7.597   2.714
10279TIP3   OH230758   6.207   7.589   2.302
10279TIP3    H130759   6.257   7.625   2.229
10279TIP3    H230760   6.144   7.658   2.324
10280TIP3   OH230761   7.349   8.280   2.881
10280TIP3    H130762   7.404   8.230   2.822
10280TIP3    H230763   7.353   8.232   2.964
10281TIP3   OH230764   7.114   7.747   2.566
10281TIP3    H130765   7.035   7.751   2.618
10281TIP3    H230766   7.185   7.743   2.630
10282TIP3   OH230767   6.512   7.829   2.580
10282TIP3    H130768   6.425   7.836   2.542
10282TIP3    H230769   6.539   7.739   2.560
10283TIP3   OH230770   6.772   7.836   2.282
10283TIP3    H130771   6.864   7.853   2.262
10283TIP3    H230772   6.726   7.850   2.199
10284TIP3   OH230773   7.541   7.836   2.779
10284TIP3    H130774   7.519   7.855   2.870
10284TIP3    H230775   7.473   7.777   2.749
10285TIP3   OH230776   6.635   7.848   2.050
10285TIP3    H130777   6.573   7.799   1.995
10285TIP3    H230778   6.687   7.899   1.988
10286TIP3   OH230779   0.769   0.253   3.407
10286TIP3    H130780   0.849   0.284   3.448
10286TIP3    H230781   0.701   0.267   3.473
10287TIP3   OH230782   7.149   8.085   2.668
10287TIP3    H130783   7.223   8.047   2.621
10287TIP3    H230784   7.159   8.053   2.758
10288TIP3   OH230785   6.657   7.581   2.552
10288TIP3    H130786   6.630   7.506   2.605
10288TIP3    H230787   6.665   7.547   2.463
10289TIP3   OH230788   7.142   8.012   2.944
10289TIP3    H130789   7.056   8.049   2.964
10289TIP3    H230790   7.203   8.063   2.998
10290TIP3   OH230791   6.915   8.356   2.090
10290TIP3    H130792   6.837   8.305   2.067
10290TIP3    H230793   6.886   8.415   2.159
10291TIP3   OH230794   7.327   7.700   1.976
10291TIP3    H130795   7.244   7.654   1.975
10291TIP3    H230796   7.320   7.764   1.905
10292TIP3   OH230797   6.558   8.373   2.704
10292TIP3    H130798   6.597   8.364   2.617
10292TIP3    H230799   6.627   8.346   2.765
10293TIP3   OH230800   6.453   8.319   3.345
10293TIP3    H130801   6.462   8.300   3.438
10293TIP3    H230802   6.373   8.272   3.319
10294TIP3   OH230803   1.247   0.059   3.361
10294TIP3    H130804   1.176   0.002   3.332
10294TIP3    H230805   1.326   0.019   3.327
10295TIP3   OH230806   0.732   0.333   2.386
10295TIP3    H130807   0.706   0.417   2.349
10295TIP3    H230808   0.649   0.293   2.413
10296TIP3   OH230809   6.239   7.997   2.101
10296TIP3    H130810   6.283   8.082   2.106
10296TIP3    H230811   6.161   8.007   2.156
10297TIP3   OH230812   0.846   0.106   2.280
10297TIP3    H130813   0.817   0.192   2.312
10297TIP3    H230814   0.819   0.045   2.348
10298TIP3   OH230815   6.661   7.838   3.342
10298TIP3    H130816   6.565   7.836   3.347
10298TIP3    H230817   6.690   7.789   3.419
10299TIP3   OH230818   0.493   0.550   3.020
10299TIP3    H130819   0.538   0.481   3.069
10299TIP3    H230820   0.415   0.568   3.072
10300TIP3   OH230821   0.611   0.180   1.708
10300TIP3    H130822   0.550   0.110   1.686
10300TIP3    H230823   0.631   0.167   1.801
10301TIP3   OH230824   0.684   0.180   1.980
10301TIP3    H130825   0.734   0.109   2.020
10301TIP3    H230826   0.723   0.260   2.015
10302TIP3   OH230827   6.340   8.255   2.161
10302TIP3    H130828   6.278   8.301   2.218
10302TIP3    H230829   6.356   8.315   2.089
10303TIP3   OH230830   7.500   7.886   3.042
10303TIP3    H130831   7.582   7.930   3.066
10303TIP3    H230832   7.495   7.811   3.101
10304TIP3   OH230833   7.400   7.647   2.232
10304TIP3    H130834   7.375   7.671   2.143
10304TIP3    H230835   7.447   7.723   2.265
10305TIP3   OH230836   7.055   7.852   2.309
10305TIP3    H130837   7.113   7.923   2.283
10305TIP3    H230838   7.076   7.835   2.401
10306TIP3   OH230839   7.344   8.125   3.105
10306TIP3    H130840   7.370   8.177   3.182
10306TIP3    H230841   7.398   8.046   3.111
10307TIP3   OH230842   7.206   7.549   2.397
10307TIP3    H130843   7.180   7.623   2.452
10307TIP3    H230844   7.278   7.584   2.343
10308TIP3   OH230845   6.720   7.562   2.232
10308TIP3    H130846   6.705   7.654   2.255
10308TIP3    H230847   6.815   7.552   2.233
10309TIP3   OH230848   0.423   0.070   1.968
10309TIP3    H130849   0.491   0.135   1.985
10309TIP3    H230850   0.464   0.008   1.908
10310TIP3   OH230851   6.311   7.730   2.095
10310TIP3    H130852   6.306   7.825   2.110
10310TIP3    H230853   6.292   7.720   2.001
10311TIP3   OH230854   6.677   7.456   2.945
10311TIP3    H130855   6.647   7.426   2.859
10311TIP3    H230856   6.672   7.378   3.001
10312TIP3   OH230857   0.287   0.297   2.360
10312TIP3    H130858   0.252   0.340   2.438
10312TIP3    H230859   0.232   0.328   2.289
10313TIP3   OH230860   0.436   0.804   3.457
10313TIP3    H130861   0.524   0.827   3.486
10313TIP3    H230862   0.444   0.714   3.426
10314TIP3   OH230863   0.568   0.248   3.603
10314TIP3    H130864   0.592   0.156   3.612
10314TIP3    H230865   0.480   0.247   3.564
10315TIP3   OH230866   6.518   8.277   1.852
10315TIP3    H130867   6.582   8.253   1.919
10315TIP3    H230868   6.568   8.276   1.770
10316TIP3   OH230869   1.190   0.332   3.392
10316TIP3    H130870   1.147   0.358   3.311
10316TIP3    H230871   1.219   0.242   3.375
10317TIP3   OH230872   6.614   8.382   3.601
10317TIP3    H130873   6.689   8.378   3.541
10317TIP3    H230874   6.652   8.403   3.686
10318TIP3   OH230875   6.694   8.202   2.050
10318TIP3    H130876   6.655   8.170   2.131
10318TIP3    H230877   6.726   8.123   2.005
10319TIP3   OH230878   6.981   8.275   3.261
10319TIP3    H130879   6.897   8.319   3.267
10319TIP3    H230880   7.013   8.296   3.173
10320TIP3   OH230881   6.795   8.001   1.892
10320TIP3    H130882   6.760   8.002   1.803
10320TIP3    H230883   6.890   7.995   1.881
10321TIP3   OH230884   7.079   8.042   3.369
10321TIP3    H130885   7.084   7.972   3.303
10321TIP3    H230886   7.047   8.118   3.321
10322TIP3   OH230887   7.093   7.842   3.168
10322TIP3    H130888   7.119   7.882   3.086
10322TIP3    H230889   7.001   7.817   3.155
10323TIP3   OH230890   7.096   8.339   3.023
10323TIP3    H130891   7.178   8.339   2.974
10323TIP3    H230892   7.046   8.411   2.985
10324TIP3   OH230893   7.676   8.297   3.449
10324TIP3    H130894   7.660   8.210   3.413
10324TIP3    H230895   7.756   8.326   3.406
10325TIP3   OH230896   6.960   8.117   3.610
10325TIP3    H130897   6.895   8.049   3.629
10325TIP3    H230898   6.991   8.095   3.522
10326TIP3   OH230899   7.214   7.610   3.266
10326TIP3    H130900   7.175   7.691   3.235
10326TIP3    H230901   7.146   7.544   3.255
10327TIP3   OH230902   7.335   8.082   3.468
10327TIP3    H130903   7.329   8.067   3.563
10327TIP3    H230904   7.248   8.062   3.435
10328TIP3   OH230905   7.580   8.056   3.332
10328TIP3    H130906   7.498   8.046   3.381
10328TIP3    H230907   7.645   8.010   3.386
10329TIP3   OH230908   7.790   7.981   3.480
10329TIP3    H130909   7.824   7.892   3.487
10329TIP3    H230910   7.806   8.020   3.565
10330TIP3   OH230911   6.800   7.894   3.676
10330TIP3    H130912   6.805   7.805   3.643
10330TIP3    H230913   6.836   7.889   3.765
10331TIP3   OH230914   7.273   7.588   3.534
10331TIP3    H130915   7.344   7.523   3.528
10331TIP3    H230916   7.244   7.599   3.443
10332TIP3   OH230917   7.372   7.799   3.677
10332TIP3    H130918   7.337   7.726   3.625
10332TIP3    H230919   7.300   7.862   3.681
10333TIP3   OH230920   0.151   0.048   2.007
10333TIP3    H130921   0.238   0.081   1.983
10333TIP3    H230922   0.146  -0.038   1.966
10334TIP3   OH230923   0.231   0.439   2.591
10334TIP3    H130924   0.206   0.379   2.662
10334TIP3    H230925   0.269   0.514   2.636
10335TIP3   OH230926   6.317   8.278   2.980
10335TIP3    H130927   6.310   8.253   2.888
10335TIP3    H230928   6.411   8.282   2.997
10336TIP3   OH230929   6.541   7.973   3.610
10336TIP3    H130930   6.635   7.967   3.629
10336TIP3    H230931   6.505   7.890   3.642
10337TIP3   OH230932   7.802   7.668   2.109
10337TIP3    H130933   7.867   7.647   2.176
10337TIP3    H230934   7.729   7.608   2.127
10338TIP3   OH230935   6.516   7.683   2.964
10338TIP3    H130936   6.569   7.603   2.970
10338TIP3    H230937   6.580   7.752   2.944
10339TIP3   OH230938   6.293   7.956   3.025
10339TIP3    H130939   6.348   7.940   2.948
10339TIP3    H230940   6.306   8.049   3.044
10340TIP3   OH230941   6.283   7.465   2.533
10340TIP3    H130942   6.197   7.450   2.573
10340TIP3    H230943   6.263   7.516   2.454
10341TIP3   OH230944   6.502   7.514   3.358
10341TIP3    H130945   6.454   7.509   3.441
10341TIP3    H230946   6.443   7.560   3.299
10342TIP3   OH230947   0.617   0.544   3.446
10342TIP3    H130948   0.524   0.525   3.429
10342TIP3    H230949   0.624   0.545   3.541
10343TIP3   OH230950   0.766   0.605   2.983
10343TIP3    H130951   0.670   0.607   2.978
10343TIP3    H230952   0.794   0.690   2.948
10344TIP3   OH230953   8.103   7.674   3.088
10344TIP3    H130954   8.022   7.637   3.052
10344TIP3    H230955   8.172   7.614   3.058
10345TIP3   OH230956   0.383   0.607   2.773
10345TIP3    H130957   0.426   0.598   2.858
10345TIP3    H230958   0.454   0.597   2.709
10346TIP3   OH230959   0.599   0.515   2.631
10346TIP3    H130960   0.588   0.430   2.672
10346TIP3    H230961   0.694   0.527   2.624
10347TIP3   OH230962   7.348   7.647   2.702
10347TIP3    H130963   7.308   7.578   2.755
10347TIP3    H230964   7.418   7.603   2.654
10348TIP3   OH230965   7.857   7.570   2.582
10348TIP3    H130966   7.890   7.660   2.572
10348TIP3    H230967   7.763   7.581   2.596
10349TIP3   OH230968   6.591   7.356   2.702
10349TIP3    H130969   6.502   7.323   2.713
10349TIP3    H230970   6.647   7.278   2.701
10350TIP3   OH230971   6.418   7.272   2.370
10350TIP3    H130972   6.438   7.320   2.289
10350TIP3    H230973   6.378   7.338   2.427
10351TIP3   OH230974   7.143   7.360   2.601
10351TIP3    H130975   7.134   7.438   2.547
10351TIP3    H230976   7.137   7.392   2.691
10352TIP3   OH230977   7.570   7.526   2.578
10352TIP3    H130978   7.598   7.488   2.495
10352TIP3    H230979   7.571   7.453   2.640
10353TIP3   OH230980   7.609   7.482   2.152
10353TIP3    H130981   7.529   7.530   2.172
10353TIP3    H230982   7.597   7.397   2.193
10354TIP3   OH230983   0.138   0.396   2.153
10354TIP3    H130984   0.050   0.381   2.118
10354TIP3    H230985   0.144   0.491   2.160
10355TIP3   OH230986   6.513   7.398   2.131
10355TIP3    H130987   6.559   7.339   2.071
10355TIP3    H230988   6.582   7.453   2.167
10356TIP3   OH230989   6.993   7.598   2.225
10356TIP3    H130990   7.057   7.553   2.280
10356TIP3    H230991   7.007   7.691   2.243
10357TIP3   OH230992   6.815   7.618   3.606
10357TIP3    H130993   6.775   7.550   3.660
10357TIP3    H230994   6.906   7.622   3.636
10358TIP3   OH230995   7.064   7.617   3.728
10358TIP3    H130996   7.140   7.607   3.670
10358TIP3    H230997   7.059   7.533   3.774
10359TIP3   OH230998   0.243   0.476   1.748
10359TIP3    H130999   0.258   0.478   1.843
10359TIP3    H231000   0.326   0.447   1.711
10360TIP3   OH231001   7.887   7.725   3.500
10360TIP3    H131002   7.908   7.695   3.589
10360TIP3    H231003   7.971   7.724   3.454
10361TIP3   OH231004   5.126   4.990   0.404
10361TIP3    H131005   5.166   4.956   0.324
10361TIP3    H231006   5.062   5.054   0.375
10362TIP3   OH231007   4.950   5.502   0.494
10362TIP3    H131008   5.031   5.491   0.443
10362TIP3    H231009   4.886   5.446   0.451
10363TIP3   OH231010   5.160   5.269   0.489
10363TIP3    H131011   5.142   5.244   0.580
10363TIP3    H231012   5.202   5.354   0.496
10364TIP3   OH231013   4.906   5.318   0.136
10364TIP3    H131014   4.951   5.234   0.127
10364TIP3    H231015   4.975   5.383   0.121
10365TIP3   OH231016   5.026   5.079   0.094
10365TIP3    H131017   5.054   5.021   0.023
10365TIP3    H231018   5.106   5.121   0.124
10366TIP3   OH231019   5.737   4.914   0.747
10366TIP3    H131020   5.660   4.929   0.802
10366TIP3    H231021   5.702   4.897   0.660
10367TIP3   OH231022   4.684   5.162   0.067
10367TIP3    H131023   4.756   5.224   0.075
10367TIP3    H231024   4.605   5.216   0.079
10368TIP3   OH231025   2.356   0.958   6.793
10368TIP3    H131026   2.353   1.051   6.768
10368TIP3    H231027   2.444   0.930   6.769
10369TIP3   OH231028   1.646   1.245   7.215
10369TIP3    H131029   1.598   1.226   7.135
10369TIP3    H231030   1.614   1.331   7.243
10370TIP3   OH231031   1.847   1.173   6.868
10370TIP3    H131032   1.895   1.096   6.838
10370TIP3    H231033   1.879   1.187   6.958
10371TIP3   OH231034   1.901   1.210   7.134
10371TIP3    H131035   1.811   1.220   7.164
10371TIP3    H231036   1.945   1.162   7.204
10372TIP3   OH231037   2.075   0.460   6.944
10372TIP3    H131038   2.034   0.411   6.873
10372TIP3    H231039   2.169   0.456   6.924
10373TIP3   OH231040   5.327   4.960   0.651
10373TIP3    H131041   5.402   4.950   0.592
10373TIP3    H231042   5.366   4.982   0.735
10374TIP3   OH231043   2.492   0.216   7.135
10374TIP3    H131044   2.454   0.166   7.063
10374TIP3    H231045   2.515   0.301   7.096
10375TIP3   OH231046   2.253   0.990   7.048
10375TIP3    H131047   2.244   0.903   7.087
10375TIP3    H231048   2.289   0.973   6.961
10376TIP3   OH231049   2.037   0.732   6.934
10376TIP3    H131050   2.070   0.750   7.022
10376TIP3    H231051   2.026   0.637   6.931
10377TIP3   OH231052   2.355   1.229   6.750
10377TIP3    H131053   2.390   1.293   6.688
10377TIP3    H231054   2.277   1.272   6.787
10378TIP3   OH231055   2.183   0.714   7.173
10378TIP3    H131056   2.148   0.630   7.203
10378TIP3    H231057   2.272   0.694   7.144
10379TIP3   OH231058   5.191   5.531   0.359
10379TIP3    H131059   5.183   5.596   0.290
10379TIP3    H231060   5.267   5.558   0.411
10380TIP3   OH231061   1.566   0.905   6.832
10380TIP3    H131062   1.544   0.846   6.904
10380TIP3    H231063   1.640   0.861   6.789
10381TIP3   OH231064   1.976   0.951   6.774
10381TIP3    H131065   2.011   0.884   6.833
10381TIP3    H231066   2.037   0.954   6.701
10382TIP3   OH231067   2.318   0.477   6.799
10382TIP3    H131068   2.300   0.426   6.720
10382TIP3    H231069   2.296   0.567   6.774
10383TIP3   OH231070   1.337   1.229   7.039
10383TIP3    H131071   1.424   1.201   7.010
10383TIP3    H231072   1.300   1.277   6.965
10384TIP3   OH231073   5.565   5.606   0.279
10384TIP3    H131074   5.505   5.625   0.351
10384TIP3    H231075   5.549   5.675   0.215
10385TIP3   OH231076   5.566   5.557   0.640
10385TIP3    H131077   5.597   5.493   0.576
10385TIP3    H231078   5.618   5.540   0.719
10386TIP3   OH231079   2.450   0.683   7.128
10386TIP3    H131080   2.511   0.746   7.090
10386TIP3    H231081   2.503   0.631   7.188
10387TIP3   OH231082   5.561   4.710   0.016
10387TIP3    H131083   5.498   4.683   0.083
10387TIP3    H231084   5.634   4.746   0.065
10388TIP3   OH231085   5.576   5.124   0.599
10388TIP3    H131086   5.618   5.046   0.562
10388TIP3    H231087   5.495   5.133   0.550
10389TIP3   OH231088   5.311   5.455   0.629
10389TIP3    H131089   5.311   5.402   0.708
10389TIP3    H231090   5.397   5.496   0.626
10390TIP3   OH231091   2.521   0.447   6.978
10390TIP3    H131092   2.452   0.448   6.912
10390TIP3    H231093   2.504   0.526   7.030
10391TIP3   OH231094   2.369   0.094   6.926
10391TIP3    H131095   2.369   0.122   6.835
10391TIP3    H231096   2.318   0.013   6.926
10392TIP3   OH231097   5.342   4.615   0.179
10392TIP3    H131098   5.303   4.545   0.126
10392TIP3    H231099   5.300   4.607   0.264
10393TIP3   OH231100   5.116   5.479   0.056
10393TIP3    H131101   5.157   5.477  -0.031
10393TIP3    H231102   5.131   5.568   0.087
10394TIP3   OH231103   4.718   5.565   0.707
10394TIP3    H131104   4.658   5.557   0.632
10394TIP3    H231105   4.661   5.592   0.779
10395TIP3   OH231106   4.981   5.625   0.748
10395TIP3    H131107   4.892   5.589   0.742
10395TIP3    H231108   5.027   5.587   0.674
10396TIP3   OH231109   5.174   5.783   0.604
10396TIP3    H131110   5.099   5.785   0.544
10396TIP3    H231111   5.235   5.722   0.564
10397TIP3   OH231112   1.585   1.155   6.954
10397TIP3    H131113   1.671   1.181   6.922
10397TIP3    H231114   1.567   1.071   6.911
10398TIP3   OH231115   2.272   1.263   7.078
10398TIP3    H131116   2.269   1.168   7.067
10398TIP3    H231117   2.233   1.298   6.998
10399TIP3   OH231118   3.773   0.813   7.045
10399TIP3    H131119   3.748   0.901   7.017
10399TIP3    H231120   3.708   0.756   7.005
10400TIP3   OH231121   6.739   4.998   0.113
10400TIP3    H131122   6.768   4.939   0.183
10400TIP3    H231123   6.741   4.944   0.034
10401TIP3   OH231124   5.988   4.932   0.519
10401TIP3    H131125   6.018   4.847   0.486
10401TIP3    H231126   6.057   4.993   0.495
10402TIP3   OH231127   4.064   1.124   7.120
10402TIP3    H131128   4.032   1.064   7.187
10402TIP3    H231129   4.081   1.206   7.166
10403TIP3   OH231130   6.089   5.295   0.215
10403TIP3    H131131   6.073   5.203   0.192
10403TIP3    H231132   6.178   5.312   0.186
10404TIP3   OH231133   2.790   0.316   7.265
10404TIP3    H131134   2.729   0.386   7.240
10404TIP3    H231135   2.784   0.252   7.194
10405TIP3   OH231136   5.795   4.815   0.123
10405TIP3    H131137   5.867   4.770   0.166
10405TIP3    H231138   5.836   4.889   0.077
10406TIP3   OH231139   3.731   1.534   7.129
10406TIP3    H131140   3.749   1.472   7.058
10406TIP3    H231141   3.754   1.486   7.209
10407TIP3   OH231142   6.591   5.233   0.130
10407TIP3    H131143   6.632   5.152   0.102
10407TIP3    H231144   6.665   5.291   0.152
10408TIP3   OH231145   6.982   4.708   0.220
10408TIP3    H131146   7.035   4.642   0.266
10408TIP3    H231147   6.989   4.683   0.128
10409TIP3   OH231148   3.977   0.256   7.118
10409TIP3    H131149   4.060   0.297   7.141
10409TIP3    H231150   3.984   0.236   7.025
10410TIP3   OH231151   6.035   4.683   0.207
10410TIP3    H131152   6.121   4.678   0.248
10410TIP3    H231153   6.028   4.602   0.156
10411TIP3   OH231154   6.398   4.760   0.082
10411TIP3    H131155   6.488   4.734   0.101
10411TIP3    H231156   6.356   4.679   0.052
10412TIP3   OH231157   7.713   4.843   0.284
10412TIP3    H131158   7.626   4.873   0.310
10412TIP3    H231159   7.730   4.767   0.339
10413TIP3   OH231160   3.666   1.027   6.909
10413TIP3    H131161   3.640   1.006   6.819
10413TIP3    H231162   3.623   1.110   6.928
10414TIP3   OH231163   6.453   5.113   0.330
10414TIP3    H131164   6.435   5.183   0.393
10414TIP3    H231165   6.486   5.158   0.253
10415TIP3   OH231166   6.201   4.472   0.350
10415TIP3    H131167   6.282   4.510   0.383
10415TIP3    H231168   6.229   4.406   0.287
10416TIP3   OH231169   6.275   5.362   0.459
10416TIP3    H131170   6.290   5.453   0.433
10416TIP3    H231171   6.186   5.362   0.495
10417TIP3   OH231172   2.642   0.842   7.012
10417TIP3    H131173   2.621   0.858   6.920
10417TIP3    H231174   2.671   0.927   7.046
10418TIP3   OH231175   4.089   1.371   7.259
10418TIP3    H131176   3.996   1.370   7.281
10418TIP3    H231177   4.102   1.452   7.210
10419TIP3   OH231178   3.804   1.389   6.904
10419TIP3    H131179   3.856   1.310   6.895
10419TIP3    H231180   3.863   1.461   6.882
10420TIP3   OH231181   3.964   1.175   6.865
10420TIP3    H131182   3.954   1.094   6.815
10420TIP3    H231183   4.003   1.147   6.948
10421TIP3   OH231184   7.338   5.441   0.267
10421TIP3    H131185   7.367   5.416   0.180
10421TIP3    H231186   7.301   5.529   0.255
10422TIP3   OH231187   3.607   0.678   6.866
10422TIP3    H131188   3.524   0.721   6.842
10422TIP3    H231189   3.657   0.677   6.785
10423TIP3   OH231190   3.586   0.460   6.589
10423TIP3    H131191   3.651   0.513   6.635
10423TIP3    H231192   3.637   0.394   6.542
10424TIP3   OH231193   7.501   5.142   0.184
10424TIP3    H131194   7.408   5.161   0.169
10424TIP3    H231195   7.539   5.137   0.097
10425TIP3   OH231196   3.966   0.759   6.848
10425TIP3    H131197   3.908   0.779   6.922
10425TIP3    H231198   4.050   0.737   6.889
10426TIP3   OH231199   7.121   5.007   0.395
10426TIP3    H131200   7.139   5.094   0.358
10426TIP3    H231201   7.132   4.947   0.321
10427TIP3   OH231202   3.219   0.716   7.223
10427TIP3    H131203   3.178   0.657   7.161
10427TIP3    H231204   3.297   0.669   7.254
10428TIP3   OH231205   6.333   5.337   0.088
10428TIP3    H131206   6.305   5.326  -0.003
10428TIP3    H231207   6.423   5.307   0.090
10429TIP3   OH231208   6.289   4.901   0.286
10429TIP3    H131209   6.318   4.843   0.216
10429TIP3    H231210   6.363   4.961   0.299
10430TIP3   OH231211   6.797   5.576   0.081
10430TIP3    H131212   6.796   5.652   0.139
10430TIP3    H231213   6.801   5.500   0.139
10431TIP3   OH231214   6.405   5.428   0.727
10431TIP3    H131215   6.317   5.464   0.715
10431TIP3    H231216   6.407   5.349   0.672
10432TIP3   OH231217   3.804   0.612   6.679
10432TIP3    H131218   3.866   0.668   6.726
10432TIP3    H231219   3.833   0.618   6.587
10433TIP3   OH231220   6.261   5.118   0.820
10433TIP3    H131221   6.220   5.194   0.860
10433TIP3    H231222   6.189   5.056   0.807
10434TIP3   OH231223   3.550   1.281   6.931
10434TIP3    H131224   3.637   1.322   6.929
10434TIP3    H231225   3.495   1.339   6.878
10435TIP3   OH231226   6.274   5.693   0.853
10435TIP3    H131227   6.337   5.715   0.784
10435TIP3    H231228   6.206   5.643   0.808
10436TIP3   OH231229   3.081   0.557   7.039
10436TIP3    H131230   3.001   0.599   7.008
10436TIP3    H231231   3.057   0.464   7.048
10437TIP3   OH231232   4.143   1.203   6.275
10437TIP3    H131233   4.136   1.296   6.258
10437TIP3    H231234   4.234   1.181   6.257
10438TIP3   OH231235   5.849   5.154   0.644
10438TIP3    H131236   5.755   5.172   0.654
10438TIP3    H231237   5.858   5.062   0.665
10439TIP3   OH231238   5.731   5.323   0.128
10439TIP3    H131239   5.690   5.240   0.151
10439TIP3    H231240   5.775   5.351   0.208
10440TIP3   OH231241   7.547   5.846   0.360
10440TIP3    H131242   7.554   5.751   0.370
10440TIP3    H231243   7.464   5.869   0.402
10441TIP3   OH231244   6.621   5.636   0.446
10441TIP3    H131245   6.715   5.651   0.433
10441TIP3    H231246   6.613   5.540   0.449
10442TIP3   OH231247   3.446   1.500   6.753
10442TIP3    H131248   3.401   1.481   6.671
10442TIP3    H231249   3.411   1.585   6.781
10443TIP3   OH231250   2.888   1.366   7.095
10443TIP3    H131251   2.937   1.351   7.177
10443TIP3    H231252   2.833   1.289   7.086
10444TIP3   OH231253   3.651   1.432   6.379
10444TIP3    H131254   3.700   1.358   6.345
10444TIP3    H231255   3.685   1.445   6.468
10445TIP3   OH231256   3.700   1.476   6.650
10445TIP3    H131257   3.613   1.480   6.690
10445TIP3    H231258   3.755   1.436   6.718
10446TIP3   OH231259   7.383   4.939   0.587
10446TIP3    H131260   7.408   4.949   0.495
10446TIP3    H231261   7.325   4.864   0.589
10447TIP3   OH231262   5.992   5.326   0.793
10447TIP3    H131263   6.050   5.380   0.740
10447TIP3    H231264   5.941   5.276   0.729
10448TIP3   OH231265   7.272   4.698   0.561
10448TIP3    H131266   7.214   4.664   0.630
10448TIP3    H231267   7.239   4.659   0.480
10449TIP3   OH231268   3.878   0.606   6.418
10449TIP3    H131269   3.825   0.610   6.338
10449TIP3    H231270   3.961   0.647   6.395
10450TIP3   OH231271   6.401   4.625   0.470
10450TIP3    H131272   6.407   4.613   0.565
10450TIP3    H231273   6.452   4.704   0.453
10451TIP3   OH231274   3.297   0.342   7.279
10451TIP3    H131275   3.203   0.329   7.292
10451TIP3    H231276   3.312   0.315   7.188
10452TIP3   OH231277   3.729   0.468   6.989
10452TIP3    H131278   3.685   0.540   6.944
10452TIP3    H231279   3.790   0.433   6.924
10453TIP3   OH231280   6.964   4.841   0.884
10453TIP3    H131281   6.938   4.928   0.914
10453TIP3    H231282   7.032   4.858   0.818
10454TIP3   OH231283   3.860   0.484   7.231
10454TIP3    H131284   3.813   0.505   7.151
10454TIP3    H231285   3.917   0.410   7.207
10455TIP3   OH231286   6.172   4.650   0.770
10455TIP3    H131287   6.268   4.655   0.771
10455TIP3    H231288   6.153   4.557   0.762
10456TIP3   OH231289   2.781   0.109   7.093
10456TIP3    H131290   2.802   0.113   7.000
10456TIP3    H231291   2.690   0.080   7.096
10457TIP3   OH231292   6.843   4.884   0.361
10457TIP3    H131293   6.894   4.830   0.301
10457TIP3    H231294   6.862   4.848   0.448
10458TIP3   OH231295   6.011   4.454   0.055
10458TIP3    H131296   5.919   4.478   0.040
10458TIP3    H231297   6.017   4.363   0.025
10459TIP3   OH231298   3.300   0.234   7.034
10459TIP3    H131299   3.395   0.235   7.022
10459TIP3    H231300   3.265   0.236   6.945
10460TIP3   OH231301   3.196   0.255   6.780
10460TIP3    H131302   3.122   0.217   6.733
10460TIP3    H231303   3.229   0.324   6.723
10461TIP3   OH231304   7.274   6.163   0.482
10461TIP3    H131305   7.255   6.179   0.389
10461TIP3    H231306   7.351   6.216   0.500
10462TIP3   OH231307   6.639   4.638   0.160
10462TIP3    H131308   6.706   4.651   0.093
10462TIP3    H231309   6.687   4.637   0.243
10463TIP3   OH231310   6.724   4.614   0.423
10463TIP3    H131311   6.665   4.685   0.448
10463TIP3    H231312   6.807   4.637   0.465
10464TIP3   OH231313   3.366   0.803   6.802
10464TIP3    H131314   3.293   0.744   6.783
10464TIP3    H231315   3.345   0.840   6.887
10465TIP3   OH231316   7.247   5.203   0.103
10465TIP3    H131317   7.272   5.268   0.037
10465TIP3    H231318   7.153   5.190   0.090
10466TIP3   OH231319   3.857   0.137   6.636
10466TIP3    H131320   3.766   0.120   6.659
10466TIP3    H231321   3.884   0.208   6.695
10467TIP3   OH231322   6.815   5.392   0.489
10467TIP3    H131323   6.799   5.363   0.579
10467TIP3    H231324   6.734   5.374   0.443
10468TIP3   OH231325   3.902   0.370   6.790
10468TIP3    H131326   3.995   0.373   6.811
10468TIP3    H231327   3.886   0.449   6.739
10469TIP3   OH231328   6.058   5.018   0.175
10469TIP3    H131329   6.084   4.998   0.085
10469TIP3    H231330   6.112   4.960   0.229
10470TIP3   OH231331   3.540   0.960   6.664
10470TIP3    H131332   3.495   1.044   6.660
10470TIP3    H231333   3.478   0.902   6.709
10471TIP3   OH231334   6.632   5.098   0.953
10471TIP3    H131335   6.566   5.028   0.951
10471TIP3    H231336   6.711   5.058   0.918
10472TIP3   OH231337   6.895   5.643   0.414
10472TIP3    H131338   6.882   5.549   0.429
10472TIP3    H231339   6.961   5.668   0.479
10473TIP3   OH231340   4.340   0.497   6.658
10473TIP3    H131341   4.274   0.448   6.608
10473TIP3    H231342   4.338   0.584   6.618
10474TIP3   OH231343   7.557   5.577   0.411
10474TIP3    H131344   7.474   5.540   0.442
10474TIP3    H231345   7.576   5.530   0.330
10475TIP3   OH231346   4.067   1.277   6.542
10475TIP3    H131347   4.040   1.209   6.603
10475TIP3    H231348   4.084   1.231   6.460
10476TIP3   OH231349   6.970   5.142   0.063
10476TIP3    H131350   6.881   5.108   0.075
10476TIP3    H231351   7.022   5.064   0.040
10477TIP3   OH231352   3.207   1.155   7.126
10477TIP3    H131353   3.215   1.225   7.061
10477TIP3    H231354   3.122   1.170   7.168
10478TIP3   OH231355   2.753   0.429   6.828
10478TIP3    H131356   2.801   0.508   6.852
10478TIP3    H231357   2.674   0.431   6.882
10479TIP3   OH231358   3.284   0.908   7.034
10479TIP3    H131359   3.264   0.996   7.065
10479TIP3    H231360   3.264   0.851   7.108
10480TIP3   OH231361   6.466   5.709   0.239
10480TIP3    H131362   6.506   5.779   0.187
10480TIP3    H231363   6.532   5.687   0.304
10481TIP3   OH231364   3.133   1.376   6.973
10481TIP3    H131365   3.042   1.384   7.003
10481TIP3    H231366   3.167   1.466   6.975
10482TIP3   OH231367   6.843   5.335   0.216
10482TIP3    H131368   6.880   5.336   0.304
10482TIP3    H231369   6.902   5.280   0.164
10483TIP3   OH231370   3.840   1.007   6.429
10483TIP3    H131371   3.881   0.992   6.514
10483TIP3    H231372   3.755   0.963   6.434
10484TIP3   OH231373   7.050   5.859   0.320
10484TIP3    H131374   6.973   5.803   0.329
10484TIP3    H231375   7.032   5.913   0.243
10485TIP3   OH231376   4.136   1.478   6.239
10485TIP3    H131377   4.148   1.537   6.164
10485TIP3    H231378   4.068   1.519   6.292
10486TIP3   OH231379   3.992   0.964   6.662
10486TIP3    H131380   3.978   0.890   6.722
10486TIP3    H231381   4.087   0.963   6.645
10487TIP3   OH231382   5.879   5.548   0.638
10487TIP3    H131383   5.906   5.491   0.566
10487TIP3    H231384   5.845   5.626   0.595
10488TIP3   OH231385   3.179   0.980   6.450
10488TIP3    H131386   3.189   0.889   6.423
10488TIP3    H231387   3.164   0.975   6.544
10489TIP3   OH231388   3.122   0.992   6.722
10489TIP3    H131389   3.196   0.966   6.777
10489TIP3    H231390   3.120   1.087   6.725
10490TIP3   OH231391   2.852   0.673   6.929
10490TIP3    H131392   2.783   0.719   6.978
10490TIP3    H231393   2.877   0.734   6.860
10491TIP3   OH231394   3.394   1.186   6.659
10491TIP3    H131395   3.307   1.207   6.692
10491TIP3    H231396   3.417   1.260   6.603
10492TIP3   OH231397   3.574   0.257   7.065
10492TIP3    H131398   3.618   0.338   7.040
10492TIP3    H231399   3.641   0.208   7.113
10493TIP3   OH231400   6.901   4.744   0.599
10493TIP3    H131401   6.905   4.818   0.660
10493TIP3    H231402   6.972   4.687   0.626
10494TIP3   OH231403   3.139   1.264   6.726
10494TIP3    H131404   3.120   1.335   6.665
10494TIP3    H231405   3.136   1.305   6.812
10495TIP3   OH231406   7.103   4.916   0.011
10495TIP3    H131407   7.079   4.833  -0.030
10495TIP3    H231408   7.185   4.897   0.058
10496TIP3   OH231409   2.877   0.860   6.720
10496TIP3    H131410   2.949   0.923   6.729
10496TIP3    H231411   2.908   0.798   6.653
10497TIP3   OH231412   2.783   0.148   6.824
10497TIP3    H131413   2.783   0.244   6.815
10497TIP3    H231414   2.734   0.117   6.749
10498TIP3   OH231415   4.123   1.628   7.165
10498TIP3    H131416   4.076   1.681   7.101
10498TIP3    H231417   4.215   1.646   7.148
10499TIP3   OH231418   2.704   1.103   7.080
10499TIP3    H131419   2.677   1.149   7.159
10499TIP3    H231420   2.669   1.156   7.008
10500TIP3   OH231421   6.306   5.834   1.081
10500TIP3    H131422   6.389   5.879   1.063
10500TIP3    H231423   6.283   5.792   0.999
10501TIP3   OH231424   3.336   1.180   6.342
10501TIP3    H131425   3.288   1.109   6.386
10501TIP3    H231426   3.409   1.136   6.299
10502TIP3   OH231427   7.058   5.722   0.614
10502TIP3    H131428   7.035   5.687   0.700
10502TIP3    H231429   7.152   5.705   0.605
10503TIP3   OH231430   3.778   1.218   6.263
10503TIP3    H131431   3.814   1.153   6.323
10503TIP3    H231432   3.834   1.215   6.186
10504TIP3   OH231433   2.991   0.669   6.562
10504TIP3    H131434   3.043   0.644   6.639
10504TIP3    H231435   3.056   0.686   6.494
10505TIP3   OH231436   6.487   5.324   0.970
10505TIP3    H131437   6.485   5.363   0.882
10505TIP3    H231438   6.540   5.245   0.960
10506TIP3   OH231439   3.584   0.896   6.402
10506TIP3    H131440   3.561   0.912   6.493
10506TIP3    H231441   3.560   0.804   6.387
10507TIP3   OH231442   7.118   5.285   0.351
10507TIP3    H131443   7.189   5.316   0.295
10507TIP3    H231444   7.126   5.338   0.431
10508TIP3   OH231445   3.166   0.613   6.772
10508TIP3    H131446   3.156   0.581   6.862
10508TIP3    H231447   3.220   0.547   6.729
10509TIP3   OH231448   6.501   4.901   0.802
10509TIP3    H131449   6.435   4.914   0.734
10509TIP3    H231450   6.584   4.923   0.760
10510TIP3   OH231451   3.312   0.439   6.618
10510TIP3    H131452   3.285   0.442   6.526
10510TIP3    H231453   3.408   0.447   6.615
10511TIP3   OH231454   6.922   5.101   0.944
10511TIP3    H131455   6.948   5.183   0.901
10511TIP3    H231456   6.899   5.127   1.033
10512TIP3   OH231457   4.105   0.723   6.315
10512TIP3    H131458   4.134   0.662   6.247
10512TIP3    H231459   4.080   0.802   6.268
10513TIP3   OH231460   6.702   5.092   0.453
10513TIP3    H131461   6.755   5.033   0.399
10513TIP3    H231462   6.624   5.108   0.401
10514TIP3   OH231463   7.269   4.740   0.894
10514TIP3    H131464   7.271   4.754   0.988
10514TIP3    H231465   7.319   4.813   0.858
10515TIP3   OH231466   7.213   5.186   0.676
10515TIP3    H131467   7.130   5.188   0.627
10515TIP3    H231468   7.279   5.211   0.612
10516TIP3   OH231469   3.139   1.476   6.550
10516TIP3    H131470   3.229   1.458   6.523
10516TIP3    H231471   3.101   1.523   6.476
10517TIP3   OH231472   2.604   0.855   6.732
10517TIP3    H131473   2.699   0.868   6.726
10517TIP3    H231474   2.588   0.772   6.688
10518TIP3   OH231475   2.476   1.449   7.108
10518TIP3    H131476   2.410   1.384   7.084
10518TIP3    H231477   2.539   1.401   7.162
10519TIP3   OH231478   5.622   5.526  -0.002
10519TIP3    H131479   5.656   5.453   0.050
10519TIP3    H231480   5.675   5.601   0.025
10520TIP3   OH231481   4.383   1.703   7.146
10520TIP3    H131482   4.404   1.727   7.236
10520TIP3    H231483   4.457   1.737   7.094
10521TIP3   OH231484   7.366   5.921   0.155
10521TIP3    H131485   7.318   5.839   0.159
10521TIP3    H231486   7.445   5.905   0.206
10522TIP3   OH231487   7.328   5.680   0.642
10522TIP3    H131488   7.394   5.667   0.710
10522TIP3    H231489   7.361   5.752   0.589
10523TIP3   OH231490   4.269   0.958   6.635
10523TIP3    H131491   4.330   1.023   6.599
10523TIP3    H231492   4.312   0.926   6.714
10524TIP3   OH231493   4.390   0.839   6.848
10524TIP3    H131494   4.325   0.798   6.905
10524TIP3    H231495   4.463   0.860   6.907
10525TIP3   OH231496   4.459   1.208   7.270
10525TIP3    H131497   4.514   1.138   7.233
10525TIP3    H231498   4.464   1.278   7.206
10526TIP3   OH231499   7.222   5.681   0.189
10526TIP3    H131500   7.155   5.728   0.238
10526TIP3    H231501   7.174   5.638   0.118
10527TIP3   OH231502   4.307   0.723   6.499
10527TIP3    H131503   4.232   0.718   6.440
10527TIP3    H231504   4.293   0.804   6.548
10528TIP3   OH231505   4.191   0.399   6.444
10528TIP3    H131506   4.188   0.456   6.367
10528TIP3    H231507   4.271   0.347   6.433
10529TIP3   OH231508   4.197   0.713   7.001
10529TIP3    H131509   4.214   0.622   7.022
10529TIP3    H231510   4.178   0.755   7.085
10530TIP3   OH231511   5.660   4.893   0.485
10530TIP3    H131512   5.597   4.874   0.416
10530TIP3    H231513   5.739   4.844   0.461
10531TIP3   OH231514   7.409   5.267   0.483
10531TIP3    H131515   7.486   5.214   0.462
10531TIP3    H231516   7.391   5.316   0.403
10532TIP3   OH231517   7.660   5.104   0.506
10532TIP3    H131518   7.619   5.112   0.592
10532TIP3    H231519   7.725   5.034   0.517
10533TIP3   OH231520   4.164   0.387   6.857
10533TIP3    H131521   4.190   0.393   6.949
10533TIP3    H231522   4.241   0.418   6.808
10534TIP3   OH231523   7.328   4.796   0.120
10534TIP3    H131524   7.290   4.727   0.065
10534TIP3    H231525   7.412   4.816   0.078
10535TIP3   OH231526   7.451   4.918   0.329
10535TIP3    H131527   7.399   4.865   0.269
10535TIP3    H231528   7.469   4.998   0.281
10536TIP3   OH231529   5.627   4.590   0.596
10536TIP3    H131530   5.622   4.600   0.501
10536TIP3    H231531   5.716   4.616   0.618
10537TIP3   OH231532   3.950   1.597   6.816
10537TIP3    H131533   4.004   1.584   6.738
10537TIP3    H231534   3.993   1.669   6.862
10538TIP3   OH231535   6.297   5.628   0.437
10538TIP3    H131536   6.210   5.651   0.406
10538TIP3    H231537   6.356   5.671   0.375
10539TIP3   OH231538   6.789   5.821   0.670
10539TIP3    H131539   6.769   5.914   0.682
10539TIP3    H231540   6.849   5.818   0.596
10540TIP3   OH231541   6.838   5.998   0.454
10540TIP3    H131542   6.927   5.982   0.424
10540TIP3    H231543   6.848   6.058   0.528
10541TIP3   OH231544   5.909   5.995   0.463
10541TIP3    H131545   5.839   5.941   0.426
10541TIP3    H231546   5.890   5.999   0.556
10542TIP3   OH231547   6.148   5.923   0.345
10542TIP3    H131548   6.066   5.944   0.390
10542TIP3    H231549   6.123   5.910   0.254
10543TIP3   OH231550   6.550   5.919   0.086
10543TIP3    H131551   6.482   5.897   0.022
10543TIP3    H231552   6.508   5.981   0.145
10544TIP3   OH231553   6.793   5.835   0.173
10544TIP3    H131554   6.709   5.864   0.138
10544TIP3    H231555   6.856   5.900   0.141
10545TIP3   OH231556   7.004   6.001   0.092
10545TIP3    H131557   6.997   6.086   0.049
10545TIP3    H231558   7.031   5.941   0.023
10546TIP3   OH231559   5.812   5.677   0.144
10546TIP3    H131560   5.778   5.617   0.211
10546TIP3    H231561   5.892   5.635   0.113
10547TIP3   OH231562   6.014   5.515   0.055
10547TIP3    H131563   6.025   5.443   0.116
10547TIP3    H231564   6.098   5.561   0.057
10548TIP3   OH231565   6.273   5.613   0.074
10548TIP3    H131566   6.301   5.522   0.064
10548TIP3    H231567   6.335   5.650   0.137
10549TIP3   OH231568   2.597   1.255   6.884
10549TIP3    H131569   2.513   1.223   6.852
10549TIP3    H231570   2.601   1.346   6.852
10550TIP3   OH231571   3.396   1.406   6.483
10550TIP3    H131572   3.479   1.434   6.444
10550TIP3    H231573   3.366   1.334   6.427
10551TIP3   OH231574   4.098   1.546   6.585
10551TIP3    H131575   4.092   1.451   6.576
10551TIP3    H231576   4.054   1.580   6.507
10552TIP3   OH231577   2.704   1.250   6.541
10552TIP3    H131578   2.711   1.270   6.634
10552TIP3    H231579   2.785   1.203   6.520
10553TIP3   OH231580   7.293   5.890   0.452
10553TIP3    H131581   7.209   5.862   0.416
10553TIP3    H231582   7.285   5.985   0.461
10554TIP3   OH231583   5.586   1.112   6.534
10554TIP3    H131584   5.541   1.188   6.497
10554TIP3    H231585   5.520   1.042   6.532
10555TIP3   OH231586   5.579   1.078   6.953
10555TIP3    H131587   5.644   1.049   7.017
10555TIP3    H231588   5.529   0.999   6.931
10556TIP3   OH231589   4.893   0.944   7.247
10556TIP3    H131590   4.906   0.886   7.322
10556TIP3    H231591   4.980   0.957   7.211
10557TIP3   OH231592   5.852   1.386   6.613
10557TIP3    H131593   5.825   1.324   6.681
10557TIP3    H231594   5.873   1.466   6.661
10558TIP3   OH231595   4.874   1.365   6.978
10558TIP3    H131596   4.858   1.270   6.978
10558TIP3    H231597   4.969   1.373   6.968
10559TIP3   OH231598   4.554   0.618   6.801
10559TIP3    H131599   4.510   0.702   6.813
10559TIP3    H231600   4.485   0.557   6.776
10560TIP3   OH231601   4.635   0.866   6.975
10560TIP3    H131602   4.677   0.786   7.005
10560TIP3    H231603   4.706   0.916   6.934
10561TIP3   OH231604   5.521   1.801   6.638
10561TIP3    H131605   5.544   1.738   6.570
10561TIP3    H231606   5.531   1.752   6.720
10562TIP3   OH231607   5.391   1.298   6.938
10562TIP3    H131608   5.434   1.215   6.915
10562TIP3    H231609   5.463   1.356   6.964
10563TIP3   OH231610   5.830   0.757   6.987
10563TIP3    H131611   5.895   0.689   6.969
10563TIP3    H231612   5.766   0.749   6.916
10564TIP3   OH231613   5.925   0.713   6.656
10564TIP3    H131614   5.946   0.661   6.733
10564TIP3    H231615   5.870   0.656   6.602
10565TIP3   OH231616   4.773   0.643   7.070
10565TIP3    H131617   4.861   0.629   7.105
10565TIP3    H231618   4.770   0.588   6.992
10566TIP3   OH231619   5.196   0.862   6.883
10566TIP3    H131620   5.289   0.845   6.891
10566TIP3    H231621   5.158   0.779   6.855
10567TIP3   OH231622   6.535   0.925   7.151
10567TIP3    H131623   6.442   0.946   7.149
10567TIP3    H231624   6.541   0.840   7.106
10568TIP3   OH231625   5.448   1.295   6.389
10568TIP3    H131626   5.424   1.273   6.299
10568TIP3    H231627   5.405   1.379   6.405
10569TIP3   OH231628   5.245   1.217   7.156
10569TIP3    H131629   5.186   1.286   7.187
10569TIP3    H231630   5.288   1.255   7.080
10570TIP3   OH231631   5.034   0.583   7.136
10570TIP3    H131632   5.092   0.631   7.195
10570TIP3    H231633   5.091   0.554   7.065
10571TIP3   OH231634   5.081   1.419   7.247
10571TIP3    H131635   5.069   1.510   7.219
10571TIP3    H231636   4.999   1.396   7.290
10572TIP3   OH231637   4.453   1.128   6.509
10572TIP3    H131638   4.422   1.146   6.421
10572TIP3    H231639   4.477   1.214   6.544
10573TIP3   OH231640   5.889   1.635   6.754
10573TIP3    H131641   5.799   1.628   6.787
10573TIP3    H231642   5.889   1.717   6.704
10574TIP3   OH231643   5.604   1.651   6.420
10574TIP3    H131644   5.641   1.564   6.404
10574TIP3    H231645   5.676   1.711   6.401
10575TIP3   OH231646   5.755   1.436   6.359
10575TIP3    H131647   5.760   1.359   6.302
10575TIP3    H231648   5.794   1.408   6.441
10576TIP3   OH231649   6.135   1.506   7.094
10576TIP3    H131650   6.112   1.434   7.036
10576TIP3    H231651   6.123   1.585   7.041
10577TIP3   OH231652   5.404   0.946   6.358
10577TIP3    H131653   5.324   0.993   6.336
10577TIP3    H231654   5.458   0.952   6.278
10578TIP3   OH231655   5.335   0.772   6.098
10578TIP3    H131656   5.332   0.764   6.193
10578TIP3    H231657   5.428   0.772   6.076
10579TIP3   OH231658   6.302   1.174   6.932
10579TIP3    H131659   6.215   1.214   6.932
10579TIP3    H231660   6.343   1.206   6.851
10580TIP3   OH231661   5.757   1.075   6.324
10580TIP3    H131662   5.701   1.094   6.399
10580TIP3    H231663   5.831   1.027   6.361
10581TIP3   OH231664   6.003   1.046   7.248
10581TIP3    H131665   5.986   1.129   7.293
10581TIP3    H231666   5.924   1.029   7.197
10582TIP3   OH231667   4.998   0.989   6.738
10582TIP3    H131668   4.966   0.928   6.672
10582TIP3    H231669   5.071   0.943   6.780
10583TIP3   OH231670   5.136   1.413   6.873
10583TIP3    H131671   5.111   1.394   6.782
10583TIP3    H231672   5.223   1.372   6.882
10584TIP3   OH231673   5.134   0.967   7.128
10584TIP3    H131674   5.159   0.937   7.041
10584TIP3    H231675   5.176   1.053   7.137
10585TIP3   OH231676   5.643   1.631   6.877
10585TIP3    H131677   5.641   1.704   6.939
10585TIP3    H231678   5.635   1.553   6.931
10586TIP3   OH231679   8.247   5.704   0.155
10586TIP3    H131680   8.184   5.762   0.199
10586TIP3    H231681   8.194   5.648   0.099
10587TIP3   OH231682   5.595   0.932   6.156
10587TIP3    H131683   5.652   0.992   6.203
10587TIP3    H231684   5.628   0.933   6.066
10588TIP3   OH231685   8.028   5.266   0.235
10588TIP3    H131686   8.038   5.360   0.247
10588TIP3    H231687   7.933   5.251   0.240
10589TIP3   OH231688   5.344   1.552   6.410
10589TIP3    H131689   5.430   1.592   6.419
10589TIP3    H231690   5.296   1.611   6.352
10590TIP3   OH231691   8.043   5.872   0.230
10590TIP3    H131692   8.017   5.879   0.138
10590TIP3    H231693   7.962   5.852   0.277
10591TIP3   OH231694   4.878   0.831   6.533
10591TIP3    H131695   4.796   0.871   6.504
10591TIP3    H231696   4.853   0.746   6.567
10592TIP3   OH231697   5.938   1.468   5.758
10592TIP3    H131698   5.924   1.512   5.675
10592TIP3    H231699   6.029   1.437   5.754
10593TIP3   OH231700   7.640   5.440   0.189
10593TIP3    H131701   7.576   5.413   0.124
10593TIP3    H231702   7.685   5.360   0.213
10594TIP3   OH231703   4.536   1.415   7.099
10594TIP3    H131704   4.629   1.401   7.078
10594TIP3    H231705   4.535   1.496   7.150
10595TIP3   OH231706   6.362   1.891   7.161
10595TIP3    H131707   6.368   1.796   7.169
10595TIP3    H231708   6.282   1.914   7.209
10596TIP3   OH231709   8.431   5.855   0.018
10596TIP3    H131710   8.421   5.945   0.050
10596TIP3    H231711   8.365   5.806   0.067
10597TIP3   OH231712   5.241   1.754   6.231
10597TIP3    H131713   5.221   1.735   6.140
10597TIP3    H231714   5.193   1.835   6.250
10598TIP3   OH231715   4.678   1.614   6.621
10598TIP3    H131716   4.723   1.605   6.705
10598TIP3    H231717   4.628   1.533   6.612
10599TIP3   OH231718   5.496   1.857   6.245
10599TIP3    H131719   5.410   1.817   6.230
10599TIP3    H231720   5.552   1.784   6.271
10600TIP3   OH231721   0.301   5.179   0.175
10600TIP3    H131722   0.249   5.227   0.111
10600TIP3    H231723   0.267   5.090   0.173
10601TIP3   OH231724   7.818   5.639   0.138
10601TIP3    H131725   7.883   5.626   0.207
10601TIP3    H231726   7.754   5.569   0.153
10602TIP3   OH231727   0.079   5.009   0.144
10602TIP3    H131728   0.048   5.060   0.219
10602TIP3    H231729   0.064   5.067   0.068
10603TIP3   OH231730   5.693   0.904   5.902
10603TIP3    H131731   5.637   0.904   5.824
10603TIP3    H231732   5.777   0.936   5.871
10604TIP3   OH231733   8.158   4.947   0.028
10604TIP3    H131734   8.090   4.953   0.095
10604TIP3    H231735   8.146   5.026  -0.025
10605TIP3   OH231736   5.046   0.656   6.783
10605TIP3    H131737   4.964   0.612   6.806
10605TIP3    H231738   5.064   0.628   6.694
10606TIP3   OH231739   5.549   0.796   6.531
10606TIP3    H131740   5.486   0.846   6.479
10606TIP3    H231741   5.623   0.783   6.472
10607TIP3   OH231742   8.689   5.168   0.310
10607TIP3    H131743   8.658   5.115   0.383
10607TIP3    H231744   8.782   5.183   0.329
10608TIP3   OH231745   5.656   0.726   6.772
10608TIP3    H131746   5.614   0.773   6.701
10608TIP3    H231747   5.700   0.652   6.730
10609TIP3   OH231748   7.941   4.976   0.197
10609TIP3    H131749   7.946   5.048   0.260
10609TIP3    H231750   7.866   4.924   0.226
10610TIP3   OH231751   4.596   0.383   6.618
10610TIP3    H131752   4.606   0.418   6.529
10610TIP3    H231753   4.507   0.407   6.643
10611TIP3   OH231754   5.751   0.963   7.145
10611TIP3    H131755   5.784   0.895   7.087
10611TIP3    H231756   5.708   0.915   7.216
10612TIP3   OH231757   4.806   0.518   6.813
10612TIP3    H131758   4.718   0.554   6.802
10612TIP3    H231759   4.799   0.429   6.779
10613TIP3   OH231760   5.056   0.549   6.524
10613TIP3    H131761   5.059   0.458   6.553
10613TIP3    H231762   4.996   0.549   6.449
10614TIP3   OH231763   4.909   0.557   6.284
10614TIP3    H131764   4.823   0.559   6.242
10614TIP3    H231765   4.967   0.602   6.222
10615TIP3   OH231766   6.071   2.219   7.255
10615TIP3    H131767   6.071   2.229   7.160
10615TIP3    H231768   6.150   2.264   7.283
10616TIP3   OH231769   8.024   5.531   0.318
10616TIP3    H131770   8.095   5.550   0.379
10616TIP3    H231771   7.952   5.500   0.374
10617TIP3   OH231772   5.462   0.823   6.941
10617TIP3    H131773   5.528   0.776   6.890
10617TIP3    H231774   5.461   0.779   7.026
10618TIP3   OH231775   5.451   0.718   7.194
10618TIP3    H131776   5.367   0.724   7.238
10618TIP3    H231777   5.514   0.753   7.257
10619TIP3   OH231778   5.159   1.078   6.297
10619TIP3    H131779   5.092   1.012   6.281
10619TIP3    H231780   5.143   1.108   6.386
10620TIP3   OH231781   6.063   1.313   6.913
10620TIP3    H131782   6.095   1.362   6.836
10620TIP3    H231783   5.977   1.280   6.886
10621TIP3   OH231784   5.649   0.321   6.150
10621TIP3    H131785   5.573   0.269   6.177
10621TIP3    H231786   5.699   0.334   6.231
10622TIP3   OH231787   8.565   5.594   0.046
10622TIP3    H131788   8.607   5.578   0.131
10622TIP3    H231789   8.519   5.677   0.057
10623TIP3   OH231790   5.722   0.749   6.326
10623TIP3    H131791   5.699   0.659   6.303
10623TIP3    H231792   5.681   0.802   6.258
10624TIP3   OH231793   4.869   1.086   6.963
10624TIP3    H131794   4.914   1.058   6.883
10624TIP3    H231795   4.911   1.036   7.033
10625TIP3   OH231796   5.332   1.220   6.143
10625TIP3    H131797   5.289   1.305   6.138
10625TIP3    H231798   5.273   1.165   6.194
10626TIP3   OH231799   7.759   5.209   0.276
10626TIP3    H131800   7.758   5.194   0.371
10626TIP3    H231801   7.681   5.164   0.243
10627TIP3   OH231802   8.468   5.340   0.343
10627TIP3    H131803   8.396   5.284   0.314
10627TIP3    H231804   8.547   5.296   0.310
10628TIP3   OH231805   5.733   1.686   7.204
10628TIP3    H131806   5.640   1.666   7.209
10628TIP3    H231807   5.755   1.722   7.290
10629TIP3   OH231808   6.094   0.806   6.152
10629TIP3    H131809   6.057   0.755   6.080
10629TIP3    H231810   6.125   0.887   6.110
10630TIP3   OH231811   6.377   1.617   7.181
10630TIP3    H131812   6.286   1.588   7.187
10630TIP3    H231813   6.407   1.581   7.098
10631TIP3   OH231814   5.868   1.539   6.028
10631TIP3    H131815   5.838   1.469   6.085
10631TIP3    H231816   5.886   1.497   5.944
10632TIP3   OH231817   5.811   1.205   6.832
10632TIP3    H131818   5.721   1.177   6.850
10632TIP3    H231819   5.853   1.128   6.795
10633TIP3   OH231820   4.996   1.410   6.628
10633TIP3    H131821   4.995   1.485   6.569
10633TIP3    H231822   4.904   1.390   6.643
10634TIP3   OH231823   4.523   0.718   6.330
10634TIP3    H131824   4.576   0.795   6.354
10634TIP3    H231825   4.448   0.721   6.389
10635TIP3   OH231826   5.086   1.164   6.540
10635TIP3    H131827   5.070   1.253   6.570
10635TIP3    H231828   5.059   1.109   6.614
10636TIP3   OH231829   5.282   1.731   7.079
10636TIP3    H131830   5.321   1.802   7.028
10636TIP3    H231831   5.355   1.695   7.129
10637TIP3   OH231832   4.910   1.632   6.473
10637TIP3    H131833   4.823   1.635   6.513
10637TIP3    H231834   4.941   1.723   6.477
10638TIP3   OH231835   5.633   1.402   7.038
10638TIP3    H131836   5.625   1.393   7.133
10638TIP3    H231837   5.699   1.338   7.013
10639TIP3   OH231838   5.626   1.270   5.911
10639TIP3    H131839   5.675   1.265   5.994
10639TIP3    H231840   5.540   1.234   5.932
10640TIP3   OH231841   5.894   1.889   7.094
10640TIP3    H131842   5.825   1.826   7.116
10640TIP3    H231843   5.855   1.944   7.026
10641TIP3   OH231844   5.932   1.835   5.745
10641TIP3    H131845   5.935   1.851   5.650
10641TIP3    H231846   5.878   1.757   5.755
10642TIP3   OH231847   5.801   1.256   6.127
10642TIP3    H131848   5.781   1.190   6.193
10642TIP3    H231849   5.894   1.245   6.109
10643TIP3   OH231850   7.665   5.824  -0.020
10643TIP3    H131851   7.721   5.762   0.027
10643TIP3    H231852   7.688   5.909   0.017
10644TIP3   OH231853   4.975   1.255   5.936
10644TIP3    H131854   4.987   1.164   5.908
10644TIP3    H231855   4.961   1.249   6.031
10645TIP3   OH231856   4.924   1.256   6.208
10645TIP3    H131857   5.000   1.223   6.257
10645TIP3    H231858   4.929   1.351   6.218
10646TIP3   OH231859   4.649   0.948   6.424
10646TIP3    H131860   4.585   0.998   6.475
10646TIP3    H231861   4.674   1.007   6.352
10647TIP3   OH231862   5.196   1.451   6.133
10647TIP3    H131863   5.113   1.477   6.173
10647TIP3    H231864   5.223   1.527   6.083
10648TIP3   OH231865   5.430   0.548   6.530
10648TIP3    H131866   5.481   0.628   6.546
10648TIP3    H231867   5.384   0.533   6.612
10649TIP3   OH231868   8.624   5.009   0.093
10649TIP3    H131869   8.634   5.071   0.166
10649TIP3    H231870   8.686   4.939   0.113
10650TIP3   OH231871   4.948   1.530   6.221
10650TIP3    H131872   4.933   1.604   6.161
10650TIP3    H231873   4.934   1.567   6.308
10651TIP3   OH231874   5.925   0.973   6.745
10651TIP3    H131875   5.885   0.887   6.727
10651TIP3    H231876   5.999   0.953   6.802
10652TIP3   OH231877   4.678   1.126   6.208
10652TIP3    H131878   4.750   1.188   6.218
10652TIP3    H231879   4.708   1.063   6.144
10653TIP3   OH231880   4.598   0.456   6.345
10653TIP3    H131881   4.574   0.548   6.335
10653TIP3    H231882   4.515   0.409   6.349
10654TIP3   OH231883   5.909   1.904   6.666
10654TIP3    H131884   5.865   1.951   6.595
10654TIP3    H231885   6.002   1.923   6.652
10655TIP3   OH231886   4.502   1.396   6.592
10655TIP3    H131887   4.456   1.430   6.669
10655TIP3    H231888   4.457   1.437   6.518
10656TIP3   OH231889   7.674   6.118   0.359
10656TIP3    H131890   7.755   6.111   0.411
10656TIP3    H231891   7.639   6.029   0.358
10657TIP3   OH231892   8.153   6.011   0.434
10657TIP3    H131893   8.247   5.991   0.438
10657TIP3    H231894   8.123   5.970   0.353
10658TIP3   OH231895   5.137   1.454   5.829
10658TIP3    H131896   5.089   1.387   5.878
10658TIP3    H231897   5.207   1.406   5.786
10659TIP3   OH231898   8.753   5.984   0.185
10659TIP3    H131899   8.758   5.910   0.245
10659TIP3    H231900   8.830   6.036   0.204
10660TIP3   OH231901   5.560   1.459   5.720
10660TIP3    H131902   5.595   1.405   5.791
10660TIP3    H231903   5.626   1.454   5.651
10661TIP3   OH231904   7.811   5.486   0.481
10661TIP3    H131905   7.856   5.550   0.536
10661TIP3    H231906   7.729   5.528   0.457
10662TIP3   OH231907   4.798   0.938   6.053
10662TIP3    H131908   4.849   0.913   6.130
10662TIP3    H231909   4.864   0.956   5.986
10663TIP3   OH231910   8.414   5.612   0.354
10663TIP3    H131911   8.363   5.630   0.275
10663TIP3    H231912   8.445   5.522   0.343
10664TIP3   OH231913   5.348   1.170   5.875
10664TIP3    H131914   5.335   1.181   5.970
10664TIP3    H231915   5.332   1.076   5.861
10665TIP3   OH231916   5.905   1.463   7.248
10665TIP3    H131917   5.982   1.487   7.197
10665TIP3    H231918   5.839   1.528   7.224
10666TIP3   OH231919   7.964   5.162   0.542
10666TIP3    H131920   8.049   5.122   0.527
10666TIP3    H231921   7.984   5.247   0.583
10667TIP3   OH231922   4.965   0.883   6.270
10667TIP3    H131923   4.948   0.857   6.360
10667TIP3    H231924   5.009   0.808   6.231
10668TIP3   OH231925   8.280   5.160   0.245
10668TIP3    H131926   8.189   5.191   0.241
10668TIP3    H231927   8.316   5.182   0.159
10669TIP3   OH231928   5.070   0.685   6.105
10669TIP3    H131929   5.054   0.693   6.011
10669TIP3    H231930   5.163   0.706   6.116
10670TIP3   OH231931   8.754   5.524   0.327
10670TIP3    H131932   8.823   5.493   0.268
10670TIP3    H231933   8.761   5.468   0.404
10671TIP3   OH231934   5.917   0.994   5.772
10671TIP3    H131935   5.933   0.932   5.701
10671TIP3    H231936   5.879   1.070   5.728
10672TIP3   OH231937   8.353   4.930   0.365
10672TIP3    H131938   8.336   4.859   0.303
10672TIP3    H231939   8.331   5.009   0.317
10673TIP3   OH231940   5.428   1.057   7.285
10673TIP3    H131941   5.508   1.067   7.234
10673TIP3    H231942   5.366   1.117   7.244
10674TIP3   OH231943   0.058   5.191   0.374
10674TIP3    H131944   0.085   5.148   0.455
10674TIP3    H231945   0.133   5.245   0.350
10675TIP3   OH231946   0.078   5.479   0.152
10675TIP3    H131947   0.026   5.541   0.101
10675TIP3    H231948   0.167   5.490   0.119
10676TIP3   OH231949   8.224   5.055   0.576
10676TIP3    H131950   8.204   4.985   0.637
10676TIP3    H231951   8.263   5.011   0.500
10677TIP3   OH231952   8.581   5.009   0.504
10677TIP3    H131953   8.561   4.995   0.596
10677TIP3    H231954   8.506   4.972   0.457
10678TIP3   OH231955   4.964   1.741   6.038
10678TIP3    H131956   5.051   1.721   6.004
10678TIP3    H231957   4.917   1.779   5.964
10679TIP3   OH231958   4.403   1.124   6.219
10679TIP3    H131959   4.499   1.134   6.217
10679TIP3    H231960   4.388   1.038   6.180
10680TIP3   OH231961   4.301   1.702   6.680
10680TIP3    H131962   4.237   1.648   6.635
10680TIP3    H231963   4.346   1.642   6.740
10681TIP3   OH231964   4.447   1.537   6.847
10681TIP3    H131965   4.438   1.468   6.913
10681TIP3    H231966   4.497   1.605   6.892
10682TIP3   OH231967   6.170   1.986   6.652
10682TIP3    H131968   6.203   1.986   6.742
10682TIP3    H231969   6.247   1.999   6.598
10683TIP3   OH231970   6.213   1.966   6.933
10683TIP3    H131971   6.165   1.883   6.926
10683TIP3    H231972   6.280   1.950   6.999
10684TIP3   OH231973   0.316   5.866   0.258
10684TIP3    H131974   0.245   5.877   0.321
10684TIP3    H231975   0.363   5.950   0.259
10685TIP3   OH231976   6.072   1.223   6.102
10685TIP3    H131977   6.144   1.279   6.072
10685TIP3    H231978   6.092   1.207   6.194
10686TIP3   OH231979   6.114   1.157   6.363
10686TIP3    H131980   6.055   1.093   6.403
10686TIP3    H231981   6.201   1.132   6.394
10687TIP3   OH231982   6.246   1.452   6.749
10687TIP3    H131983   6.298   1.382   6.709
10687TIP3    H231984   6.252   1.525   6.687
10688TIP3   OH231985   6.066   1.730   6.946
10688TIP3    H131986   6.000   1.776   6.997
10688TIP3    H231987   6.017   1.691   6.874
10689TIP3   OH231988   6.120   0.998   5.950
10689TIP3    H131989   6.045   1.002   5.891
10689TIP3    H231990   6.113   1.077   6.003
10690TIP3   OH231991   6.052   0.679   5.908
10690TIP3    H131992   6.073   0.754   5.852
10690TIP3    H231993   6.131   0.625   5.906
10691TIP3   OH231994   5.957   0.944   6.464
10691TIP3    H131995   5.934   0.852   6.457
10691TIP3    H231996   5.944   0.965   6.556
10692TIP3   OH231997   4.634   1.012   7.204
10692TIP3    H131998   4.617   0.963   7.124
10692TIP3    H231999   4.728   1.000   7.220
10693TIP3   OH232000   0.323   5.521   0.040
10693TIP3    H132001   0.399   5.463   0.035
10693TIP3    H232002   0.320   5.563  -0.046
10694TIP3   OH232003   0.516   5.339   0.095
10694TIP3    H132004   0.454   5.268   0.111
10694TIP3    H232005   0.602   5.299   0.105
10695TIP3   OH232006   6.030   0.646   6.374
10695TIP3    H132007   6.080   0.570   6.344
10695TIP3    H232008   6.033   0.707   6.300
10696TIP3   OH232009   6.139   0.875   6.883
10696TIP3    H132010   6.192   0.842   6.811
10696TIP3    H232011   6.195   0.868   6.960
10697TIP3   OH232012   6.260   0.985   7.127
10697TIP3    H132013   6.169   0.994   7.153
10697TIP3    H232014   6.271   1.049   7.057
10698TIP3   OH232015   7.819   4.880   0.599
10698TIP3    H132016   7.871   4.816   0.648
10698TIP3    H232017   7.732   4.840   0.593
10699TIP3   OH232018   7.578   4.867   0.031
10699TIP3    H132019   7.625   4.854  -0.051
10699TIP3    H232020   7.644   4.853   0.099
10700TIP3   OH232021   5.792   1.822   6.334
10700TIP3    H132022   5.837   1.820   6.249
10700TIP3    H232023   5.817   1.907   6.372
10701TIP3   OH232024   7.822   5.827   0.386
10701TIP3    H132025   7.731   5.829   0.358
10701TIP3    H232026   7.818   5.830   0.482
10702TIP3   OH232027   5.052   1.696   7.221
10702TIP3    H132028   5.002   1.771   7.190
10702TIP3    H232029   5.137   1.703   7.178
10703TIP3   OH232030   8.414   6.120   0.103
10703TIP3    H132031   8.453   6.113   0.190
10703TIP3    H232032   8.475   6.174   0.054
10704TIP3   OH232033   5.634   2.082   7.240
10704TIP3    H132034   5.690   2.023   7.189
10704TIP3    H232035   5.694   2.134   7.292
10705TIP3   OH232036   7.681   6.128   0.004
10705TIP3    H132037   7.590   6.148  -0.019
10705TIP3    H232038   7.706   6.196   0.067
10706TIP3   OH232039   4.945   1.929   7.122
10706TIP3    H132040   4.861   1.930   7.169
10706TIP3    H232041   4.922   1.949   7.032
10707TIP3   OH232042   5.358   1.944   6.917
10707TIP3    H132043   5.286   1.952   6.855
10707TIP3    H232044   5.363   2.029   6.960
10708TIP3   OH232045   5.623   1.894   6.978
10708TIP3    H132046   5.532   1.905   6.951
10708TIP3    H232047   5.672   1.956   6.924
10709TIP3   OH232048   5.828   2.063   6.874
10709TIP3    H132049   5.825   2.148   6.831
10709TIP3    H232050   5.856   2.003   6.804
10710TIP3   OH232051   4.625   1.715   6.995
10710TIP3    H132052   4.651   1.691   7.084
10710TIP3    H232053   4.695   1.682   6.940
10711TIP3   OH232054   4.827   1.603   6.854
10711TIP3    H132055   4.838   1.518   6.897
10711TIP3    H232056   4.914   1.642   6.855
10712TIP3   OH232057   5.096   1.688   6.875
10712TIP3    H132058   5.113   1.595   6.858
10712TIP3    H232059   5.151   1.709   6.950
10713TIP3   OH232060   4.382   1.512   6.373
10713TIP3    H132061   4.298   1.480   6.339
10713TIP3    H232062   4.386   1.603   6.343
10714TIP3   OH232063   5.224   1.682   5.957
10714TIP3    H132064   5.292   1.725   5.906
10714TIP3    H232065   5.197   1.607   5.902
10715TIP3   OH232066   5.876   1.808   6.063
10715TIP3    H132067   5.882   1.713   6.057
10715TIP3    H232068   5.787   1.829   6.035
10716TIP3   OH232069   4.495   1.500   6.027
10716TIP3    H132070   4.495   1.506   6.123
10716TIP3    H232071   4.577   1.456   6.006
10717TIP3   OH232072   6.110   1.945   7.262
10717TIP3    H132073   6.037   1.914   7.208
10717TIP3    H232074   6.095   2.039   7.271
10718TIP3   OH232075   7.367   1.329   6.019
10718TIP3    H132076   7.342   1.416   5.989
10718TIP3    H232077   7.289   1.275   6.002
10719TIP3   OH232078   7.364   1.372   6.392
10719TIP3    H132079   7.412   1.369   6.474
10719TIP3    H232080   7.317   1.288   6.389
10720TIP3   OH232081   6.673   1.219   6.778
10720TIP3    H132082   6.702   1.161   6.848
10720TIP3    H232083   6.751   1.233   6.724
10721TIP3   OH232084   7.658   1.647   6.091
10721TIP3    H132085   7.638   1.586   6.162
10721TIP3    H232086   7.680   1.729   6.135
10722TIP3   OH232087   6.670   1.638   6.476
10722TIP3    H132088   6.656   1.544   6.477
10722TIP3    H232089   6.764   1.648   6.462
10723TIP3   OH232090   6.248   0.900   6.373
10723TIP3    H132091   6.307   0.935   6.307
10723TIP3    H232092   6.164   0.889   6.327
10724TIP3   OH232093   6.462   1.148   6.440
10724TIP3    H132094   6.498   1.068   6.479
10724TIP3    H232095   6.448   1.126   6.348
10725TIP3   OH232096   7.313   2.059   6.116
10725TIP3    H132097   7.338   1.998   6.046
10725TIP3    H232098   7.322   2.008   6.196
10726TIP3   OH232099   7.183   1.581   6.428
10726TIP3    H132100   7.225   1.504   6.390
10726TIP3    H232101   7.255   1.633   6.465
10727TIP3   OH232102   7.547   1.109   6.470
10727TIP3    H132103   7.600   1.030   6.469
10727TIP3    H232104   7.500   1.109   6.387
10728TIP3   OH232105   7.684   0.965   6.076
10728TIP3    H132106   7.647   0.877   6.079
10728TIP3    H232107   7.648   1.004   5.997
10729TIP3   OH232108   6.593   0.934   6.583
10729TIP3    H132109   6.632   0.863   6.633
10729TIP3    H232110   6.608   0.911   6.492
10730TIP3   OH232111   6.966   1.174   6.367
10730TIP3    H132112   7.060   1.170   6.384
10730TIP3    H232113   6.945   1.088   6.329
10731TIP3   OH232114   8.304   1.214   6.658
10731TIP3    H132115   8.210   1.211   6.642
10731TIP3    H232116   8.336   1.128   6.632
10732TIP3   OH232117   7.280   1.546   5.870
10732TIP3    H132118   7.245   1.521   5.785
10732TIP3    H232119   7.230   1.624   5.895
10733TIP3   OH232120   7.036   1.489   6.646
10733TIP3    H132121   6.977   1.556   6.677
10733TIP3    H232122   7.079   1.528   6.569
10734TIP3   OH232123   6.727   0.675   6.627
10734TIP3    H132124   6.757   0.732   6.698
10734TIP3    H232125   6.807   0.637   6.592
10735TIP3   OH232126   6.869   1.682   6.748
10735TIP3    H132127   6.853   1.771   6.719
10735TIP3    H232128   6.791   1.658   6.797
10736TIP3   OH232129   6.262   1.383   5.981
10736TIP3    H132130   6.231   1.400   5.892
10736TIP3    H232131   6.304   1.465   6.007
10737TIP3   OH232132   7.690   1.884   6.238
10737TIP3    H132133   7.603   1.876   6.277
10737TIP3    H232134   7.688   1.969   6.193
10738TIP3   OH232135   7.395   1.917   5.892
10738TIP3    H132136   7.446   1.837   5.881
10738TIP3    H232137   7.453   1.987   5.863
10739TIP3   OH232138   7.526   1.684   5.853
10739TIP3    H132139   7.457   1.618   5.855
10739TIP3    H232140   7.583   1.663   5.927
10740TIP3   OH232141   7.919   1.773   6.584
10740TIP3    H132142   7.903   1.701   6.524
10740TIP3    H232143   7.912   1.852   6.530
10741TIP3   OH232144   7.174   1.193   5.801
10741TIP3    H132145   7.102   1.256   5.794
10741TIP3    H232146   7.241   1.228   5.743
10742TIP3   OH232147   7.134   1.029   5.573
10742TIP3    H132148   7.151   1.079   5.653
10742TIP3    H232149   7.222   1.009   5.539
10743TIP3   OH232150   8.095   1.457   6.424
10743TIP3    H132151   8.009   1.499   6.419
10743TIP3    H232152   8.133   1.470   6.337
10744TIP3   OH232153   7.564   1.330   5.820
10744TIP3    H132154   7.504   1.333   5.895
10744TIP3    H232155   7.649   1.307   5.858
10745TIP3   OH232156   7.785   1.355   6.714
10745TIP3    H132157   7.792   1.416   6.788
10745TIP3    H232158   7.700   1.375   6.675
10746TIP3   OH232159   6.767   1.283   6.216
10746TIP3    H132160   6.740   1.217   6.152
10746TIP3    H232161   6.838   1.242   6.265
10747TIP3   OH232162   6.927   1.679   6.362
10747TIP3    H132163   6.904   1.658   6.272
10747TIP3    H232164   7.015   1.643   6.373
10748TIP3   OH232165   6.910   1.243   6.630
10748TIP3    H132166   6.913   1.227   6.535
10748TIP3    H232167   6.948   1.331   6.640
10749TIP3   OH232168   7.450   1.874   6.369
10749TIP3    H132169   7.439   1.954   6.421
10749TIP3    H232170   7.440   1.803   6.433
10750TIP3   OH232171   7.070   1.772   6.916
10750TIP3    H132172   7.010   1.830   6.962
10750TIP3    H232173   7.015   1.721   6.857
10751TIP3   OH232174   7.390   1.214   5.638
10751TIP3    H132175   7.456   1.257   5.692
10751TIP3    H232176   7.431   1.203   5.552
10752TIP3   OH232177   6.831   1.340   7.036
10752TIP3    H132178   6.837   1.428   7.074
10752TIP3    H232179   6.738   1.329   7.015
10753TIP3   OH232180   7.150   1.790   5.899
10753TIP3    H132181   7.231   1.842   5.905
10753TIP3    H232182   7.090   1.845   5.848
10754TIP3   OH232183   6.861   1.933   6.998
10754TIP3    H132184   6.836   1.943   6.906
10754TIP3    H232185   6.779   1.917   7.044
10755TIP3   OH232186   6.680   1.112   6.013
10755TIP3    H132187   6.621   1.159   5.953
10755TIP3    H232188   6.622   1.059   6.067
10756TIP3   OH232189   7.740   1.713   5.251
10756TIP3    H132190   7.736   1.807   5.231
10756TIP3    H232191   7.831   1.689   5.235
10757TIP3   OH232192   6.447   1.495   6.947
10757TIP3    H132193   6.379   1.472   6.884
10757TIP3    H232194   6.478   1.411   6.981
10758TIP3   OH232195   6.347   1.667   6.585
10758TIP3    H132196   6.430   1.636   6.549
10758TIP3    H232197   6.372   1.734   6.648
10759TIP3   OH232198   8.161   2.143   6.647
10759TIP3    H132199   8.166   2.048   6.655
10759TIP3    H232200   8.080   2.167   6.693
10760TIP3   OH232201   7.259   1.916   6.777
10760TIP3    H132202   7.248   2.007   6.806
10760TIP3    H232203   7.192   1.867   6.825
10761TIP3   OH232204   7.040   2.014   5.729
10761TIP3    H132205   6.995   1.997   5.646
10761TIP3    H232206   7.004   2.098   5.758
10762TIP3   OH232207   6.476   1.878   6.113
10762TIP3    H132208   6.522   1.871   6.197
10762TIP3    H232209   6.435   1.792   6.101
10763TIP3   OH232210   7.243   1.948   5.355
10763TIP3    H132211   7.295   1.877   5.318
10763TIP3    H232212   7.278   1.961   5.443
10764TIP3   OH232213   7.294   1.990   5.625
10764TIP3    H132214   7.208   1.992   5.667
10764TIP3    H232215   7.352   1.952   5.691
10765TIP3   OH232216   8.045   1.272   6.901
10765TIP3    H132217   8.048   1.248   6.808
10765TIP3    H232218   8.099   1.206   6.944
10766TIP3   OH232219   6.648   1.680   6.916
10766TIP3    H132220   6.700   1.667   6.996
10766TIP3    H232221   6.579   1.614   6.922
10767TIP3   OH232222   7.815   1.061   6.911
10767TIP3    H132223   7.824   1.155   6.930
10767TIP3    H232224   7.833   1.053   6.818
10768TIP3   OH232225   7.495   1.156   5.391
10768TIP3    H132226   7.441   1.170   5.314
10768TIP3    H232227   7.581   1.191   5.368
10769TIP3   OH232228   7.016   1.045   6.784
10769TIP3    H132229   7.033   1.084   6.870
10769TIP3    H232230   6.984   1.118   6.731
10770TIP3   OH232231   6.861   0.946   6.257
10770TIP3    H132232   6.771   0.921   6.276
10770TIP3    H232233   6.874   0.919   6.166
10771TIP3   OH232234   7.326   1.038   5.964
10771TIP3    H132235   7.266   1.084   5.906
10771TIP3    H232236   7.411   1.048   5.923
10772TIP3   OH232237   7.508   1.244   7.103
10772TIP3    H132238   7.490   1.171   7.163
10772TIP3    H232239   7.567   1.301   7.152
10773TIP3   OH232240   7.446   1.103   6.213
10773TIP3    H132241   7.419   1.180   6.163
10773TIP3    H232242   7.393   1.031   6.177
10774TIP3   OH232243   6.732   1.054   6.998
10774TIP3    H132244   6.778   1.114   7.056
10774TIP3    H232245   6.665   1.014   7.054
10775TIP3   OH232246   6.440   0.723   5.999
10775TIP3    H132247   6.448   0.817   6.015
10775TIP3    H232248   6.394   0.690   6.076
10776TIP3   OH232249   7.528   1.336   6.613
10776TIP3    H132250   7.547   1.262   6.555
10776TIP3    H232251   7.496   1.295   6.694
10777TIP3   OH232252   6.607   0.854   6.330
10777TIP3    H132253   6.548   0.898   6.269
10777TIP3    H232254   6.643   0.781   6.279
10778TIP3   OH232255   6.890   0.870   5.996
10778TIP3    H132256   6.948   0.816   5.942
10778TIP3    H232257   6.805   0.865   5.952
10779TIP3   OH232258   6.716   0.816   5.768
10779TIP3    H132259   6.629   0.824   5.729
10779TIP3    H232260   6.774   0.856   5.704
10780TIP3   OH232261   7.855   2.475   6.734
10780TIP3    H132262   7.852   2.488   6.639
10780TIP3    H232263   7.933   2.523   6.762
10781TIP3   OH232264   6.806   1.595   7.155
10781TIP3    H132265   6.887   1.610   7.204
10781TIP3    H232266   6.737   1.595   7.221
10782TIP3   OH232267   7.231   1.130   6.425
10782TIP3    H132268   7.232   1.061   6.359
10782TIP3    H232269   7.249   1.084   6.507
10783TIP3   OH232270   7.264   1.000   6.671
10783TIP3    H132271   7.174   1.008   6.702
10783TIP3    H232272   7.313   1.065   6.722
10784TIP3   OH232273   6.940   1.348   5.780
10784TIP3    H132274   6.877   1.277   5.769
10784TIP3    H232275   6.930   1.375   5.872
10785TIP3   OH232276   7.856   1.586   6.391
10785TIP3    H132277   7.888   1.636   6.316
10785TIP3    H232278   7.771   1.553   6.364
10786TIP3   OH232279   7.355   0.598   5.558
10786TIP3    H132280   7.277   0.649   5.536
10786TIP3    H232281   7.322   0.529   5.617
10787TIP3   OH232282   7.393   1.647   6.822
10787TIP3    H132283   7.445   1.633   6.901
10787TIP3    H232284   7.351   1.732   6.835
10788TIP3   OH232285   7.569   1.017   5.825
10788TIP3    H132286   7.508   0.964   5.775
10788TIP3    H232287   7.621   1.063   5.760
10789TIP3   OH232288   6.642   1.368   6.447
10789TIP3    H132289   6.687   1.348   6.365
10789TIP3    H232290   6.580   1.296   6.459
10790TIP3   OH232291   7.129   1.482   5.643
10790TIP3    H132292   7.092   1.571   5.636
10790TIP3    H232293   7.061   1.432   5.687
10791TIP3   OH232294   6.552   1.292   7.107
10791TIP3    H132295   6.604   1.293   7.188
10791TIP3    H232296   6.505   1.209   7.109
10792TIP3   OH232297   7.273   1.391   7.110
10792TIP3    H132298   7.204   1.330   7.081
10792TIP3    H232299   7.355   1.348   7.085
10793TIP3   OH232300   7.528   1.941   6.697
10793TIP3    H132301   7.434   1.923   6.701
10793TIP3    H232302   7.549   1.977   6.783
10794TIP3   OH232303   7.779   1.053   5.611
10794TIP3    H132304   7.769   0.976   5.556
10794TIP3    H232305   7.832   1.114   5.560
10795TIP3   OH232306   8.171   1.867   6.666
10795TIP3    H132307   8.081   1.837   6.679
10795TIP3    H232308   8.198   1.827   6.584
10796TIP3   OH232309   7.653   1.782   5.514
10796TIP3    H132310   7.628   1.707   5.568
10796TIP3    H232311   7.679   1.743   5.430
10797TIP3   OH232312   7.615   1.472   6.302
10797TIP3    H132313   7.522   1.453   6.318
10797TIP3    H232314   7.650   1.389   6.269
10798TIP3   OH232315   6.793   1.672   6.115
10798TIP3    H132316   6.786   1.749   6.058
10798TIP3    H232317   6.703   1.643   6.127
10799TIP3   OH232318   6.341   0.963   5.789
10799TIP3    H132319   6.401   1.034   5.810
10799TIP3    H232320   6.273   0.969   5.856
10800TIP3   OH232321   6.900   1.434   6.030
10800TIP3    H132322   6.882   1.525   6.054
10800TIP3    H232323   6.856   1.383   6.098
10801TIP3   OH232324   7.075   1.990   6.571
10801TIP3    H132325   7.113   2.062   6.520
10801TIP3    H232326   7.149   1.954   6.620
10802TIP3   OH232327   6.707   1.893   5.964
10802TIP3    H132328   6.621   1.900   6.005
10802TIP3    H232329   6.743   1.981   5.968
10803TIP3   OH232330   7.429   1.655   6.547
10803TIP3    H132331   7.416   1.649   6.642
10803TIP3    H232332   7.499   1.593   6.528
10804TIP3   OH232333   7.424   1.523   5.385
10804TIP3    H132334   7.476   1.510   5.464
10804TIP3    H232335   7.338   1.487   5.407
10805TIP3   OH232336   7.685   2.146   6.579
10805TIP3    H132337   7.616   2.083   6.598
10805TIP3    H232338   7.649   2.200   6.508
10806TIP3   OH232339   7.731   1.987   5.215
10806TIP3    H132340   7.754   2.048   5.145
10806TIP3    H232341   7.660   2.030   5.262
10807TIP3   OH232342   7.600   1.487   5.592
10807TIP3    H132343   7.582   1.446   5.677
10807TIP3    H232344   7.696   1.489   5.586
10808TIP3   OH232345   6.490   1.869   6.741
10808TIP3    H132346   6.545   1.806   6.787
10808TIP3    H232347   6.508   1.953   6.783
10809TIP3   OH232348   6.768   1.503   5.423
10809TIP3    H132349   6.777   1.411   5.398
10809TIP3    H232350   6.751   1.500   5.517
10810TIP3   OH232351   6.716   1.515   5.693
10810TIP3    H132352   6.795   1.480   5.735
10810TIP3    H232353   6.722   1.609   5.706
10811TIP3   OH232354   6.463   1.196   5.872
10811TIP3    H132355   6.415   1.191   5.954
10811TIP3    H232356   6.444   1.284   5.838
10812TIP3   OH232357   6.988   1.711   5.632
10812TIP3    H132358   6.904   1.732   5.672
10812TIP3    H232359   7.006   1.783   5.573
10813TIP3   OH232360   7.260   0.777   5.982
10813TIP3    H132361   7.290   0.868   5.984
10813TIP3    H232362   7.212   0.766   6.064
10814TIP3   OH232363   7.448   1.169   6.815
10814TIP3    H132364   7.451   1.186   6.909
10814TIP3    H232365   7.499   1.088   6.803
10815TIP3   OH232366   6.738   1.786   5.714
10815TIP3    H132367   6.718   1.857   5.653
10815TIP3    H232368   6.726   1.825   5.801
10816TIP3   OH232369   7.701   1.225   6.217
10816TIP3    H132370   7.623   1.170   6.207
10816TIP3    H232371   7.754   1.179   6.281
10817TIP3   OH232372   6.461   1.409   5.679
10817TIP3    H132373   6.538   1.464   5.692
10817TIP3    H232374   6.493   1.335   5.628
10818TIP3   OH232375   6.354   0.689   5.746
10818TIP3    H132376   6.361   0.784   5.735
10818TIP3    H232377   6.368   0.675   5.840
10819TIP3   OH232378   7.705   2.147   6.152
10819TIP3    H132379   7.662   2.200   6.085
10819TIP3    H232380   7.798   2.166   6.140
10820TIP3   OH232381   6.331   1.643   6.072
10820TIP3    H132382   6.273   1.636   6.148
10820TIP3    H232383   6.277   1.684   6.005
10821TIP3   OH232384   6.501   2.185   7.151
10821TIP3    H132385   6.585   2.187   7.198
10821TIP3    H232386   6.482   2.092   7.141
10822TIP3   OH232387   6.968   2.097   7.191
10822TIP3    H132388   7.059   2.069   7.200
10822TIP3    H232389   6.933   2.043   7.120
10823TIP3   OH232390   6.930   1.697   5.314
10823TIP3    H132391   6.881   1.628   5.359
10823TIP3    H232392   7.004   1.652   5.275
10824TIP3   OH232393   7.579   2.039   6.948
10824TIP3    H132394   7.593   1.968   7.012
10824TIP3    H232395   7.654   2.096   6.959
10825TIP3   OH232396   7.372   1.742   5.230
10825TIP3    H132397   7.405   1.673   5.288
10825TIP3    H232398   7.428   1.738   5.153
10826TIP3   OH232399   0.665   5.779   0.075
10826TIP3    H132400   0.672   5.685   0.092
10826TIP3    H232401   0.583   5.789   0.028
10827TIP3   OH232402   6.585   1.204   5.547
10827TIP3    H132403   6.632   1.177   5.626
10827TIP3    H232404   6.654   1.215   5.481
10828TIP3   OH232405   7.221   1.666   7.120
10828TIP3    H132406   7.176   1.687   7.039
10828TIP3    H232407   7.251   1.576   7.109
10829TIP3   OH232408   7.154   1.437   5.375
10829TIP3    H132409   7.139   1.447   5.469
10829TIP3    H232410   7.129   1.347   5.355
10830TIP3   OH232411   7.703   1.721   6.743
10830TIP3    H132412   7.778   1.744   6.689
10830TIP3    H232413   7.635   1.784   6.719
10831TIP3   OH232414   0.792   5.494   0.060
10831TIP3    H132415   0.874   5.450   0.037
10831TIP3    H232416   0.805   5.526   0.149
10832TIP3   OH232417   6.771   1.136   5.750
10832TIP3    H132418   6.756   1.106   5.840
10832TIP3    H232419   6.808   1.061   5.705
10833TIP3   OH232420   7.070   1.204   7.011
10833TIP3    H132421   6.988   1.252   7.026
10833TIP3    H232422   7.109   1.248   6.935
10834TIP3   OH232423   6.877   0.941   5.586
10834TIP3    H132424   6.853   0.947   5.494
10834TIP3    H232425   6.966   0.975   5.590
10835TIP3   OH232426   7.591   1.587   7.087
10835TIP3    H132427   7.669   1.563   7.038
10835TIP3    H232428   7.595   1.532   7.166
10836TIP3   OH232429   7.723   1.247   5.272
10836TIP3    H132430   7.748   1.192   5.198
10836TIP3    H232431   7.693   1.329   5.232
10837TIP3   OH232432   7.160   1.017   7.206
10837TIP3    H132433   7.133   0.927   7.185
10837TIP3    H232434   7.142   1.066   7.126
10838TIP3   OH232435   7.188   1.321   6.801
10838TIP3    H132436   7.279   1.329   6.775
10838TIP3    H232437   7.142   1.385   6.747
10839TIP3   OH232438   7.830   1.565   6.924
10839TIP3    H132439   7.781   1.623   6.866
10839TIP3    H232440   7.918   1.562   6.886
10840TIP3   OH232441   1.029   5.348   0.075
10840TIP3    H132442   1.007   5.290   0.149
10840TIP3    H232443   1.099   5.302   0.029
10841TIP3   OH232444   1.498   5.229   0.006
10841TIP3    H132445   1.523   5.159   0.065
10841TIP3    H232446   1.403   5.225   0.002
10842TIP3   OH232447   6.734   1.994   5.531
10842TIP3    H132448   6.823   1.974   5.500
10842TIP3    H232449   6.692   2.038   5.457
10843TIP3   OH232450   6.193   1.385   5.702
10843TIP3    H132451   6.287   1.401   5.694
10843TIP3    H232452   6.181   1.298   5.664
10844TIP3   OH232453   6.104   1.939   6.142
10844TIP3    H132454   6.028   1.885   6.120
10844TIP3    H232455   6.147   1.892   6.213
10845TIP3   OH232456   6.230   1.811   6.350
10845TIP3    H132457   6.221   1.739   6.412
10845TIP3    H232458   6.287   1.874   6.395
10846TIP3   OH232459   7.966   2.224   6.142
10846TIP3    H132460   8.001   2.239   6.229
10846TIP3    H232461   8.038   2.246   6.083
10847TIP3   OH232462   8.005   2.230   6.424
10847TIP3    H132463   7.959   2.146   6.415
10847TIP3    H232464   8.075   2.213   6.487
10848TIP3   OH232465   8.061   1.947   6.969
10848TIP3    H132466   7.987   1.943   7.029
10848TIP3    H232467   8.097   2.035   6.981
10849TIP3   OH232468   7.876   1.489   5.594
10849TIP3    H132469   7.943   1.547   5.557
10849TIP3    H232470   7.917   1.452   5.672
10850TIP3   OH232471   7.994   1.348   5.797
10850TIP3    H132472   7.924   1.317   5.855
10850TIP3    H232473   8.066   1.370   5.856
10851TIP3   OH232474   8.045   1.708   6.223
10851TIP3    H132475   8.098   1.640   6.183
10851TIP3    H232476   8.056   1.785   6.167
10852TIP3   OH232477   7.862   1.992   6.428
10852TIP3    H132478   7.794   2.037   6.479
10852TIP3    H232479   7.815   1.951   6.356
10853TIP3   OH232480   7.919   1.253   5.461
10853TIP3    H132481   7.852   1.252   5.393
10853TIP3    H232482   7.905   1.335   5.507
10854TIP3   OH232483   7.914   0.965   5.336
10854TIP3    H132484   7.850   0.997   5.272
10854TIP3    H232485   7.880   0.880   5.365
10855TIP3   OH232486   7.791   1.236   5.952
10855TIP3    H132487   7.811   1.145   5.933
10855TIP3    H232488   7.765   1.236   6.044
10856TIP3   OH232489   6.418   1.246   6.694
10856TIP3    H132490   6.419   1.217   6.603
10856TIP3    H232491   6.510   1.245   6.720
10857TIP3   OH232492   8.095   1.535   6.826
10857TIP3    H132493   8.087   1.445   6.856
10857TIP3    H232494   8.158   1.532   6.755
10858TIP3   OH232495   7.869   0.984   5.857
10858TIP3    H132496   7.878   0.889   5.846
10858TIP3    H232497   7.844   1.016   5.770
10859TIP3   OH232498   8.143   1.059   6.472
10859TIP3    H132499   8.165   1.115   6.398
10859TIP3    H232500   8.063   1.096   6.508
10860TIP3   OH232501   8.031   1.279   6.619
10860TIP3    H132502   7.944   1.306   6.648
10860TIP3    H232503   8.052   1.337   6.546
10861TIP3   OH232504   0.721   5.156   0.135
10861TIP3    H132505   0.699   5.136   0.044
10861TIP3    H232506   0.706   5.074   0.182
10862TIP3   OH232507   6.431   0.938   6.811
10862TIP3    H132508   6.481   0.965   6.735
10862TIP3    H232509   6.391   1.018   6.844
10863TIP3   OH232510   7.538   2.118   5.785
10863TIP3    H132511   7.590   2.098   5.707
10863TIP3    H232512   7.586   2.187   5.830
10864TIP3   OH232513   6.638   1.907   7.164
10864TIP3    H132514   6.544   1.889   7.157
10864TIP3    H232515   6.658   1.893   7.257
10865TIP3   OH232516   6.845   1.957   6.717
10865TIP3    H132517   6.796   2.033   6.685
10865TIP3    H232518   6.930   1.962   6.674
10866TIP3   OH232519   7.241   2.183   6.856
10866TIP3    H132520   7.280   2.176   6.944
10866TIP3    H232521   7.304   2.234   6.806
10867TIP3   OH232522   7.432   2.333   6.726
10867TIP3    H132523   7.493   2.280   6.675
10867TIP3    H232524   7.488   2.392   6.777
10868TIP3   OH232525   6.508   2.200   6.762
10868TIP3    H132526   6.416   2.221   6.744
10868TIP3    H232527   6.534   2.262   6.830
10869TIP3   OH232528   6.738   2.187   6.613
10869TIP3    H132529   6.655   2.192   6.659
10869TIP3    H232530   6.716   2.207   6.522
10870TIP3   OH232531   7.153   2.199   6.406
10870TIP3    H132532   7.083   2.211   6.342
10870TIP3    H232533   7.163   2.286   6.446
10871TIP3   OH232534   7.417   2.137   6.455
10871TIP3    H132535   7.325   2.155   6.433
10871TIP3    H232536   7.466   2.203   6.406
10872TIP3   OH232537   7.618   2.309   6.356
10872TIP3    H132538   7.615   2.396   6.315
10872TIP3    H232539   7.648   2.251   6.286
10873TIP3   OH232540   6.415   1.975   6.493
10873TIP3    H132541   6.441   1.945   6.580
10873TIP3    H232542   6.486   1.946   6.435
10874TIP3   OH232543   6.621   1.873   6.347
10874TIP3    H132544   6.633   1.789   6.391
10874TIP3    H232545   6.708   1.913   6.346
10875TIP3   OH232546   6.890   1.953   6.365
10875TIP3    H132547   6.906   1.860   6.348
10875TIP3    H232548   6.945   1.973   6.441
10876TIP3   OH232549   6.170   1.784   5.902
10876TIP3    H132550   6.095   1.785   5.843
10876TIP3    H232551   6.154   1.857   5.962
10877TIP3   OH232552   6.988   1.924   5.454
10877TIP3    H132553   7.072   1.951   5.417
10877TIP3    H232554   6.958   1.853   5.397
10878TIP3   OH232555   7.682   2.051   5.558
10878TIP3    H132556   7.677   1.956   5.548
10878TIP3    H232557   7.643   2.086   5.478
10879TIP3   OH232558   6.290   1.747   5.513
10879TIP3    H132559   6.304   1.760   5.607
10879TIP3    H232560   6.372   1.708   5.481
10880TIP3   OH232561   7.905   2.204   6.740
10880TIP3    H132562   7.834   2.171   6.686
10880TIP3    H232563   7.891   2.299   6.744
10881TIP3   OH232564   8.491   1.504   6.226
10881TIP3    H132565   8.509   1.535   6.315
10881TIP3    H232566   8.578   1.483   6.190
10882TIP3   OH232567   8.436   1.858   5.958
10882TIP3    H132568   8.421   1.764   5.948
10882TIP3    H232569   8.532   1.867   5.953
10883TIP3   OH232570   8.187   1.195   5.653
10883TIP3    H132571   8.120   1.256   5.684
10883TIP3    H232572   8.141   1.111   5.644
10884TIP3   OH232573   8.230   1.396   5.935
10884TIP3    H132574   8.283   1.319   5.953
10884TIP3    H232575   8.292   1.462   5.904
10885TIP3   OH232576   8.389   1.180   6.023
10885TIP3    H132577   8.461   1.141   6.073
10885TIP3    H232578   8.421   1.179   5.932
10886TIP3   OH232579   8.769   1.744   6.089
10886TIP3    H132580   8.742   1.804   6.160
10886TIP3    H232581   8.752   1.793   6.009
10887TIP3   OH232582   8.595   1.056   6.145
10887TIP3    H132583   8.666   1.112   6.177
10887TIP3    H232584   8.639   0.975   6.118
10888TIP3   OH232585   8.663   1.937   6.260
10888TIP3    H132586   8.652   2.029   6.234
10888TIP3    H232587   8.580   1.915   6.302
10889TIP3   OH232588   8.073   1.639   5.467
10889TIP3    H132589   8.037   1.652   5.379
10889TIP3    H232590   8.088   1.727   5.500
10890TIP3   OH232591   8.590   1.468   5.716
10890TIP3    H132592   8.531   1.441   5.645
10890TIP3    H232593   8.649   1.394   5.729
10891TIP3   OH232594   8.708   1.880   5.854
10891TIP3    H132595   8.657   1.882   5.773
10891TIP3    H232596   8.795   1.912   5.829
10892TIP3   OH232597   8.724   1.477   6.075
10892TIP3    H132598   8.744   1.457   5.984
10892TIP3    H232599   8.748   1.569   6.086
10893TIP3   OH232600   8.883   2.042   6.407
10893TIP3    H132601   8.825   2.105   6.449
10893TIP3    H232602   8.824   1.984   6.358
10894TIP3   OH232603   8.522   1.592   6.485
10894TIP3    H132604   8.545   1.676   6.525
10894TIP3    H232605   8.457   1.554   6.544
10895TIP3   OH232606   8.675   2.209   6.490
10895TIP3    H132607   8.651   2.216   6.397
10895TIP3    H232608   8.592   2.193   6.534
10896TIP3   OH232609   8.430   1.357   5.513
10896TIP3    H132610   8.376   1.406   5.451
10896TIP3    H232611   8.369   1.299   5.558
10897TIP3   OH232612   8.229   1.742   6.430
10897TIP3    H132613   8.159   1.732   6.366
10897TIP3    H232614   8.256   1.652   6.449
10898TIP3   OH232615   8.150   1.921   6.074
10898TIP3    H132616   8.238   1.904   6.040
10898TIP3    H232617   8.161   1.996   6.132
10899TIP3   OH232618   8.740   2.256   5.208
10899TIP3    H132619   8.683   2.243   5.133
10899TIP3    H232620   8.695   2.321   5.262
10900TIP3   OH232621   8.264   2.118   5.595
10900TIP3    H132622   8.306   2.111   5.680
10900TIP3    H232623   8.213   2.037   5.586
10901TIP3   OH232624   8.417   1.938   6.395
10901TIP3    H132625   8.464   1.928   6.478
10901TIP3    H232626   8.349   1.871   6.396
10902TIP3   OH232627   8.773   1.251   6.231
10902TIP3    H132628   8.781   1.290   6.318
10902TIP3    H232629   8.761   1.326   6.172
10903TIP3   OH232630   8.716   1.224   5.742
10903TIP3    H132631   8.627   1.188   5.746
10903TIP3    H232632   8.769   1.154   5.703
10904TIP3   OH232633   8.219   0.832   5.481
10904TIP3    H132634   8.212   0.886   5.402
10904TIP3    H232635   8.178   0.885   5.549
10905TIP3   OH232636   8.436   1.161   5.759
10905TIP3    H132637   8.349   1.170   5.720
10905TIP3    H232638   8.467   1.076   5.728
10906TIP3   OH232639   8.494   1.028   5.201
10906TIP3    H132640   8.423   1.058   5.144
10906TIP3    H232641   8.526   1.108   5.243
10907TIP3   OH232642   8.553   1.834   6.624
10907TIP3    H132643   8.635   1.872   6.657
10907TIP3    H232644   8.498   1.824   6.702
10908TIP3   OH232645   8.448   1.576   5.929
10908TIP3    H132646   8.502   1.546   5.856
10908TIP3    H232647   8.494   1.548   6.007
10909TIP3   OH232648   8.294   1.484   6.612
10909TIP3    H132649   8.321   1.396   6.640
10909TIP3    H232650   8.226   1.468   6.546
10910TIP3   OH232651   8.572   1.902   5.612
10910TIP3    H132652   8.579   1.974   5.550
10910TIP3    H232653   8.481   1.873   5.606
10911TIP3   OH232654   8.137   1.239   5.280
10911TIP3    H132655   8.184   1.321   5.293
10911TIP3    H232656   8.069   1.239   5.348
10912TIP3   OH232657   8.725   1.661   5.554
10912TIP3    H132658   8.677   1.744   5.558
10912TIP3    H232659   8.674   1.602   5.609
10913TIP3   OH232660   8.861   2.211   6.041
10913TIP3    H132661   8.924   2.278   6.013
10913TIP3    H232662   8.914   2.141   6.077
10914TIP3   OH232663   8.492   2.117   5.442
10914TIP3    H132664   8.405   2.117   5.481
10914TIP3    H232665   8.516   2.210   5.437
10915TIP3   OH232666   8.279   2.138   6.229
10915TIP3    H132667   8.332   2.078   6.282
10915TIP3    H232668   8.293   2.224   6.269
10916TIP3   OH232669   8.563   1.685   4.932
10916TIP3    H132670   8.533   1.645   4.850
10916TIP3    H232671   8.488   1.681   4.991
10917TIP3   OH232672   8.265   1.480   5.332
10917TIP3    H132673   8.205   1.537   5.382
10917TIP3    H232674   8.280   1.527   5.250
10918TIP3   OH232675   8.455   2.042   5.166
10918TIP3    H132676   8.520   2.097   5.122
10918TIP3    H232677   8.474   2.051   5.259
10919TIP3   OH232678   8.169   0.969   5.255
10919TIP3    H132679   8.187   1.063   5.254
10919TIP3    H232680   8.075   0.962   5.276
10920TIP3   OH232681   8.091   1.902   5.568
10920TIP3    H132682   8.042   1.932   5.644
10920TIP3    H232683   8.048   1.944   5.493
10921TIP3   OH232684   8.282   2.447   6.643
10921TIP3    H132685   8.360   2.451   6.698
10921TIP3    H232686   8.265   2.353   6.634
10922TIP3   OH232687   8.746   2.391   6.694
10922TIP3    H132688   8.824   2.445   6.683
10922TIP3    H232689   8.746   2.333   6.619
10923TIP3   OH232690   8.381   1.819   6.838
10923TIP3    H132691   8.345   1.784   6.919
10923TIP3    H232692   8.304   1.838   6.784
10924TIP3   OH232693   8.595   1.264   5.305
10924TIP3    H132694   8.552   1.294   5.384
10924TIP3    H232695   8.597   1.341   5.248
10925TIP3   OH232696   8.571   2.251   4.994
10925TIP3    H132697   8.634   2.273   4.926
10925TIP3    H232698   8.491   2.227   4.946
10926TIP3   OH232699   7.995   1.622   5.199
10926TIP3    H132700   8.081   1.645   5.162
10926TIP3    H232701   7.973   1.538   5.159
10927TIP3   OH232702   7.886   2.206   5.657
10927TIP3    H132703   7.823   2.151   5.610
10927TIP3    H232704   7.931   2.146   5.717
10928TIP3   OH232705   8.032   2.044   5.828
10928TIP3    H132706   8.028   1.974   5.893
10928TIP3    H232707   8.082   2.114   5.871
10929TIP3   OH232708   8.222   1.492   6.188
10929TIP3    H132709   8.212   1.464   6.097
10929TIP3    H232710   8.317   1.504   6.199
10930TIP3   OH232711   8.237   1.198   6.253
10930TIP3    H132712   8.292   1.193   6.175
10930TIP3    H232713   8.222   1.292   6.266
10931TIP3   OH232714   8.441   2.157   6.633
10931TIP3    H132715   8.346   2.146   6.623
10931TIP3    H232716   8.458   2.133   6.724
10932TIP3   OH232717   8.640   2.208   6.211
10932TIP3    H132718   8.578   2.270   6.172
10932TIP3    H232719   8.719   2.216   6.157
10933TIP3   OH232720   8.286   2.434   6.270
10933TIP3    H132721   8.197   2.462   6.246
10933TIP3    H232722   8.316   2.502   6.331
10934TIP3   OH232723   8.490   2.404   6.092
10934TIP3    H132724   8.412   2.414   6.148
10934TIP3    H232725   8.463   2.441   6.008
10935TIP3   OH232726   8.908   2.625   5.790
10935TIP3    H132727   8.819   2.593   5.801
10935TIP3    H232728   8.943   2.629   5.879
10936TIP3   OH232729   8.202   2.226   5.976
10936TIP3    H132730   8.232   2.204   6.065
10936TIP3    H232731   8.271   2.194   5.919
10937TIP3   OH232732   8.401   2.105   5.836
10937TIP3    H132733   8.413   2.019   5.876
10937TIP3    H232734   8.488   2.145   5.836
10938TIP3   OH232735   8.659   2.217   5.838
10938TIP3    H132736   8.709   2.199   5.758
10938TIP3    H232737   8.723   2.211   5.909
10939TIP3   OH232738   7.970   2.024   5.355
10939TIP3    H132739   7.889   1.988   5.319
10939TIP3    H232740   7.973   2.114   5.323
10940TIP3   OH232741   8.083   2.018   5.017
10940TIP3    H132742   8.086   2.021   5.112
10940TIP3    H232743   8.165   1.978   4.991
10941TIP3   OH232744   1.615   2.359   7.168
10941TIP3    H132745   1.586   2.448   7.149
10941TIP3    H232746   1.552   2.303   7.123
10942TIP3   OH232747   4.597   6.565   0.171
10942TIP3    H132748   4.567   6.483   0.211
10942TIP3    H232749   4.591   6.548   0.077
10943TIP3   OH232750   4.877   6.854  -0.037
10943TIP3    H132751   4.864   6.795   0.037
10943TIP3    H232752   4.909   6.936   0.002
10944TIP3   OH232753   3.856   6.908   0.430
10944TIP3    H132754   3.804   6.860   0.366
10944TIP3    H232755   3.938   6.859   0.435
10945TIP3   OH232756   3.550   6.293   0.313
10945TIP3    H132757   3.610   6.224   0.285
10945TIP3    H232758   3.566   6.365   0.252
10946TIP3   OH232759   4.523   7.288   0.003
10946TIP3    H132760   4.551   7.232  -0.070
10946TIP3    H232761   4.549   7.239   0.081
10947TIP3   OH232762   4.421   6.737   0.297
10947TIP3    H132763   4.455   6.671   0.237
10947TIP3    H232764   4.498   6.786   0.326
10948TIP3   OH232765   5.430   6.130   0.309
10948TIP3    H132766   5.419   6.221   0.337
10948TIP3    H232767   5.478   6.136   0.226
10949TIP3   OH232768   4.754   6.274   0.382
10949TIP3    H132769   4.798   6.211   0.439
10949TIP3    H232770   4.761   6.237   0.295
10950TIP3   OH232771   4.167   5.798   0.237
10950TIP3    H132772   4.119   5.881   0.237
10950TIP3    H232773   4.188   5.782   0.329
10951TIP3   OH232774   1.894   1.836   7.206
10951TIP3    H132775   1.968   1.815   7.263
10951TIP3    H232776   1.933   1.879   7.130
10952TIP3   OH232777   4.277   6.361   0.138
10952TIP3    H132778   4.366   6.349   0.171
10952TIP3    H232779   4.249   6.273   0.114
10953TIP3   OH232780   5.538   6.381   0.399
10953TIP3    H132781   5.524   6.406   0.308
10953TIP3    H232782   5.580   6.458   0.438
10954TIP3   OH232783   1.491   2.578   7.069
10954TIP3    H132784   1.477   2.567   6.975
10954TIP3    H232785   1.456   2.665   7.088
10955TIP3   OH232786   4.293   6.624   0.508
10955TIP3    H132787   4.321   6.677   0.582
10955TIP3    H232788   4.344   6.658   0.434
10956TIP3   OH232789   5.068   6.014   0.108
10956TIP3    H132790   5.025   6.026   0.193
10956TIP3    H232791   5.124   6.091   0.098
10957TIP3   OH232792   4.054   5.977   0.540
10957TIP3    H132793   4.108   6.055   0.553
10957TIP3    H232794   4.114   5.903   0.556
10958TIP3   OH232795   4.081   6.888   0.779
10958TIP3    H132796   4.094   6.978   0.747
10958TIP3    H232797   3.987   6.874   0.772
10959TIP3   OH232798   0.539   2.423   7.158
10959TIP3    H132799   0.504   2.425   7.069
10959TIP3    H232800   0.561   2.514   7.177
10960TIP3   OH232801   4.945   7.102   0.069
10960TIP3    H132802   4.862   7.099   0.117
10960TIP3    H232803   4.944   7.187   0.024
10961TIP3   OH232804   5.258   5.924   0.338
10961TIP3    H132805   5.193   5.964   0.396
10961TIP3    H232806   5.319   5.994   0.318
10962TIP3   OH232807   4.506   5.576   0.531
10962TIP3    H132808   4.450   5.502   0.509
10962TIP3    H232809   4.462   5.619   0.604
10963TIP3   OH232810   1.651   2.959   7.049
10963TIP3    H132811   1.699   2.877   7.036
10963TIP3    H232812   1.715   3.027   7.031
10964TIP3   OH232813   1.788   2.732   6.998
10964TIP3    H132814   1.798   2.660   6.936
10964TIP3    H232815   1.831   2.703   7.078
10965TIP3   OH232816   5.145   7.153   0.466
10965TIP3    H132817   5.121   7.064   0.439
10965TIP3    H232818   5.128   7.207   0.389
10966TIP3   OH232819   1.459   2.207   7.003
10966TIP3    H132820   1.376   2.252   6.986
10966TIP3    H232821   1.505   2.209   6.919
10967TIP3   OH232822   1.436   2.016   6.712
10967TIP3    H132823   1.502   2.067   6.758
10967TIP3    H232824   1.486   1.948   6.667
10968TIP3   OH232825   5.341   6.640   0.289
10968TIP3    H132826   5.259   6.678   0.257
10968TIP3    H232827   5.375   6.590   0.216
10969TIP3   OH232828   1.810   2.310   6.976
10969TIP3    H132829   1.757   2.332   7.052
10969TIP3    H232830   1.894   2.281   7.012
10970TIP3   OH232831   5.023   6.648   0.546
10970TIP3    H132832   4.944   6.664   0.598
10970TIP3    H232833   4.997   6.580   0.483
10971TIP3   OH232834   4.060   6.512   0.062
10971TIP3    H132835   4.003   6.444   0.025
10971TIP3    H232836   4.140   6.465   0.085
10972TIP3   OH232837   4.121   6.928   0.210
10972TIP3    H132838   4.078   6.923   0.125
10972TIP3    H232839   4.101   6.845   0.253
10973TIP3   OH232840   4.193   6.398   0.400
10973TIP3    H132841   4.223   6.409   0.310
10973TIP3    H232842   4.221   6.477   0.444
10974TIP3   OH232843   4.699   7.131   0.184
10974TIP3    H132844   4.695   7.221   0.215
10974TIP3    H232845   4.709   7.078   0.263
10975TIP3   OH232846   4.254   7.024   0.946
10975TIP3    H132847   4.165   7.050   0.970
10975TIP3    H232848   4.243   6.945   0.893
10976TIP3   OH232849   1.651   2.168   6.803
10976TIP3    H132850   1.709   2.227   6.851
10976TIP3    H232851   1.682   2.170   6.713
10977TIP3   OH232852   1.400   2.841   7.089
10977TIP3    H132853   1.485   2.883   7.080
10977TIP3    H232854   1.341   2.894   7.036
10978TIP3   OH232855   2.155   1.385   6.858
10978TIP3    H132856   2.084   1.409   6.917
10978TIP3    H232857   2.170   1.463   6.804
10979TIP3   OH232858   0.946   2.123   7.187
10979TIP3    H132859   0.864   2.160   7.156
10979TIP3    H232860   0.920   2.043   7.234
10980TIP3   OH232861   1.987   2.764   6.430
10980TIP3    H132862   1.981   2.856   6.407
10980TIP3    H232863   2.077   2.739   6.408
10981TIP3   OH232864   3.388   6.997   0.417
10981TIP3    H132865   3.478   6.979   0.444
10981TIP3    H232866   3.342   7.018   0.498
10982TIP3   OH232867   5.424   7.332   0.440
10982TIP3    H132868   5.400   7.240   0.427
10982TIP3    H232869   5.348   7.370   0.485
10983TIP3   OH232870   4.486   7.107   0.740
10983TIP3    H132871   4.498   7.182   0.681
10983TIP3    H232872   4.391   7.103   0.755
10984TIP3   OH232873   1.289   3.054   6.906
10984TIP3    H132874   1.246   3.033   6.823
10984TIP3    H232875   1.254   3.140   6.930
10985TIP3   OH232876   3.680   7.101  -0.021
10985TIP3    H132877   3.726   7.093   0.063
10985TIP3    H232878   3.628   7.021  -0.028
10986TIP3   OH232879   1.493   2.991   6.533
10986TIP3    H132880   1.542   2.917   6.497
10986TIP3    H232881   1.529   3.004   6.620
10987TIP3   OH232882   1.542   3.037   6.802
10987TIP3    H132883   1.454   3.039   6.841
10987TIP3    H232884   1.596   2.998   6.870
10988TIP3   OH232885   5.243   6.512   0.818
10988TIP3    H132886   5.311   6.539   0.756
10988TIP3    H232887   5.291   6.467   0.888
10989TIP3   OH232888   5.004   6.318   0.853
10989TIP3    H132889   5.094   6.288   0.868
10989TIP3    H232890   5.003   6.344   0.761
10990TIP3   OH232891   1.733   2.133   6.545
10990TIP3    H132892   1.688   2.138   6.461
10990TIP3    H232893   1.814   2.181   6.532
10991TIP3   OH232894   1.439   1.568   6.820
10991TIP3    H132895   1.429   1.576   6.915
10991TIP3    H232896   1.401   1.483   6.799
10992TIP3   OH232897   4.206   6.201   0.585
10992TIP3    H132898   4.152   6.224   0.661
10992TIP3    H232899   4.195   6.274   0.524
10993TIP3   OH232900   4.182   6.100   0.138
10993TIP3    H132901   4.106   6.144   0.178
10993TIP3    H232902   4.151   6.072   0.052
10994TIP3   OH232903   1.614   2.033   7.142
10994TIP3    H132904   1.560   2.099   7.098
10994TIP3    H232905   1.668   1.996   7.072
10995TIP3   OH232906   4.731   6.214   0.102
10995TIP3    H132907   4.676   6.238   0.027
10995TIP3    H232908   4.777   6.135   0.073
10996TIP3   OH232909   1.089   1.540   6.830
10996TIP3    H132910   1.088   1.538   6.926
10996TIP3    H232911   1.014   1.596   6.807
10997TIP3   OH232912   4.794   6.444   0.639
10997TIP3    H132913   4.824   6.357   0.612
10997TIP3    H232914   4.738   6.428   0.715
10998TIP3   OH232915   4.462   5.934   0.116
10998TIP3    H132916   4.390   5.921   0.177
10998TIP3    H232917   4.538   5.949   0.172
10999TIP3   OH232918   1.139   1.815   7.153
10999TIP3    H132919   1.232   1.829   7.136
10999TIP3    H232920   1.096   1.834   7.069
11000TIP3   OH232921   4.919   6.049   0.336
11000TIP3    H132922   4.952   5.992   0.405
11000TIP3    H232923   4.834   6.013   0.313
11001TIP3   OH232924   1.003   1.844   6.923
11001TIP3    H132925   0.940   1.798   6.868
11001TIP3    H232926   1.058   1.892   6.861
11002TIP3   OH232927   5.035   7.879   0.649
11002TIP3    H132928   4.985   7.878   0.567
11002TIP3    H232929   5.105   7.816   0.635
11003TIP3   OH232930   4.508   6.275   0.251
11003TIP3    H132931   4.574   6.239   0.191
11003TIP3    H232932   4.557   6.295   0.331
11004TIP3   OH232933   4.475   6.260   0.580
11004TIP3    H132934   4.387   6.222   0.573
11004TIP3    H232935   4.530   6.190   0.614
11005TIP3   OH232936   1.232   2.347   6.945
11005TIP3    H132937   1.154   2.296   6.924
11005TIP3    H232938   1.203   2.407   7.014
11006TIP3   OH232939   5.110   6.751   0.213
11006TIP3    H132940   5.129   6.833   0.168
11006TIP3    H232941   5.017   6.736   0.198
11007TIP3   OH232942   1.690   1.677   6.860
11007TIP3    H132943   1.596   1.661   6.848
11007TIP3    H232944   1.696   1.772   6.875
11008TIP3   OH232945   4.603   6.867   0.784
11008TIP3    H132946   4.641   6.861   0.872
11008TIP3    H232947   4.569   6.957   0.779
11009TIP3   OH232948   1.757   1.939   6.924
11009TIP3    H132949   1.853   1.942   6.932
11009TIP3    H232950   1.735   2.015   6.871
11010TIP3   OH232951   3.884   6.526   0.460
11010TIP3    H132952   3.923   6.590   0.400
11010TIP3    H232953   3.950   6.511   0.527
11011TIP3   OH232954   1.393   2.518   6.808
11011TIP3    H132955   1.345   2.601   6.808
11011TIP3    H232956   1.336   2.457   6.854
11012TIP3   OH232957   4.763   7.072   0.616
11012TIP3    H132958   4.669   7.059   0.608
11012TIP3    H232959   4.776   7.099   0.706
11013TIP3   OH232960   2.170   2.038   6.768
11013TIP3    H132961   2.113   1.992   6.706
11013TIP3    H232962   2.178   2.126   6.732
11014TIP3   OH232963   5.395   7.071   0.522
11014TIP3    H132964   5.302   7.095   0.513
11014TIP3    H232965   5.417   7.032   0.437
11015TIP3   OH232966   1.903   2.832   6.689
11015TIP3    H132967   1.877   2.756   6.742
11015TIP3    H232968   1.929   2.794   6.604
11016TIP3   OH232969   4.851   6.670   0.171
11016TIP3    H132970   4.758   6.652   0.183
11016TIP3    H232971   4.889   6.585   0.150
11017TIP3   OH232972   0.994   2.713   7.258
11017TIP3    H132973   0.984   2.792   7.205
11017TIP3    H232974   0.904   2.688   7.280
11018TIP3   OH232975   0.589   1.997   7.005
11018TIP3    H132976   0.640   2.075   7.026
11018TIP3    H232977   0.532   1.985   7.081
11019TIP3   OH232978   1.112   2.504   7.130
11019TIP3    H132979   1.088   2.586   7.171
11019TIP3    H232980   1.109   2.439   7.201
11020TIP3   OH232981   4.275   7.250   0.459
11020TIP3    H132982   4.328   7.317   0.417
11020TIP3    H232983   4.331   7.172   0.463
11021TIP3   OH232984   0.948   2.943   7.115
11021TIP3    H132985   0.859   2.948   7.150
11021TIP3    H232986   0.981   3.033   7.120
11022TIP3   OH232987   4.662   6.841   0.364
11022TIP3    H132988   4.690   6.784   0.437
11022TIP3    H232989   4.743   6.863   0.319
11023TIP3   OH232990   1.670   2.578   6.596
11023TIP3    H132991   1.714   2.563   6.679
11023TIP3    H232992   1.583   2.539   6.608
11024TIP3   OH232993   4.962   7.485   0.371
11024TIP3    H132994   4.914   7.413   0.413
11024TIP3    H232995   4.903   7.515   0.302
11025TIP3   OH232996   1.977   3.036   6.387
11025TIP3    H132997   1.984   3.088   6.307
11025TIP3    H232998   1.910   3.081   6.438
11026TIP3   OH232999   1.839   2.530   6.811
11026TIP3    H133000   1.825   2.454   6.868
11026TIP3    H233001   1.932   2.525   6.787
11027TIP3   OH233002   3.753   7.098   0.796
11027TIP3    H133003   3.755   7.016   0.748
11027TIP3    H233004   3.761   7.166   0.729
11028TIP3   OH233005   1.020   2.543   6.607
11028TIP3    H133006   1.033   2.453   6.576
11028TIP3    H233007   1.014   2.535   6.702
11029TIP3   OH233008   0.977   2.552   6.883
11029TIP3    H133009   1.026   2.531   6.962
11029TIP3    H233010   0.975   2.647   6.881
11030TIP3   OH233011   0.720   2.234   7.070
11030TIP3    H133012   0.661   2.293   7.117
11030TIP3    H233013   0.747   2.284   6.992
11031TIP3   OH233014   4.668   6.095   0.700
11031TIP3    H133015   4.750   6.131   0.665
11031TIP3    H233016   4.682   6.001   0.700
11032TIP3   OH233017   1.766   1.612   7.117
11032TIP3    H133018   1.734   1.631   7.029
11032TIP3    H233019   1.799   1.696   7.149
11033TIP3   OH233020   1.244   2.743   6.812
11033TIP3    H133021   1.156   2.762   6.846
11033TIP3    H233022   1.264   2.817   6.754
11034TIP3   OH233023   1.410   1.848   7.154
11034TIP3    H133024   1.471   1.918   7.134
11034TIP3    H233025   1.437   1.815   7.240
11035TIP3   OH233026   4.580   5.697   0.046
11035TIP3    H133027   4.523   5.772   0.065
11035TIP3    H233028   4.635   5.726  -0.026
11036TIP3   OH233029   0.986   2.824   6.875
11036TIP3    H133030   0.968   2.894   6.812
11036TIP3    H233031   0.974   2.865   6.960
11037TIP3   OH233032   1.077   1.544   7.104
11037TIP3    H133033   1.086   1.638   7.122
11037TIP3    H233034   1.145   1.503   7.157
11038TIP3   OH233035   5.267   6.232   0.852
11038TIP3    H133036   5.264   6.137   0.859
11038TIP3    H233037   5.301   6.248   0.763
11039TIP3   OH233038   4.933   6.408   0.093
11039TIP3    H133039   4.864   6.343   0.106
11039TIP3    H233040   5.013   6.364   0.122
11040TIP3   OH233041   0.737   2.419   6.854
11040TIP3    H133042   0.809   2.480   6.869
11040TIP3    H233043   0.769   2.359   6.787
11041TIP3   OH233044   1.973   3.173   7.272
11041TIP3    H133045   1.910   3.229   7.227
11041TIP3    H233046   2.057   3.218   7.261
11042TIP3   OH233047   0.540   2.690   7.219
11042TIP3    H133048   0.509   2.706   7.308
11042TIP3    H233049   0.480   2.739   7.163
11043TIP3   OH233050   1.174   2.743   6.495
11043TIP3    H133051   1.128   2.672   6.538
11043TIP3    H233052   1.248   2.701   6.452
11044TIP3   OH233053   4.791   7.193   0.858
11044TIP3    H133054   4.840   7.176   0.938
11044TIP3    H233055   4.803   7.287   0.842
11045TIP3   OH233056   1.617   2.779   6.413
11045TIP3    H133057   1.654   2.715   6.474
11045TIP3    H233058   1.672   2.773   6.335
11046TIP3   OH233059   0.852   2.225   6.703
11046TIP3    H133060   0.902   2.202   6.781
11046TIP3    H233061   0.918   2.244   6.637
11047TIP3   OH233062   1.409   2.454   6.542
11047TIP3    H133063   1.391   2.466   6.636
11047TIP3    H233064   1.392   2.362   6.526
11048TIP3   OH233065   4.889   6.997   0.382
11048TIP3    H133066   4.967   6.947   0.406
11048TIP3    H233067   4.850   7.022   0.466
11049TIP3   OH233068   1.018   2.174   6.918
11049TIP3    H133069   1.002   2.146   7.008
11049TIP3    H233070   1.070   2.103   6.880
11050TIP3   OH233071   1.165   1.996   6.766
11050TIP3    H133072   1.137   2.004   6.675
11050TIP3    H233073   1.261   2.000   6.762
11051TIP3   OH233074   1.949   2.274   6.452
11051TIP3    H133075   1.939   2.236   6.364
11051TIP3    H233076   1.925   2.366   6.441
11052TIP3   OH233077   4.530   6.576   0.712
11052TIP3    H133078   4.535   6.560   0.618
11052TIP3    H233079   4.443   6.546   0.737
11053TIP3   OH233080   5.135   6.778   0.852
11053TIP3    H133081   5.049   6.810   0.827
11053TIP3    H233082   5.194   6.814   0.785
11054TIP3   OH233083   0.982   3.036   6.700
11054TIP3    H133084   1.073   3.019   6.678
11054TIP3    H233085   0.946   3.080   6.623
11055TIP3   OH233086   0.467   2.402   6.889
11055TIP3    H133087   0.560   2.417   6.870
11055TIP3    H233088   0.447   2.320   6.845
11056TIP3   OH233089   3.260   7.239   0.026
11056TIP3    H133090   3.179   7.190   0.039
11056TIP3    H233091   3.328   7.185   0.066
11057TIP3   OH233092   3.446   7.109   0.177
11057TIP3    H133093   3.405   7.056   0.244
11057TIP3    H233094   3.515   7.157   0.223
11058TIP3   OH233095   5.172   7.508  -0.008
11058TIP3    H133096   5.203   7.555   0.070
11058TIP3    H233097   5.248   7.509  -0.067
11059TIP3   OH233098   5.245   7.512   0.271
11059TIP3    H133099   5.201   7.430   0.248
11059TIP3    H233100   5.338   7.491   0.267
11060TIP3   OH233101   5.195   7.216   0.948
11060TIP3    H133102   5.262   7.224   1.015
11060TIP3    H233103   5.243   7.224   0.865
11061TIP3   OH233104   2.108   2.507   6.761
11061TIP3    H133105   2.171   2.572   6.732
11061TIP3    H233106   2.149   2.466   6.837
11062TIP3   OH233107   2.217   2.364   6.962
11062TIP3    H133108   2.156   2.312   7.014
11062TIP3    H233109   2.298   2.364   7.013
11063TIP3   OH233110   5.260   6.945   0.071
11063TIP3    H133111   5.259   6.888  -0.006
11063TIP3    H233112   5.279   7.032   0.037
11064TIP3   OH233113   5.108   7.272   0.226
11064TIP3    H133114   5.034   7.332   0.215
11064TIP3    H233115   5.087   7.197   0.170
11065TIP3   OH233116   2.162   2.272   6.623
11065TIP3    H133117   2.090   2.266   6.561
11065TIP3    H233118   2.145   2.352   6.672
11066TIP3   OH233119   2.008   1.917   6.581
11066TIP3    H133120   1.960   1.955   6.508
11066TIP3    H233121   2.006   1.823   6.564
11067TIP3   OH233122   2.036   2.205   7.096
11067TIP3    H133123   2.046   2.111   7.085
11067TIP3    H233124   2.020   2.217   7.189
11068TIP3   OH233125   3.556   6.496   0.511
11068TIP3    H133126   3.500   6.458   0.443
11068TIP3    H233127   3.601   6.421   0.549
11069TIP3   OH233128   5.321   6.856   0.673
11069TIP3    H133129   5.351   6.772   0.638
11069TIP3    H233130   5.380   6.921   0.634
11070TIP3   OH233131   5.534   6.664   0.753
11070TIP3    H133132   5.476   6.696   0.822
11070TIP3    H233133   5.543   6.570   0.771
11071TIP3   OH233134   1.978   1.644   6.532
11071TIP3    H133135   2.041   1.619   6.599
11071TIP3    H233136   1.894   1.609   6.562
11072TIP3   OH233137   2.035   1.939   6.988
11072TIP3    H133138   2.076   1.853   6.996
11072TIP3    H233139   2.083   1.981   6.917
11073TIP3   OH233140   5.172   6.265   0.127
11073TIP3    H133141   5.249   6.301   0.084
11073TIP3    H233142   5.194   6.267   0.221
11074TIP3   OH233143   5.250   6.369   0.369
11074TIP3    H133144   5.165   6.413   0.358
11074TIP3    H233145   5.309   6.418   0.312
11075TIP3   OH233146   2.137   1.688   7.026
11075TIP3    H133147   2.189   1.680   7.105
11075TIP3    H233148   2.082   1.609   7.025
11076TIP3   OH233149   5.576   6.151   0.871
11076TIP3    H133150   5.482   6.135   0.875
11076TIP3    H233151   5.614   6.087   0.932
11077TIP3   OH233152   2.201   1.596   6.687
11077TIP3    H133153   2.254   1.537   6.633
11077TIP3    H233154   2.252   1.676   6.693
11078TIP3   OH233155   1.802   3.170   6.962
11078TIP3    H133156   1.845   3.136   6.883
11078TIP3    H233157   1.843   3.254   6.977
11079TIP3   OH233158   4.117   7.138   0.663
11079TIP3    H133159   4.095   7.213   0.718
11079TIP3    H233160   4.173   7.174   0.594
11080TIP3   OH233161   4.547   7.370   0.923
11080TIP3    H133162   4.598   7.408   0.994
11080TIP3    H233163   4.606   7.370   0.847
11081TIP3   OH233164   4.673   7.562   0.526
11081TIP3    H133165   4.753   7.513   0.543
11081TIP3    H233166   4.696   7.652   0.550
11082TIP3   OH233167   5.397   5.937   0.629
11082TIP3    H133168   5.307   5.915   0.605
11082TIP3    H233169   5.399   5.929   0.725
11083TIP3   OH233170   3.742   7.397   0.679
11083TIP3    H133171   3.684   7.412   0.605
11083TIP3    H233172   3.684   7.386   0.754
11084TIP3   OH233173   3.971   7.381   0.440
11084TIP3    H133174   3.919   7.323   0.496
11084TIP3    H233175   3.997   7.326   0.367
11085TIP3   OH233176   4.388   7.435   0.275
11085TIP3    H133177   4.321   7.429   0.206
11085TIP3    H233178   4.415   7.527   0.274
11086TIP3   OH233179   4.661   7.379   0.279
11086TIP3    H133180   4.566   7.396   0.278
11086TIP3    H233181   4.700   7.459   0.244
11087TIP3   OH233182   4.803   7.600   0.183
11087TIP3    H133183   4.818   7.695   0.178
11087TIP3    H233184   4.803   7.571   0.092
11088TIP3   OH233185   3.655   7.209   0.350
11088TIP3    H133186   3.695   7.208   0.437
11088TIP3    H233187   3.716   7.161   0.295
11089TIP3   OH233188   3.847   7.100   0.200
11089TIP3    H133189   3.859   7.012   0.236
11089TIP3    H233190   3.934   7.140   0.206
11090TIP3   OH233191   4.101   7.202   0.255
11090TIP3    H133192   4.121   7.111   0.233
11090TIP3    H233193   4.160   7.223   0.327
11091TIP3   OH233194   4.681   5.932   0.283
11091TIP3    H133195   4.660   5.894   0.368
11091TIP3    H233196   4.733   5.864   0.239
11092TIP3   OH233197   5.157   5.729   0.163
11092TIP3    H133198   5.190   5.769   0.083
11092TIP3    H233199   5.165   5.798   0.229
11093TIP3   OH233200   2.325   1.643   7.216
11093TIP3    H133201   2.382   1.586   7.164
11093TIP3    H233202   2.359   1.732   7.201
11094TIP3   OH233203   4.387   5.567   0.248
11094TIP3    H133204   4.357   5.585   0.159
11094TIP3    H233205   4.392   5.654   0.290
11095TIP3   OH233206   4.865   5.754   0.186
11095TIP3    H133207   4.940   5.735   0.129
11095TIP3    H233208   4.815   5.672   0.186
11096TIP3   OH233209   1.981   1.459   7.055
11096TIP3    H133210   1.903   1.509   7.076
11096TIP3    H233211   1.961   1.370   7.085
11097TIP3   OH233212   0.398   2.817   7.027
11097TIP3    H133213   0.388   2.762   6.949
11097TIP3    H233214   0.399   2.906   6.993
11098TIP3   OH233215   1.414   1.579   7.086
11098TIP3    H133216   1.370   1.530   7.156
11098TIP3    H233217   1.410   1.670   7.115
11099TIP3   OH233218   1.239   2.966   6.638
11099TIP3    H133219   1.322   2.993   6.598
11099TIP3    H233220   1.208   2.896   6.581
11100TIP3   OH233221   1.934   3.098   6.732
11100TIP3    H133222   1.929   3.003   6.721
11100TIP3    H233223   1.893   3.134   6.653
11101TIP3   OH233224   0.550   2.778   6.755
11101TIP3    H133225   0.583   2.831   6.828
11101TIP3    H233226   0.628   2.747   6.710
11102TIP3   OH233227   5.205   7.452   0.544
11102TIP3    H133228   5.170   7.476   0.458
11102TIP3    H233229   5.219   7.536   0.587
11103TIP3   OH233230   3.432   2.632   6.665
11103TIP3    H133231   3.403   2.719   6.639
11103TIP3    H233232   3.362   2.574   6.635
11104TIP3   OH233233   3.429   2.625   7.079
11104TIP3    H133234   3.482   2.604   7.155
11104TIP3    H233235   3.385   2.543   7.057
11105TIP3   OH233236   5.746   6.720   0.196
11105TIP3    H133237   5.752   6.627   0.216
11105TIP3    H233238   5.790   6.730   0.112
11106TIP3   OH233239   3.703   2.929   6.763
11106TIP3    H133240   3.687   2.865   6.832
11106TIP3    H233241   3.721   3.011   6.810
11107TIP3   OH233242   2.709   2.929   7.133
11107TIP3    H133243   2.695   2.834   7.130
11107TIP3    H233244   2.804   2.939   7.121
11108TIP3   OH233245   2.406   2.084   6.979
11108TIP3    H133246   2.414   2.174   7.010
11108TIP3    H233247   2.335   2.088   6.914
11109TIP3   OH233248   2.454   2.339   7.095
11109TIP3    H133249   2.461   2.300   7.182
11109TIP3    H233250   2.521   2.406   7.093
11110TIP3   OH233251   3.358   3.357   6.770
11110TIP3    H133252   3.384   3.298   6.700
11110TIP3    H233253   3.366   3.305   6.850
11111TIP3   OH233254   3.235   2.849   7.077
11111TIP3    H133255   3.276   2.768   7.047
11111TIP3    H233256   3.308   2.905   7.102
11112TIP3   OH233257   4.273   2.168   7.096
11112TIP3    H133258   4.288   2.254   7.136
11112TIP3    H233259   4.297   2.180   7.004
11113TIP3   OH233260   3.649   2.335   7.123
11113TIP3    H133261   3.679   2.249   7.151
11113TIP3    H233262   3.606   2.320   7.039
11114TIP3   OH233263   3.005   1.994   7.067
11114TIP3    H133264   2.985   2.069   7.011
11114TIP3    H233265   2.948   1.924   7.034
11115TIP3   OH233266   3.695   2.097   6.722
11115TIP3    H133267   3.760   2.089   6.792
11115TIP3    H233268   3.745   2.131   6.647
11116TIP3   OH233269   3.051   2.414   7.023
11116TIP3    H133270   3.145   2.399   7.028
11116TIP3    H233271   3.016   2.334   6.986
11117TIP3   OH233272   7.288   6.584  -0.003
11117TIP3    H133273   7.199   6.619  -0.012
11117TIP3    H233274   7.312   6.602   0.088
11118TIP3   OH233275   5.988   6.191   0.230
11118TIP3    H133276   5.940   6.229   0.156
11118TIP3    H233277   5.923   6.182   0.299
11119TIP3   OH233278   3.333   2.852   6.530
11119TIP3    H133279   3.293   2.821   6.450
11119TIP3    H233280   3.280   2.928   6.556
11120TIP3   OH233281   6.043   6.974   0.023
11120TIP3    H133282   5.987   7.045   0.052
11120TIP3    H233283   6.090   7.010  -0.052
11121TIP3   OH233284   3.857   2.115   6.940
11121TIP3    H133285   3.812   2.093   7.022
11121TIP3    H233286   3.911   2.191   6.963
11122TIP3   OH233287   2.871   2.089   7.292
11122TIP3    H133288   2.857   2.181   7.272
11122TIP3    H233289   2.914   2.054   7.215
11123TIP3   OH233290   5.883   7.180   0.111
11123TIP3    H133291   5.877   7.273   0.090
11123TIP3    H233292   5.793   7.155   0.132
11124TIP3   OH233293   2.296   2.683   6.656
11124TIP3    H133294   2.266   2.699   6.567
11124TIP3    H233295   2.318   2.769   6.691
11125TIP3   OH233296   3.735   3.178   6.900
11125TIP3    H133297   3.645   3.174   6.935
11125TIP3    H233298   3.737   3.260   6.851
11126TIP3   OH233299   4.070   2.066   7.260
11126TIP3    H133300   3.985   2.084   7.220
11126TIP3    H233301   4.133   2.091   7.193
11127TIP3   OH233302   3.333   1.684   7.233
11127TIP3    H133303   3.325   1.590   7.254
11127TIP3    H233304   3.256   1.724   7.274
11128TIP3   OH233305   3.446   3.215   6.548
11128TIP3    H133306   3.498   3.135   6.539
11128TIP3    H233307   3.506   3.285   6.524
11129TIP3   OH233308   3.582   2.981   6.519
11129TIP3    H133309   3.508   2.920   6.517
11129TIP3    H233310   3.633   2.955   6.596
11130TIP3   OH233311   3.978   3.063   7.243
11130TIP3    H133312   3.955   2.991   7.185
11130TIP3    H233313   3.963   3.142   7.191
11131TIP3   OH233314   3.257   2.475   6.514
11131TIP3    H133315   3.173   2.517   6.497
11131TIP3    H233316   3.300   2.472   6.429
11132TIP3   OH233317   3.227   2.259   6.228
11132TIP3    H133318   3.294   2.313   6.269
11132TIP3    H233319   3.276   2.196   6.175
11133TIP3   OH233320   4.147   2.734   7.111
11133TIP3    H133321   4.062   2.778   7.108
11133TIP3    H233322   4.184   2.746   7.024
11134TIP3   OH233323   3.616   2.561   6.474
11134TIP3    H133324   3.561   2.589   6.547
11134TIP3    H233325   3.699   2.536   6.514
11135TIP3   OH233326   6.808   6.796   0.129
11135TIP3    H133327   6.806   6.876   0.183
11135TIP3    H233328   6.723   6.794   0.086
11136TIP3   OH233329   2.836   2.541   6.888
11136TIP3    H133330   2.801   2.481   6.821
11136TIP3    H233331   2.912   2.494   6.923
11137TIP3   OH233332   2.973   2.966   7.022
11137TIP3    H133333   2.943   2.952   6.932
11137TIP3    H233334   3.060   2.928   7.025
11138TIP3   OH233335   2.942   2.545   7.239
11138TIP3    H133336   2.980   2.508   7.159
11138TIP3    H233337   2.992   2.625   7.254
11139TIP3   OH233338   3.490   3.182   7.020
11139TIP3    H133339   3.480   3.258   7.078
11139TIP3    H233340   3.480   3.106   7.077
11140TIP3   OH233341   6.088   7.262   0.279
11140TIP3    H133342   6.034   7.324   0.327
11140TIP3    H233343   6.026   7.214   0.224
11141TIP3   OH233344   3.447   2.416   6.308
11141TIP3    H133345   3.506   2.477   6.353
11141TIP3    H233346   3.474   2.420   6.216
11142TIP3   OH233347   5.855   6.834   0.417
11142TIP3    H133348   5.833   6.927   0.408
11142TIP3    H233349   5.810   6.792   0.344
11143TIP3   OH233350   3.197   3.092   6.567
11143TIP3    H133351   3.278   3.143   6.567
11143TIP3    H233352   3.136   3.144   6.515
11144TIP3   OH233353   5.912   7.459   0.357
11144TIP3    H133354   5.901   7.464   0.262
11144TIP3    H233355   5.822   7.459   0.391
11145TIP3   OH233356   3.958   1.646   6.367
11145TIP3    H133357   3.882   1.666   6.421
11145TIP3    H233358   3.969   1.722   6.310
11146TIP3   OH233359   2.718   2.383   6.685
11146TIP3    H133360   2.640   2.428   6.652
11146TIP3    H233361   2.688   2.295   6.708
11147TIP3   OH233362   3.785   3.026   5.920
11147TIP3    H133363   3.777   3.119   5.898
11147TIP3    H233364   3.875   3.003   5.896
11148TIP3   OH233365   5.448   6.991   0.268
11148TIP3    H133366   5.382   6.965   0.203
11148TIP3    H233367   5.491   6.910   0.293
11149TIP3   OH233368   2.404   2.984   7.241
11149TIP3    H133369   2.494   2.965   7.214
11149TIP3    H233370   2.412   3.058   7.301
11150TIP3   OH233371   7.174   7.641   0.040
11150TIP3    H133372   7.179   7.546   0.049
11150TIP3    H233373   7.092   7.665   0.083
11151TIP3   OH233374   6.279   7.413   0.154
11151TIP3    H133375   6.264   7.503   0.184
11151TIP3    H233376   6.209   7.362   0.196
11152TIP3   OH233377   3.086   3.313   6.391
11152TIP3    H133378   3.043   3.290   6.309
11152TIP3    H233379   3.046   3.396   6.417
11153TIP3   OH233380   2.516   3.174   6.767
11153TIP3    H133381   2.561   3.165   6.851
11153TIP3    H233382   2.468   3.092   6.757
11154TIP3   OH233383   3.287   3.249   6.019
11154TIP3    H133384   3.336   3.175   5.982
11154TIP3    H233385   3.324   3.261   6.106
11155TIP3   OH233386   3.340   3.293   6.290
11155TIP3    H133387   3.253   3.296   6.328
11155TIP3    H233388   3.395   3.255   6.358
11156TIP3   OH233389   7.049   6.730   0.292
11156TIP3    H133390   6.990   6.735   0.216
11156TIP3    H233391   7.080   6.639   0.291
11157TIP3   OH233392   5.626   7.192   0.227
11157TIP3    H133393   5.690   7.169   0.295
11157TIP3    H233394   5.561   7.122   0.232
11158TIP3   OH233395   6.065   5.969   0.082
11158TIP3    H133396   5.980   5.948   0.043
11158TIP3    H233397   6.050   6.053   0.127
11159TIP3   OH233398   6.647   6.123   0.304
11159TIP3    H133399   6.715   6.073   0.348
11159TIP3    H233400   6.567   6.072   0.317
11160TIP3   OH233401   6.816   6.531   0.204
11160TIP3    H133402   6.780   6.517   0.292
11160TIP3    H233403   6.797   6.622   0.184
11161TIP3   OH233404   3.531   2.385   6.047
11161TIP3    H133405   3.476   2.393   5.970
11161TIP3    H233406   3.609   2.436   6.027
11162TIP3   OH233407   3.240   1.815   6.364
11162TIP3    H133408   3.200   1.824   6.451
11162TIP3    H233409   3.200   1.737   6.328
11163TIP3   OH233410   6.030   6.527   0.103
11163TIP3    H133411   5.966   6.504   0.171
11163TIP3    H233412   5.992   6.603   0.059
11164TIP3   OH233413   2.916   2.203   6.910
11164TIP3    H133414   2.828   2.178   6.936
11164TIP3    H233415   2.926   2.169   6.821
11165TIP3   OH233416   3.383   2.271   6.650
11165TIP3    H133417   3.334   2.343   6.609
11165TIP3    H233418   3.439   2.238   6.580
11166TIP3   OH233419   6.558   6.720   0.406
11166TIP3    H133420   6.536   6.649   0.467
11166TIP3    H233421   6.652   6.731   0.414
11167TIP3   OH233422   3.547   2.282   6.873
11167TIP3    H133423   3.482   2.304   6.807
11167TIP3    H233424   3.595   2.208   6.836
11168TIP3   OH233425   5.843   6.478   0.291
11168TIP3    H133426   5.879   6.507   0.376
11168TIP3    H233427   5.813   6.389   0.308
11169TIP3   OH233428   2.901   1.804   6.332
11169TIP3    H133429   2.893   1.812   6.427
11169TIP3    H233430   2.823   1.847   6.297
11170TIP3   OH233431   2.430   1.888   7.185
11170TIP3    H133432   2.499   1.916   7.246
11170TIP3    H233433   2.426   1.957   7.119
11171TIP3   OH233434   2.347   1.836   6.695
11171TIP3    H133435   2.389   1.871   6.617
11171TIP3    H233436   2.294   1.908   6.729
11172TIP3   OH233437   6.555   6.734   0.024
11172TIP3    H133438   6.585   6.667  -0.037
11172TIP3    H233439   6.507   6.685   0.091
11173TIP3   OH233440   3.270   1.984   6.966
11173TIP3    H133441   3.191   1.984   7.020
11173TIP3    H233442   3.342   1.977   7.028
11174TIP3   OH233443   2.684   2.074   6.960
11174TIP3    H133444   2.589   2.068   6.965
11174TIP3    H233445   2.714   1.983   6.957
11175TIP3   OH233446   2.921   2.070   6.669
11175TIP3    H133447   3.016   2.080   6.655
11175TIP3    H233448   2.883   2.086   6.583
11176TIP3   OH233449   3.713   2.068   7.173
11176TIP3    H133450   3.692   2.087   7.265
11176TIP3    H233451   3.646   2.006   7.145
11177TIP3   OH233452   2.800   2.086   6.425
11177TIP3    H133453   2.737   2.039   6.370
11177TIP3    H233454   2.853   2.136   6.363
11178TIP3   OH233455   6.881   7.973   0.127
11178TIP3    H133456   6.877   7.992   0.033
11178TIP3    H233457   6.958   8.021   0.157
11179TIP3   OH233458   5.798   7.107   0.418
11179TIP3    H133459   5.889   7.106   0.447
11179TIP3    H233460   5.749   7.137   0.495
11180TIP3   OH233461   3.325   2.357   7.060
11180TIP3    H133462   3.388   2.311   7.004
11180TIP3    H233463   3.324   2.306   7.141
11181TIP3   OH233464   2.816   1.824   6.948
11181TIP3    H133465   2.779   1.749   6.993
11181TIP3    H233466   2.834   1.793   6.859
11182TIP3   OH233467   6.273   6.431   0.044
11182TIP3    H133468   6.185   6.465   0.060
11182TIP3    H233469   6.330   6.487   0.097
11183TIP3   OH233470   3.015   2.606   6.464
11183TIP3    H133471   2.940   2.552   6.439
11183TIP3    H233472   2.990   2.645   6.547
11184TIP3   OH233473   3.910   2.865   7.064
11184TIP3    H133474   3.944   2.914   6.990
11184TIP3    H233475   3.830   2.823   7.031
11185TIP3   OH233476   3.489   1.924   6.366
11185TIP3    H133477   3.397   1.900   6.362
11185TIP3    H233478   3.489   2.020   6.377
11186TIP3   OH233479   6.408   7.159   0.178
11186TIP3    H133480   6.465   7.157   0.255
11186TIP3    H233481   6.374   7.248   0.176
11187TIP3   OH233482   3.546   2.189   6.437
11187TIP3    H133483   3.641   2.195   6.445
11187TIP3    H233484   3.522   2.266   6.384
11188TIP3   OH233485   2.715   2.655   7.110
11188TIP3    H133486   2.742   2.623   7.023
11188TIP3    H233487   2.776   2.613   7.171
11189TIP3   OH233488   3.175   2.770   6.315
11189TIP3    H133489   3.127   2.853   6.309
11189TIP3    H233490   3.116   2.711   6.363
11190TIP3   OH233491   5.532   6.779   0.415
11190TIP3    H133492   5.597   6.711   0.433
11190TIP3    H233493   5.461   6.733   0.370
11191TIP3   OH233494   6.333   6.869   0.477
11191TIP3    H133495   6.259   6.818   0.444
11191TIP3    H233496   6.410   6.827   0.438
11192TIP3   OH233497   6.546   7.435   0.080
11192TIP3    H133498   6.451   7.429   0.082
11192TIP3    H233499   6.569   7.475   0.164
11193TIP3   OH233500   3.962   2.275   6.251
11193TIP3    H133501   3.907   2.228   6.187
11193TIP3    H233502   3.965   2.365   6.218
11194TIP3   OH233503   7.187   7.366   0.062
11194TIP3    H133504   7.095   7.341   0.067
11194TIP3    H233505   7.218   7.327  -0.020
11195TIP3   OH233506   3.705   3.090   6.185
11195TIP3    H133507   3.670   3.019   6.240
11195TIP3    H233508   3.721   3.049   6.100
11196TIP3   OH233509   3.680   2.728   6.965
11196TIP3    H133510   3.589   2.705   6.984
11196TIP3    H233511   3.717   2.649   6.925
11197TIP3   OH233512   2.835   2.964   6.779
11197TIP3    H133513   2.837   3.041   6.722
11197TIP3    H233514   2.742   2.943   6.787
11198TIP3   OH233515   2.399   2.254   6.482
11198TIP3    H133516   2.444   2.335   6.505
11198TIP3    H233517   2.318   2.257   6.533
11199TIP3   OH233518   2.927   2.718   6.693
11199TIP3    H133519   2.910   2.808   6.720
11199TIP3    H233520   2.896   2.664   6.766
11200TIP3   OH233521   3.132   3.292   7.211
11200TIP3    H133522   3.165   3.367   7.163
11200TIP3    H233523   3.209   3.259   7.260
11201TIP3   OH233524   2.756   3.187   6.629
11201TIP3    H133525   2.667   3.197   6.664
11201TIP3    H233526   2.792   3.276   6.632
11202TIP3   OH233527   3.478   2.949   7.174
11202TIP3    H133528   3.470   2.947   7.269
11202TIP3    H233529   3.548   2.887   7.154
11203TIP3   OH233530   3.476   2.832   6.064
11203TIP3    H133531   3.523   2.804   6.142
11203TIP3    H233532   3.392   2.788   6.069
11204TIP3   OH233533   3.734   3.449   7.236
11204TIP3    H133534   3.662   3.388   7.253
11204TIP3    H233535   3.702   3.505   7.165
11205TIP3   OH233536   3.772   3.298   5.873
11205TIP3    H133537   3.773   3.351   5.793
11205TIP3    H233538   3.706   3.340   5.928
11206TIP3   OH233539   5.761   6.231   0.387
11206TIP3    H133540   5.673   6.267   0.385
11206TIP3    H233541   5.749   6.139   0.410
11207TIP3   OH233542   3.640   2.744   6.265
11207TIP3    H133543   3.623   2.691   6.342
11207TIP3    H233544   3.735   2.751   6.260
11208TIP3   OH233545   5.487   7.404   0.121
11208TIP3    H133546   5.543   7.339   0.162
11208TIP3    H233547   5.523   7.488   0.148
11209TIP3   OH233548   2.816   2.795   6.090
11209TIP3    H133549   2.826   2.705   6.061
11209TIP3    H233550   2.800   2.788   6.184
11210TIP3   OH233551   2.758   2.811   6.363
11210TIP3    H133552   2.831   2.787   6.420
11210TIP3    H233553   2.755   2.906   6.365
11211TIP3   OH233554   2.493   2.502   6.572
11211TIP3    H133555   2.428   2.551   6.622
11211TIP3    H233556   2.515   2.558   6.498
11212TIP3   OH233557   6.619   6.346   0.159
11212TIP3    H133558   6.699   6.396   0.176
11212TIP3    H233559   6.627   6.268   0.215
11213TIP3   OH233560   3.551   1.877   6.632
11213TIP3    H133561   3.529   1.895   6.541
11213TIP3    H233562   3.592   1.957   6.664
11214TIP3   OH233563   3.028   2.998   6.304
11214TIP3    H133564   2.942   3.024   6.337
11214TIP3    H233565   3.052   3.067   6.242
11215TIP3   OH233566   3.200   2.074   6.714
11215TIP3    H133567   3.261   2.144   6.690
11215TIP3    H233568   3.222   2.054   6.805
11216TIP3   OH233569   6.450   6.558   0.207
11216TIP3    H133570   6.481   6.607   0.283
11216TIP3    H233571   6.506   6.481   0.203
11217TIP3   OH233572   3.362   1.774   6.802
11217TIP3    H133573   3.340   1.851   6.854
11217TIP3    H233574   3.432   1.803   6.744
11218TIP3   OH233575   2.777   3.083   6.376
11218TIP3    H133576   2.759   3.154   6.314
11218TIP3    H233577   2.767   3.123   6.462
11219TIP3   OH233578   2.870   1.797   6.615
11219TIP3    H133579   2.858   1.889   6.640
11219TIP3    H233580   2.964   1.782   6.621
11220TIP3   OH233581   7.074   6.455   0.198
11220TIP3    H133582   6.981   6.476   0.205
11220TIP3    H233583   7.079   6.390   0.128
11221TIP3   OH233584   3.775   2.471   6.874
11221TIP3    H133585   3.697   2.416   6.884
11221TIP3    H233586   3.841   2.429   6.930
11222TIP3   OH233587   2.516   2.676   6.354
11222TIP3    H133588   2.587   2.739   6.362
11222TIP3    H233589   2.547   2.614   6.288
11223TIP3   OH233590   2.421   1.977   6.473
11223TIP3    H133591   2.435   2.071   6.486
11223TIP3    H233592   2.379   1.970   6.388
11224TIP3   OH233593   3.753   3.442   6.812
11224TIP3    H133594   3.709   3.496   6.747
11224TIP3    H233595   3.846   3.457   6.797
11225TIP3   OH233596   5.793   5.923   0.030
11225TIP3    H133597   5.755   5.895  -0.053
11225TIP3    H233598   5.797   5.843   0.083
11226TIP3   OH233599   2.342   2.951   6.742
11226TIP3    H133600   2.300   2.987   6.820
11226TIP3    H233601   2.297   2.993   6.669
11227TIP3   OH233602   5.544   7.709   0.517
11227TIP3    H133603   5.628   7.723   0.561
11227TIP3    H233604   5.550   7.621   0.481
11228TIP3   OH233605   6.035   7.617   0.540
11228TIP3    H133606   6.120   7.579   0.565
11228TIP3    H233607   6.006   7.565   0.465
11229TIP3   OH233608   2.971   2.995   5.981
11229TIP3    H133609   2.922   2.924   6.022
11229TIP3    H233610   3.043   2.951   5.936
11230TIP3   OH233611   6.599   7.538   0.326
11230TIP3    H133612   6.603   7.466   0.389
11230TIP3    H233613   6.676   7.591   0.345
11231TIP3   OH233614   3.412   3.039   5.896
11231TIP3    H133615   3.450   2.974   5.955
11231TIP3    H233616   3.466   3.034   5.817
11232TIP3   OH233617   5.636   7.163   0.629
11232TIP3    H133618   5.621   7.069   0.641
11232TIP3    H233619   5.560   7.193   0.579
11233TIP3   OH233620   2.635   2.485   6.200
11233TIP3    H133621   2.688   2.462   6.276
11233TIP3    H233622   2.699   2.500   6.130
11234TIP3   OH233623   6.284   7.143   0.438
11234TIP3    H133624   6.243   7.169   0.356
11234TIP3    H233625   6.319   7.055   0.420
11235TIP3   OH233626   3.230   2.711   6.052
11235TIP3    H133627   3.203   2.725   6.143
11235TIP3    H233628   3.214   2.618   6.036
11236TIP3   OH233629   6.714   7.216   0.126
11236TIP3    H133630   6.793   7.241   0.077
11236TIP3    H233631   6.650   7.283   0.103
11237TIP3   OH233632   5.881   6.763   0.685
11237TIP3    H133633   5.868   6.801   0.598
11237TIP3    H233634   5.810   6.798   0.737
11238TIP3   OH233635   2.808   2.428   6.414
11238TIP3    H133636   2.790   2.396   6.502
11238TIP3    H233637   2.858   2.358   6.372
11239TIP3   OH233638   6.117   6.726   0.377
11239TIP3    H133639   6.028   6.760   0.385
11239TIP3    H233640   6.147   6.755   0.291
11240TIP3   OH233641   2.951   2.244   6.262
11240TIP3    H133642   2.925   2.250   6.170
11240TIP3    H233643   3.047   2.246   6.260
11241TIP3   OH233644   6.609   7.080   0.456
11241TIP3    H133645   6.683   7.066   0.397
11241TIP3    H233646   6.611   7.005   0.516
11242TIP3   OH233647   3.745   2.527   5.936
11242TIP3    H133648   3.731   2.490   5.849
11242TIP3    H233649   3.724   2.620   5.926
11243TIP3   OH233650   6.218   6.481   0.447
11243TIP3    H133651   6.219   6.414   0.379
11243TIP3    H233652   6.172   6.555   0.407
11244TIP3   OH233653   6.246   6.267   0.268
11244TIP3    H133654   6.268   6.311   0.186
11244TIP3    H233655   6.155   6.239   0.257
11245TIP3   OH233656   6.235   6.832   0.157
11245TIP3    H133657   6.319   6.857   0.118
11245TIP3    H233658   6.170   6.883   0.109
11246TIP3   OH233659   6.832   6.716   0.466
11246TIP3    H133660   6.852   6.627   0.495
11246TIP3    H233661   6.908   6.743   0.415
11247TIP3   OH233662   6.830   7.032   0.285
11247TIP3    H133663   6.781   7.096   0.233
11247TIP3    H233664   6.921   7.043   0.256
11248TIP3   OH233665   6.199   6.588   0.701
11248TIP3    H133666   6.133   6.523   0.728
11248TIP3    H233667   6.202   6.580   0.605
11249TIP3   OH233668   6.386   6.031   0.270
11249TIP3    H133669   6.341   6.114   0.256
11249TIP3    H233670   6.319   5.973   0.306
11250TIP3   OH233671   6.469   6.500   0.546
11250TIP3    H133672   6.463   6.548   0.629
11250TIP3    H233673   6.378   6.486   0.520
11251TIP3   OH233674   6.713   6.451   0.438
11251TIP3    H133675   6.624   6.450   0.474
11251TIP3    H233676   6.769   6.429   0.512
11252TIP3   OH233677   6.974   6.454   0.574
11252TIP3    H133678   6.987   6.359   0.571
11252TIP3    H233679   6.963   6.474   0.667
11253TIP3   OH233680   6.020   6.404   0.787
11253TIP3    H133681   5.970   6.340   0.736
11253TIP3    H233682   5.953   6.454   0.834
11254TIP3   OH233683   6.364   6.171   0.522
11254TIP3    H133684   6.421   6.098   0.499
11254TIP3    H233685   6.348   6.217   0.439
11255TIP3   OH233686   6.533   6.244   0.728
11255TIP3    H133687   6.488   6.220   0.646
11255TIP3    H233688   6.467   6.291   0.778
11256TIP3   OH233689   2.779   3.292   6.195
11256TIP3    H133690   2.868   3.272   6.166
11256TIP3    H233691   2.738   3.337   6.120
11257TIP3   OH233692   2.242   2.674   6.370
11257TIP3    H133693   2.337   2.685   6.364
11257TIP3    H233694   2.226   2.588   6.330
11258TIP3   OH233695   2.138   3.256   6.829
11258TIP3    H133696   2.076   3.201   6.780
11258TIP3    H233697   2.185   3.195   6.885
11259TIP3   OH233698   2.289   3.090   6.991
11259TIP3    H133699   2.285   3.026   7.062
11259TIP3    H233700   2.340   3.163   7.028
11260TIP3   OH233701   4.023   3.496   6.804
11260TIP3    H133702   4.042   3.527   6.892
11260TIP3    H233703   4.076   3.552   6.747
11261TIP3   OH233704   4.040   3.529   7.083
11261TIP3    H133705   3.996   3.444   7.080
11261TIP3    H233706   4.112   3.517   7.145
11262TIP3   OH233707   7.056   7.426   0.379
11262TIP3    H133708   6.978   7.441   0.432
11262TIP3    H233709   7.103   7.509   0.383
11263TIP3   OH233710   3.919   2.742   6.267
11263TIP3    H133711   3.975   2.815   6.238
11263TIP3    H233712   3.965   2.705   6.342
11264TIP3   OH233713   4.047   2.597   6.469
11264TIP3    H133714   3.977   2.560   6.523
11264TIP3    H233715   4.109   2.634   6.532
11265TIP3   OH233716   4.097   3.004   6.907
11265TIP3    H133717   4.146   2.938   6.860
11265TIP3    H233718   4.096   3.080   6.849
11266TIP3   OH233719   3.906   3.283   7.095
11266TIP3    H133720   3.839   3.332   7.143
11266TIP3    H233721   3.858   3.244   7.021
11267TIP3   OH233722   3.953   2.515   6.115
11267TIP3    H133723   3.881   2.513   6.052
11267TIP3    H233724   3.937   2.594   6.167
11268TIP3   OH233725   3.818   2.159   6.049
11268TIP3    H133726   3.765   2.201   5.982
11268TIP3    H233727   3.807   2.065   6.032
11269TIP3   OH233728   3.844   2.461   6.605
11269TIP3    H133729   3.846   2.367   6.589
11269TIP3    H233730   3.824   2.470   6.698
11270TIP3   OH233731   7.083   7.073   0.186
11270TIP3    H133732   7.153   7.009   0.173
11270TIP3    H233733   7.079   7.122   0.104
11271TIP3   OH233734   7.266   6.869   0.193
11271TIP3    H133735   7.194   6.824   0.238
11271TIP3    H233736   7.344   6.818   0.217
11272TIP3   OH233737   3.777   1.885   6.020
11272TIP3    H133738   3.836   1.865   6.093
11272TIP3    H233739   3.691   1.855   6.050
11273TIP3   OH233740   3.839   2.186   6.493
11273TIP3    H133741   3.884   2.102   6.505
11273TIP3    H233742   3.879   2.223   6.415
11274TIP3   OH233743   3.991   2.348   7.016
11274TIP3    H133744   4.072   2.365   6.967
11274TIP3    H233745   4.005   2.389   7.101
11275TIP3   OH233746   4.061   2.506   7.239
11275TIP3    H133747   3.979   2.535   7.279
11275TIP3    H233748   4.096   2.585   7.196
11276TIP3   OH233749   5.602   6.411   0.804
11276TIP3    H133750   5.672   6.389   0.741
11276TIP3    H233751   5.567   6.326   0.830
11277TIP3   OH233752   7.505   6.312   0.460
11277TIP3    H133753   7.566   6.249   0.422
11277TIP3    H233754   7.471   6.361   0.386
11278TIP3   OH233755   3.954   1.935   6.543
11278TIP3    H133756   3.998   1.920   6.627
11278TIP3    H233757   3.891   1.864   6.535
11279TIP3   OH233758   5.608   6.121   0.099
11279TIP3    H133759   5.682   6.063   0.076
11279TIP3    H233760   5.641   6.209   0.084
11280TIP3   OH233761   7.350   6.433   0.273
11280TIP3    H133762   7.281   6.471   0.328
11280TIP3    H233763   7.306   6.362   0.226
11281TIP3   OH233764   4.001   1.847   6.184
11281TIP3    H133765   4.049   1.786   6.128
11281TIP3    H233766   4.055   1.926   6.186
11282TIP3   OH233767   2.414   1.674   6.902
11282TIP3    H133768   2.328   1.675   6.945
11282TIP3    H233769   2.409   1.743   6.836
11283TIP3   OH233770   3.599   3.414   6.453
11283TIP3    H133771   3.647   3.396   6.373
11283TIP3    H233772   3.637   3.495   6.487
11284TIP3   OH233773   5.638   5.946   0.349
11284TIP3    H133774   5.578   6.013   0.379
11284TIP3    H233775   5.609   5.925   0.260
11285TIP3   OH233776   5.654   7.462   0.446
11285TIP3    H133777   5.576   7.408   0.435
11285TIP3    H233778   5.691   7.433   0.530
11286TIP3   OH233779   5.874   7.454   0.089
11286TIP3    H133780   5.818   7.526   0.059
11286TIP3    H233781   5.955   7.465   0.039
11287TIP3   OH233782   6.249   7.674   0.238
11287TIP3    H133783   6.287   7.670   0.326
11287TIP3    H233784   6.310   7.729   0.188
11288TIP3   OH233785   6.439   7.830   0.118
11288TIP3    H133786   6.496   7.781   0.059
11288TIP3    H233787   6.499   7.887   0.167
11289TIP3   OH233788   7.249   6.170   0.196
11289TIP3    H133789   7.163   6.169   0.153
11289TIP3    H233790   7.282   6.081   0.183
11290TIP3   OH233791   5.515   7.685   0.154
11290TIP3    H133792   5.426   7.707   0.126
11290TIP3    H233793   5.540   7.757   0.212
11291TIP3   OH233794   2.777   3.480   7.267
11291TIP3    H133795   2.694   3.485   7.316
11291TIP3    H233796   2.754   3.507   7.178
11292TIP3   OH233797   3.201   3.506   7.057
11292TIP3    H133798   3.129   3.514   6.995
11292TIP3    H233799   3.211   3.594   7.094
11293TIP3   OH233800   3.460   3.441   7.124
11293TIP3    H133801   3.370   3.460   7.096
11293TIP3    H233802   3.514   3.501   7.073
11294TIP3   OH233803   3.660   3.603   7.016
11294TIP3    H133804   3.660   3.691   6.978
11294TIP3    H233805   3.689   3.546   6.944
11295TIP3   OH233806   2.453   3.281   7.130
11295TIP3    H133807   2.475   3.260   7.221
11295TIP3    H233808   2.528   3.247   7.080
11296TIP3   OH233809   2.663   3.165   7.003
11296TIP3    H133810   2.675   3.081   7.047
11296TIP3    H233811   2.750   3.204   7.001
11297TIP3   OH233812   2.933   3.243   7.022
11297TIP3    H133813   2.949   3.150   7.007
11297TIP3    H233814   2.996   3.267   7.090
11298TIP3   OH233815   3.497   1.894   7.102
11298TIP3    H133816   3.450   1.824   7.148
11298TIP3    H233817   3.567   1.849   7.055
11299TIP3   OH233818   3.993   1.811   7.008
11299TIP3    H133819   4.027   1.859   6.933
11299TIP3    H233820   3.899   1.825   7.005
11300TIP3   OH233821   4.108   1.881   6.768
11300TIP3    H133822   4.177   1.820   6.741
11300TIP3    H233823   4.146   1.968   6.756
11301TIP3   OH233824   2.723   1.597   7.075
11301TIP3    H133825   2.633   1.567   7.062
11301TIP3    H233826   2.777   1.518   7.069
11302TIP3   OH233827   2.550   1.488   6.747
11302TIP3    H133828   2.580   1.540   6.673
11302TIP3    H233829   2.507   1.551   6.805
11303TIP3   OH233830   3.211   1.634   6.988
11303TIP3    H133831   3.257   1.683   6.919
11303TIP3    H233832   3.253   1.662   7.069
11304TIP3   OH233833   3.711   1.765   6.985
11304TIP3    H133834   3.724   1.728   6.897
11304TIP3    H233835   3.718   1.690   7.044
11305TIP3   OH233836   3.769   1.724   6.551
11305TIP3    H133837   3.690   1.772   6.575
11305TIP3    H233838   3.757   1.637   6.589
11306TIP3   OH233839   2.217   3.073   6.531
11306TIP3    H133840   2.137   3.042   6.490
11306TIP3    H233841   2.227   3.163   6.499
11307TIP3   OH233842   2.663   1.626   6.523
11307TIP3    H133843   2.710   1.568   6.464
11307TIP3    H233844   2.730   1.684   6.559
11308TIP3   OH233845   3.144   1.821   6.625
11308TIP3    H133846   3.206   1.770   6.678
11308TIP3    H233847   3.161   1.912   6.651
11309TIP3   OH233848   3.034   3.217   6.125
11309TIP3    H133849   3.116   3.247   6.084
11309TIP3    H233850   3.003   3.147   6.067
11310TIP3   OH233851   3.738   3.359   6.221
11310TIP3    H133852   3.730   3.264   6.212
11310TIP3    H233853   3.693   3.394   6.144
11311TIP3   OH233854   5.875   6.057   0.742
11311TIP3    H133855   5.873   6.041   0.837
11311TIP3    H233856   5.967   6.080   0.724
11312TIP3   OH233857   6.095   5.929   0.867
11312TIP3    H133858   6.184   5.938   0.834
11312TIP3    H233859   6.084   6.004   0.927
11313TIP3   OH233860   2.344   3.063   6.179
11313TIP3    H133861   2.350   3.080   6.273
11313TIP3    H233862   2.424   3.015   6.157
11314TIP3   OH233863   7.024   6.188   0.605
11314TIP3    H133864   7.026   6.135   0.685
11314TIP3    H233865   7.112   6.181   0.569
11315TIP3   OH233866   6.921   7.702   0.127
11315TIP3    H133867   6.847   7.670   0.075
11315TIP3    H233868   6.908   7.796   0.134
11316TIP3   OH233869   5.257   2.849   6.152
11316TIP3    H133870   5.244   2.931   6.105
11316TIP3    H233871   5.169   2.812   6.161
11317TIP3   OH233872   5.242   2.860   6.558
11317TIP3    H133873   5.284   2.856   6.643
11317TIP3    H233874   5.197   2.775   6.549
11318TIP3   OH233875   4.526   2.747   6.919
11318TIP3    H133876   4.562   2.693   6.989
11318TIP3    H233877   4.603   2.771   6.866
11319TIP3   OH233878   5.493   3.181   6.253
11319TIP3    H133879   5.482   3.124   6.329
11319TIP3    H233880   5.517   3.266   6.290
11320TIP3   OH233881   4.522   3.174   6.608
11320TIP3    H133882   4.503   3.081   6.616
11320TIP3    H233883   4.617   3.179   6.596
11321TIP3   OH233884   4.200   2.375   6.387
11321TIP3    H133885   4.159   2.458   6.412
11321TIP3    H233886   4.129   2.325   6.346
11322TIP3   OH233887   4.274   2.680   6.613
11322TIP3    H133888   4.326   2.603   6.637
11322TIP3    H233889   4.338   2.742   6.579
11323TIP3   OH233890   5.145   3.625   6.249
11323TIP3    H133891   5.174   3.559   6.186
11323TIP3    H233892   5.130   3.576   6.330
11324TIP3   OH233893   5.038   3.102   6.574
11324TIP3    H133894   5.078   3.025   6.535
11324TIP3    H233895   5.111   3.151   6.612
11325TIP3   OH233896   6.063   2.425   6.593
11325TIP3    H133897   6.082   2.507   6.638
11325TIP3    H233898   6.105   2.433   6.508
11326TIP3   OH233899   5.425   2.585   6.596
11326TIP3    H133900   5.468   2.503   6.617
11326TIP3    H233901   5.332   2.562   6.588
11327TIP3   OH233902   4.798   2.251   6.567
11327TIP3    H133903   4.768   2.321   6.508
11327TIP3    H233904   4.746   2.175   6.541
11328TIP3   OH233905   5.478   2.382   6.203
11328TIP3    H133906   5.540   2.369   6.275
11328TIP3    H233907   5.533   2.395   6.126
11329TIP3   OH233908   4.420   2.461   6.700
11329TIP3    H133909   4.502   2.441   6.744
11329TIP3    H233910   4.422   2.410   6.620
11330TIP3   OH233911   4.845   2.652   6.518
11330TIP3    H133912   4.937   2.627   6.515
11330TIP3    H233913   4.799   2.576   6.484
11331TIP3   OH233914   6.123   2.643   6.755
11331TIP3    H133915   6.033   2.676   6.757
11331TIP3    H233916   6.162   2.676   6.837
11332TIP3   OH233917   4.774   2.252   7.024
11332TIP3    H133918   4.722   2.284   6.951
11332TIP3    H233919   4.719   2.267   7.101
11333TIP3   OH233920   5.157   3.066   6.006
11333TIP3    H133921   5.108   3.043   5.926
11333TIP3    H233922   5.109   3.139   6.043
11334TIP3   OH233923   4.868   3.030   6.783
11334TIP3    H133924   4.813   3.100   6.819
11334TIP3    H233925   4.915   3.071   6.711
11335TIP3   OH233926   5.654   2.391   6.415
11335TIP3    H133927   5.621   2.362   6.501
11335TIP3    H233928   5.714   2.463   6.435
11336TIP3   OH233929   4.667   2.357   6.791
11336TIP3    H133930   4.722   2.431   6.816
11336TIP3    H233931   4.715   2.316   6.718
11337TIP3   OH233932   4.714   3.231   6.894
11337TIP3    H133933   4.699   3.320   6.863
11337TIP3    H233934   4.636   3.211   6.946
11338TIP3   OH233935   4.088   2.935   6.149
11338TIP3    H133936   4.050   2.951   6.063
11338TIP3    H233937   4.108   3.022   6.183
11339TIP3   OH233938   5.533   3.433   6.378
11339TIP3    H133939   5.448   3.425   6.423
11339TIP3    H233940   5.529   3.518   6.335
11340TIP3   OH233941   5.860   2.323   6.762
11340TIP3    H133942   5.777   2.343   6.720
11340TIP3    H233943   5.927   2.346   6.697
11341TIP3   OH233944   5.117   1.943   6.750
11341TIP3    H133945   5.112   1.851   6.777
11341TIP3    H233946   5.040   1.983   6.790
11342TIP3   OH233947   5.240   3.470   6.037
11342TIP3    H133948   5.290   3.388   6.031
11342TIP3    H233949   5.303   3.538   6.013
11343TIP3   OH233950   5.379   3.236   6.008
11343TIP3    H133951   5.310   3.171   6.001
11343TIP3    H233952   5.426   3.214   6.088
11344TIP3   OH233953   5.772   3.330   6.738
11344TIP3    H133954   5.756   3.255   6.681
11344TIP3    H233955   5.756   3.406   6.682
11345TIP3   OH233956   5.005   2.541   5.685
11345TIP3    H133957   5.056   2.594   5.747
11345TIP3    H233958   5.067   2.474   5.655
11346TIP3   OH233959   5.944   2.981   6.602
11346TIP3    H133960   5.862   3.031   6.598
11346TIP3    H233961   5.985   2.996   6.517
11347TIP3   OH233962   5.646   2.845   6.913
11347TIP3    H133963   5.644   2.929   6.959
11347TIP3    H233964   5.565   2.844   6.862
11348TIP3   OH233965   4.634   2.787   6.375
11348TIP3    H133966   4.594   2.733   6.308
11348TIP3    H233967   4.707   2.734   6.409
11349TIP3   OH233968   4.782   3.221   6.505
11349TIP3    H133969   4.753   3.207   6.415
11349TIP3    H233970   4.870   3.183   6.509
11350TIP3   OH233971   4.743   2.788   6.742
11350TIP3    H133972   4.781   2.752   6.662
11350TIP3    H233973   4.789   2.872   6.755
11351TIP3   OH233974   5.306   3.420   6.526
11351TIP3    H133975   5.283   3.503   6.568
11351TIP3    H233976   5.281   3.353   6.591
11352TIP3   OH233977   4.911   3.326   7.065
11352TIP3    H133978   4.851   3.384   7.111
11352TIP3    H233979   4.855   3.276   7.006
11353TIP3   OH233980   4.665   2.872   7.210
11353TIP3    H133981   4.669   2.966   7.226
11353TIP3    H233982   4.572   2.853   7.201
11354TIP3   OH233983   5.018   3.298   6.055
11354TIP3    H133984   5.074   3.375   6.053
11354TIP3    H233985   4.949   3.316   5.990
11355TIP3   OH233986   4.704   3.486   7.150
11355TIP3    H133987   4.677   3.498   7.059
11355TIP3    H233988   4.622   3.470   7.198
11356TIP3   OH233989   5.700   1.982   5.878
11356TIP3    H133990   5.639   1.912   5.856
11356TIP3    H233991   5.662   2.060   5.837
11357TIP3   OH233992   4.507   2.638   6.171
11357TIP3    H133993   4.433   2.689   6.138
11357TIP3    H233994   4.471   2.550   6.185
11358TIP3   OH233995   5.587   3.285   5.419
11358TIP3    H133996   5.576   3.374   5.386
11358TIP3    H233997   5.673   3.259   5.387
11359TIP3   OH233998   4.298   3.042   7.101
11359TIP3    H133999   4.228   3.026   7.038
11359TIP3    H234000   4.331   2.955   7.123
11360TIP3   OH234001   4.135   3.243   6.761
11360TIP3    H134002   4.224   3.273   6.780
11360TIP3    H234003   4.080   3.318   6.781
11361TIP3   OH234004   5.974   3.717   6.791
11361TIP3    H134005   6.004   3.626   6.790
11361TIP3    H234006   5.885   3.713   6.824
11362TIP3   OH234007   5.098   3.471   6.927
11362TIP3    H134008   5.090   3.562   6.955
11362TIP3    H234009   5.030   3.425   6.975
11363TIP3   OH234010   4.890   3.595   5.863
11363TIP3    H134011   4.835   3.566   5.790
11363TIP3    H234012   4.844   3.671   5.899
11364TIP3   OH234013   4.316   3.423   6.251
11364TIP3    H134014   4.356   3.415   6.338
11364TIP3    H234015   4.263   3.344   6.242
11365TIP3   OH234016   5.085   3.512   5.506
11365TIP3    H134017   5.133   3.438   5.468
11365TIP3    H234018   5.119   3.520   5.595
11366TIP3   OH234019   5.141   3.545   5.777
11366TIP3    H134020   5.052   3.559   5.809
11366TIP3    H234021   5.188   3.510   5.853
11367TIP3   OH234022   5.884   2.797   7.075
11367TIP3    H134023   5.802   2.802   7.026
11367TIP3    H234024   5.903   2.704   7.080
11368TIP3   OH234025   4.499   3.228   7.067
11368TIP3    H134026   4.547   3.216   7.148
11368TIP3    H234027   4.426   3.167   7.073
11369TIP3   OH234028   4.881   2.039   6.877
11369TIP3    H134029   4.798   2.002   6.846
11369TIP3    H234030   4.857   2.117   6.926
11370TIP3   OH234031   5.418   2.163   7.080
11370TIP3    H134032   5.487   2.137   7.140
11370TIP3    H234033   5.337   2.146   7.128
11371TIP3   OH234034   5.639   2.580   6.998
11371TIP3    H134035   5.601   2.574   7.085
11371TIP3    H234036   5.627   2.671   6.972
11372TIP3   OH234037   5.324   2.611   5.520
11372TIP3    H134038   5.283   2.627   5.435
11372TIP3    H234039   5.400   2.669   5.521
11373TIP3   OH234040   5.024   2.074   5.855
11373TIP3    H134041   4.987   2.075   5.943
11373TIP3    H234042   4.994   1.992   5.816
11374TIP3   OH234043   4.818   2.568   6.892
11374TIP3    H134044   4.771   2.574   6.975
11374TIP3    H234045   4.794   2.648   6.845
11375TIP3   OH234046   4.696   2.450   6.407
11375TIP3    H134047   4.607   2.424   6.430
11375TIP3    H234048   4.708   2.416   6.318
11376TIP3   OH234049   5.363   2.790   7.211
11376TIP3    H134050   5.336   2.722   7.273
11376TIP3    H234051   5.455   2.806   7.231
11377TIP3   OH234052   5.313   2.586   6.291
11377TIP3    H134053   5.249   2.556   6.356
11377TIP3    H234054   5.358   2.506   6.263
11378TIP3   OH234055   4.655   2.585   7.112
11378TIP3    H134056   4.659   2.649   7.183
11378TIP3    H234057   4.634   2.503   7.155
11379TIP3   OH234058   4.696   2.055   5.826
11379TIP3    H134059   4.686   2.059   5.921
11379TIP3    H234060   4.618   2.099   5.792
11380TIP3   OH234061   4.241   2.102   6.691
11380TIP3    H134062   4.318   2.136   6.737
11380TIP3    H234063   4.275   2.078   6.604
11381TIP3   OH234064   4.152   2.081   6.192
11381TIP3    H134065   4.196   2.117   6.115
11381TIP3    H234066   4.087   2.147   6.216
11382TIP3   OH234067   5.401   2.788   6.782
11382TIP3    H134068   5.423   2.718   6.721
11382TIP3    H234069   5.356   2.744   6.854
11383TIP3   OH234070   5.065   2.304   6.488
11383TIP3    H134071   4.982   2.275   6.526
11383TIP3    H234072   5.127   2.235   6.512
11384TIP3   OH234073   4.459   2.322   6.467
11384TIP3    H134074   4.371   2.328   6.431
11384TIP3    H234075   4.485   2.231   6.454
11385TIP3   OH234076   4.726   2.328   6.164
11385TIP3    H134077   4.820   2.334   6.147
11385TIP3    H234078   4.685   2.342   6.078
11386TIP3   OH234079   5.533   2.335   6.663
11386TIP3    H134080   5.506   2.351   6.754
11386TIP3    H234081   5.499   2.248   6.643
11387TIP3   OH234082   4.598   2.344   5.922
11387TIP3    H134083   4.532   2.295   5.874
11387TIP3    H234084   4.647   2.392   5.855
11388TIP3   OH234085   5.710   4.019   6.886
11388TIP3    H134086   5.702   4.039   6.793
11388TIP3    H234087   5.789   4.066   6.914
11389TIP3   OH234088   7.619   7.334   0.035
11389TIP3    H134089   7.698   7.355   0.083
11389TIP3    H234090   7.548   7.346   0.099
11390TIP3   OH234091   5.146   2.555   6.563
11390TIP3    H134092   5.118   2.469   6.532
11390TIP3    H234093   5.126   2.554   6.657
11391TIP3   OH234094   4.606   2.072   6.459
11391TIP3    H134095   4.576   1.999   6.512
11391TIP3    H234096   4.626   2.034   6.374
11392TIP3   OH234097   5.086   2.533   6.830
11392TIP3    H134098   4.997   2.556   6.858
11392TIP3    H234099   5.143   2.581   6.889
11393TIP3   OH234100   4.766   2.915   5.938
11393TIP3    H134101   4.714   2.835   5.928
11393TIP3    H234102   4.769   2.930   6.032
11394TIP3   OH234103   5.712   3.128   6.561
11394TIP3    H134104   5.751   3.176   6.487
11394TIP3    H234105   5.630   3.095   6.526
11395TIP3   OH234106   5.229   2.250   5.846
11395TIP3    H134107   5.152   2.193   5.848
11395TIP3    H234108   5.215   2.307   5.769
11396TIP3   OH234109   5.221   3.199   6.972
11396TIP3    H134110   5.271   3.189   7.053
11396TIP3    H234111   5.180   3.285   6.979
11397TIP3   OH234112   4.512   2.887   6.601
11397TIP3    H134113   4.547   2.864   6.515
11397TIP3    H234114   4.575   2.852   6.664
11398TIP3   OH234115   4.969   3.031   5.799
11398TIP3    H134116   4.937   3.122   5.797
11398TIP3    H234117   4.900   2.983   5.845
11399TIP3   OH234118   4.393   2.804   7.228
11399TIP3    H134119   4.391   2.779   7.320
11399TIP3    H234120   4.317   2.760   7.190
11400TIP3   OH234121   5.132   2.946   7.250
11400TIP3    H134122   5.062   2.885   7.226
11400TIP3    H234123   5.213   2.903   7.223
11401TIP3   OH234124   5.368   3.485   6.854
11401TIP3    H134125   5.273   3.474   6.858
11401TIP3    H234126   5.391   3.525   6.937
11402TIP3   OH234127   5.767   2.530   5.735
11402TIP3    H134128   5.715   2.477   5.675
11402TIP3    H234129   5.767   2.617   5.695
11403TIP3   OH234130   6.013   3.443   6.823
11403TIP3    H134131   5.922   3.412   6.827
11403TIP3    H234132   6.048   3.403   6.744
11404TIP3   OH234133   5.561   3.366   5.688
11404TIP3    H134134   5.501   3.313   5.740
11404TIP3    H234135   5.555   3.329   5.600
11405TIP3   OH234136   5.477   2.998   6.465
11405TIP3    H134137   5.389   2.978   6.496
11405TIP3    H234138   5.516   2.912   6.448
11406TIP3   OH234139   4.635   3.213   6.265
11406TIP3    H134140   4.631   3.289   6.207
11406TIP3    H234141   4.544   3.199   6.293
11407TIP3   OH234142   4.194   2.509   5.983
11407TIP3    H134143   4.234   2.594   6.002
11407TIP3    H234144   4.112   2.509   6.032
11408TIP3   OH234145   4.755   2.970   6.204
11408TIP3    H134146   4.722   3.058   6.219
11408TIP3    H234147   4.710   2.916   6.269
11409TIP3   OH234148   4.916   3.545   6.718
11409TIP3    H134149   4.951   3.619   6.669
11409TIP3    H234150   4.991   3.514   6.770
11410TIP3   OH234151   4.556   3.437   6.117
11410TIP3    H134152   4.467   3.445   6.151
11410TIP3    H234153   4.591   3.526   6.120
11411TIP3   OH234154   5.271   3.196   6.701
11411TIP3    H134155   5.248   3.194   6.794
11411TIP3    H234156   5.364   3.175   6.699
11412TIP3   OH234157   5.261   3.092   5.543
11412TIP3    H134158   5.312   3.066   5.620
11412TIP3    H234159   5.178   3.044   5.552
11413TIP3   OH234160   5.518   3.701   6.730
11413TIP3    H134161   5.444   3.642   6.743
11413TIP3    H234162   5.491   3.759   6.658
11414TIP3   OH234163   5.569   3.555   5.363
11414TIP3    H134164   5.561   3.602   5.280
11414TIP3    H234165   5.510   3.602   5.422
11415TIP3   OH234166   4.598   2.333   7.227
11415TIP3    H134167   4.503   2.343   7.230
11415TIP3    H234168   4.618   2.277   7.303
11416TIP3   OH234169   5.436   3.015   5.740
11416TIP3    H134170   5.412   2.977   5.825
11416TIP3    H234171   5.531   3.013   5.739
11417TIP3   OH234172   4.344   3.439   6.877
11417TIP3    H134173   4.399   3.382   6.931
11417TIP3    H234174   4.357   3.526   6.914
11418TIP3   OH234175   4.622   3.047   5.566
11418TIP3    H134176   4.628   2.955   5.540
11418TIP3    H234177   4.597   3.045   5.658
11419TIP3   OH234178   4.555   3.064   5.831
11419TIP3    H134179   4.631   3.027   5.877
11419TIP3    H234180   4.561   3.159   5.848
11420TIP3   OH234181   4.288   2.763   6.058
11420TIP3    H134182   4.221   2.810   6.108
11420TIP3    H234183   4.306   2.819   5.983
11421TIP3   OH234184   5.455   2.385   6.921
11421TIP3    H134185   5.529   2.434   6.959
11421TIP3    H234186   5.442   2.311   6.981
11422TIP3   OH234187   5.260   2.227   6.123
11422TIP3    H134188   5.262   2.228   6.027
11422TIP3    H234189   5.342   2.270   6.149
11423TIP3   OH234190   4.851   3.280   5.810
11423TIP3    H134191   4.759   3.289   5.836
11423TIP3    H234192   4.862   3.344   5.740
11424TIP3   OH234193   5.013   2.315   6.211
11424TIP3    H134194   5.100   2.298   6.174
11424TIP3    H234195   5.027   2.319   6.305
11425TIP3   OH234196   5.298   2.632   6.983
11425TIP3    H134197   5.317   2.677   7.066
11425TIP3    H234198   5.343   2.548   6.990
11426TIP3   OH234199   5.162   2.023   6.291
11426TIP3    H134200   5.201   2.052   6.373
11426TIP3    H234201   5.201   2.079   6.224
11427TIP3   OH234202   4.587   3.334   5.864
11427TIP3    H134203   4.562   3.404   5.803
11427TIP3    H234204   4.571   3.372   5.950
11428TIP3   OH234205   4.662   2.053   6.104
11428TIP3    H134206   4.651   2.144   6.132
11428TIP3    H234207   4.756   2.036   6.112
11429TIP3   OH234208   5.904   2.516   6.978
11429TIP3    H134209   5.810   2.530   6.989
11429TIP3    H234210   5.910   2.453   6.906
11430TIP3   OH234211   5.547   2.735   6.401
11430TIP3    H134212   5.496   2.685   6.465
11430TIP3    H234213   5.638   2.712   6.419
11431TIP3   OH234214   4.311   2.933   5.839
11431TIP3    H134215   4.380   2.999   5.843
11431TIP3    H234216   4.342   2.870   5.774
11432TIP3   OH234217   4.215   2.231   5.970
11432TIP3    H134218   4.228   2.325   5.982
11432TIP3    H234219   4.149   2.224   5.901
11433TIP3   OH234220   5.549   3.702   6.299
11433TIP3    H134221   5.505   3.754   6.232
11433TIP3    H234222   5.642   3.720   6.286
11434TIP3   OH234223   4.621   1.949   6.841
11434TIP3    H134224   4.590   1.916   6.756
11434TIP3    H234225   4.612   1.876   6.901
11435TIP3   OH234226   4.134   3.205   6.227
11435TIP3    H134227   4.090   3.241   6.304
11435TIP3    H234228   4.091   3.247   6.152
11436TIP3   OH234229   7.307   7.932   0.034
11436TIP3    H134230   7.390   7.931   0.081
11436TIP3    H234231   7.284   7.839   0.025
11437TIP3   OH234232   7.777   7.842   0.080
11437TIP3    H134233   7.868   7.814   0.087
11437TIP3    H234234   7.741   7.790   0.008
11438TIP3   OH234235   4.770   3.252   5.463
11438TIP3    H134236   4.721   3.180   5.503
11438TIP3    H234237   4.843   3.209   5.418
11439TIP3   OH234238   5.422   3.589   7.102
11439TIP3    H134239   5.435   3.519   7.166
11439TIP3    H234240   5.491   3.653   7.121
11440TIP3   OH234241   5.208   3.303   5.380
11440TIP3    H134242   5.243   3.235   5.437
11440TIP3    H234243   5.259   3.296   5.300
11441TIP3   OH234244   7.410   7.340   0.223
11441TIP3    H134245   7.425   7.246   0.231
11441TIP3    H234246   7.325   7.347   0.179
11442TIP3   OH234247   4.439   2.742   5.690
11442TIP3    H134248   4.491   2.723   5.768
11442TIP3    H234249   4.504   2.757   5.621
11443TIP3   OH234250   5.065   3.222   7.269
11443TIP3    H134251   5.018   3.243   7.189
11443TIP3    H234252   5.099   3.133   7.255
11444TIP3   OH234253   5.014   2.968   5.532
11444TIP3    H134254   4.986   2.979   5.623
11444TIP3    H234255   4.987   2.879   5.510
11445TIP3   OH234256   5.537   3.261   6.869
11445TIP3    H134257   5.617   3.294   6.828
11445TIP3    H234258   5.474   3.333   6.863
11446TIP3   OH234259   7.525   7.085   0.224
11446TIP3    H134260   7.595   7.066   0.162
11446TIP3    H234261   7.571   7.110   0.305
11447TIP3   OH234262   4.612   2.687   5.907
11447TIP3    H134263   4.587   2.653   5.992
11447TIP3    H234264   4.655   2.614   5.863
11448TIP3   OH234265   4.927   2.772   7.155
11448TIP3    H134266   4.839   2.809   7.166
11448TIP3    H234267   4.954   2.802   7.068
11449TIP3   OH234268   4.737   2.499   5.743
11449TIP3    H134269   4.701   2.503   5.654
11449TIP3    H234270   4.831   2.508   5.732
11450TIP3   OH234271   5.420   3.142   7.233
11450TIP3    H134272   5.491   3.105   7.180
11450TIP3    H234273   5.418   3.087   7.312
11451TIP3   OH234274   5.533   2.782   5.435
11451TIP3    H134275   5.522   2.742   5.349
11451TIP3    H234276   5.514   2.875   5.421
11452TIP3   OH234277   5.028   2.539   7.259
11452TIP3    H134278   5.027   2.468   7.195
11452TIP3    H234279   4.992   2.614   7.213
11453TIP3   OH234280   5.032   2.342   7.056
11453TIP3    H134281   5.056   2.377   6.971
11453TIP3    H234282   4.941   2.313   7.045
11454TIP3   OH234283   5.040   2.871   6.926
11454TIP3    H134284   5.122   2.920   6.931
11454TIP3    H234285   4.981   2.928   6.876
11455TIP3   OH234286   8.598   7.016   0.041
11455TIP3    H134287   8.636   6.929   0.052
11455TIP3    H234288   8.673   7.075   0.031
11456TIP3   OH234289   5.663   3.094   7.046
11456TIP3    H134290   5.609   3.152   6.992
11456TIP3    H234291   5.752   3.109   7.016
11457TIP3   OH234292   7.884   6.819   0.236
11457TIP3    H134293   7.809   6.764   0.258
11457TIP3    H234294   7.909   6.791   0.148
11458TIP3   OH234295   5.155   2.111   7.159
11458TIP3    H134296   5.112   2.190   7.127
11458TIP3    H234297   5.089   2.042   7.147
11459TIP3   OH234298   8.247   6.776   0.099
11459TIP3    H134299   8.237   6.762   0.193
11459TIP3    H234300   8.161   6.754   0.062
11460TIP3   OH234301   8.493   6.729  -0.030
11460TIP3    H134302   8.414   6.728   0.026
11460TIP3    H234303   8.563   6.701   0.029
11461TIP3   OH234304   8.728   6.690   0.116
11461TIP3    H134305   8.743   6.596   0.124
11461TIP3    H234306   8.725   6.721   0.207
11462TIP3   OH234307   7.717   6.597   0.291
11462TIP3    H134308   7.719   6.510   0.252
11462TIP3    H234309   7.763   6.587   0.374
11463TIP3   OH234310   8.191   6.279   0.156
11463TIP3    H134311   8.260   6.213   0.151
11463TIP3    H234312   8.161   6.290   0.066
11464TIP3   OH234313   8.290   6.503   0.284
11464TIP3    H134314   8.258   6.429   0.233
11464TIP3    H234315   8.215   6.561   0.292
11465TIP3   OH234316   4.575   3.542   5.681
11465TIP3    H134317   4.663   3.525   5.649
11465TIP3    H234318   4.532   3.589   5.609
11466TIP3   OH234319   4.037   2.932   5.856
11466TIP3    H134320   4.132   2.943   5.853
11466TIP3    H234321   4.022   2.846   5.817
11467TIP3   OH234322   3.944   3.512   6.315
11467TIP3    H134323   3.880   3.459   6.268
11467TIP3    H234324   3.988   3.450   6.374
11468TIP3   OH234325   4.087   3.342   6.483
11468TIP3    H134326   4.077   3.274   6.550
11468TIP3    H234327   4.137   3.412   6.526
11469TIP3   OH234328   5.817   3.763   6.284
11469TIP3    H134329   5.831   3.790   6.375
11469TIP3    H234330   5.894   3.795   6.237
11470TIP3   OH234331   5.823   3.791   6.563
11470TIP3    H134332   5.782   3.705   6.561
11470TIP3    H234333   5.898   3.780   6.622
11471TIP3   OH234334   5.895   3.478   7.155
11471TIP3    H134335   5.823   3.491   7.217
11471TIP3    H234336   5.940   3.562   7.152
11472TIP3   OH234337   5.716   2.994   5.761
11472TIP3    H134338   5.771   3.062   5.724
11472TIP3    H234339   5.767   2.959   5.834
11473TIP3   OH234340   5.859   2.873   5.970
11473TIP3    H134341   5.799   2.865   6.044
11473TIP3    H234342   5.939   2.909   6.008
11474TIP3   OH234343   5.891   3.255   6.396
11474TIP3    H134344   5.948   3.187   6.359
11474TIP3    H234345   5.903   3.330   6.338
11475TIP3   OH234346   5.695   3.543   6.580
11475TIP3    H134347   5.624   3.587   6.628
11475TIP3    H234348   5.651   3.502   6.506
11476TIP3   OH234349   5.752   2.771   5.600
11476TIP3    H134350   5.679   2.767   5.539
11476TIP3    H234351   5.735   2.849   5.654
11477TIP3   OH234352   5.625   2.392   5.546
11477TIP3    H134353   5.569   2.420   5.474
11477TIP3    H234354   5.612   2.297   5.551
11478TIP3   OH234355   5.557   2.683   6.122
11478TIP3    H134356   5.574   2.617   6.055
11478TIP3    H234357   5.629   2.673   6.185
11479TIP3   OH234358   4.261   2.776   6.868
11479TIP3    H134359   4.250   2.746   6.778
11479TIP3    H234360   4.355   2.776   6.883
11480TIP3   OH234361   5.922   3.133   6.948
11480TIP3    H134362   5.986   3.064   6.936
11480TIP3    H234363   5.928   3.186   6.869
11481TIP3   OH234364   6.091   2.917   6.943
11481TIP3    H134365   6.020   2.875   6.992
11481TIP3    H234366   6.168   2.863   6.963
11482TIP3   OH234367   5.553   2.127   5.550
11482TIP3    H134368   5.577   2.044   5.592
11482TIP3    H234369   5.458   2.129   5.554
11483TIP3   OH234370   5.653   2.462   5.988
11483TIP3    H134371   5.685   2.374   6.006
11483TIP3    H234372   5.688   2.482   5.901
11484TIP3   OH234373   5.792   2.625   6.489
11484TIP3    H134374   5.875   2.640   6.445
11484TIP3    H234375   5.807   2.652   6.580
11485TIP3   OH234376   5.859   2.753   6.730
11485TIP3    H134377   5.792   2.782   6.791
11485TIP3    H234378   5.893   2.833   6.690
11486TIP3   OH234379   7.460   6.684   0.249
11486TIP3    H134380   7.554   6.673   0.263
11486TIP3    H234381   7.423   6.598   0.271
11487TIP3   OH234382   6.322   2.355   7.266
11487TIP3    H134383   6.388   2.299   7.224
11487TIP3    H234384   6.282   2.403   7.193
11488TIP3   OH234385   5.716   2.205   6.063
11488TIP3    H134386   5.779   2.187   6.133
11488TIP3    H234387   5.683   2.119   6.037
11489TIP3   OH234388   4.457   2.173   6.853
11489TIP3    H134389   4.510   2.094   6.860
11489TIP3    H234390   4.521   2.242   6.835
11490TIP3   OH234391   4.234   2.439   6.916
11490TIP3    H134392   4.286   2.425   6.837
11490TIP3    H234393   4.254   2.529   6.942
11491TIP3   OH234394   6.168   2.464   7.066
11491TIP3    H134395   6.082   2.502   7.084
11491TIP3    H234396   6.150   2.386   7.013
11492TIP3   OH234397   5.855   2.105   5.664
11492TIP3    H134398   5.865   2.058   5.582
11492TIP3    H234399   5.885   2.194   5.645
11493TIP3   OH234400   4.224   1.960   6.426
11493TIP3    H134401   4.138   1.942   6.464
11493TIP3    H234402   4.206   2.009   6.346
11494TIP3   OH234403   5.414   3.653   5.946
11494TIP3    H134404   5.473   3.658   5.871
11494TIP3    H234405   5.428   3.734   5.995
11495TIP3   OH234406   4.457   2.018   7.241
11495TIP3    H134407   4.402   2.008   7.319
11495TIP3    H234408   4.399   2.061   7.177
11496TIP3   OH234409   7.451   7.648   0.051
11496TIP3    H134410   7.357   7.637   0.038
11496TIP3    H234411   7.463   7.643   0.146
11497TIP3   OH234412   4.688   3.508   6.868
11497TIP3    H134413   4.636   3.582   6.836
11497TIP3    H234414   4.772   3.517   6.823
11498TIP3   OH234415   5.084   3.737   7.004
11498TIP3    H134416   5.120   3.732   7.093
11498TIP3    H234417   5.147   3.792   6.956
11499TIP3   OH234418   5.277   3.893   6.881
11499TIP3    H134419   5.339   3.844   6.827
11499TIP3    H234420   5.331   3.951   6.934
11500TIP3   OH234421   6.086   2.209   6.968
11500TIP3    H134422   5.997   2.192   6.938
11500TIP3    H234423   6.130   2.124   6.960
11501TIP3   OH234424   4.350   3.739   6.919
11501TIP3    H134425   4.260   3.757   6.892
11501TIP3    H234426   4.371   3.808   6.982
11502TIP3   OH234427   4.580   3.739   6.765
11502TIP3    H134428   4.496   3.742   6.812
11502TIP3    H234429   4.557   3.765   6.675
11503TIP3   OH234430   4.994   3.756   6.556
11503TIP3    H134431   4.920   3.767   6.496
11503TIP3    H234432   5.005   3.842   6.596
11504TIP3   OH234433   5.255   3.683   6.600
11504TIP3    H134434   5.164   3.706   6.583
11504TIP3    H234435   5.306   3.750   6.555
11505TIP3   OH234436   5.456   3.858   6.506
11505TIP3    H134437   5.453   3.947   6.469
11505TIP3    H234438   5.487   3.803   6.435
11506TIP3   OH234439   4.256   3.525   6.627
11506TIP3    H134440   4.282   3.501   6.716
11506TIP3    H234441   4.327   3.493   6.572
11507TIP3   OH234442   4.461   3.412   6.488
11507TIP3    H134443   4.473   3.329   6.534
11507TIP3    H234444   4.546   3.454   6.491
11508TIP3   OH234445   4.730   3.498   6.514
11508TIP3    H134446   4.749   3.405   6.500
11508TIP3    H234447   4.783   3.521   6.590
11509TIP3   OH234448   5.249   2.098   6.545
11509TIP3    H134449   5.225   2.044   6.620
11509TIP3    H234450   5.340   2.073   6.526
11510TIP3   OH234451   5.788   2.065   6.476
11510TIP3    H134452   5.820   2.117   6.402
11510TIP3    H234453   5.692   2.069   6.467
11511TIP3   OH234454   5.922   2.136   6.236
11511TIP3    H134455   5.985   2.067   6.216
11511TIP3    H234456   5.970   2.218   6.224
11512TIP3   OH234457   4.529   1.847   6.602
11512TIP3    H134458   4.440   1.813   6.611
11512TIP3    H234459   4.583   1.769   6.593
11513TIP3   OH234460   4.352   1.761   6.260
11513TIP3    H134461   4.375   1.808   6.180
11513TIP3    H234462   4.316   1.829   6.317
11514TIP3   OH234463   4.995   1.893   6.490
11514TIP3    H134464   5.046   1.936   6.421
11514TIP3    H234465   5.041   1.915   6.571
11515TIP3   OH234466   5.504   2.017   6.469
11515TIP3    H134467   5.502   1.975   6.384
11515TIP3    H234468   5.514   1.944   6.531
11516TIP3   OH234469   4.017   3.327   6.009
11516TIP3    H134470   3.933   3.301   5.971
11516TIP3    H234471   4.028   3.418   5.982
11517TIP3   OH234472   4.456   1.882   6.016
11517TIP3    H134473   4.502   1.820   5.961
11517TIP3    H234474   4.525   1.939   6.051
11518TIP3   OH234475   4.935   2.067   6.118
11518TIP3    H134476   4.992   2.007   6.167
11518TIP3    H234477   4.956   2.153   6.153
11519TIP3   OH234478   4.830   3.474   5.607
11519TIP3    H134479   4.911   3.506   5.566
11519TIP3    H234480   4.801   3.403   5.550
11520TIP3   OH234481   5.595   3.643   5.727
11520TIP3    H134482   5.582   3.548   5.719
11520TIP3    H234483   5.545   3.680   5.654
11521TIP3   OH234484   7.735   6.331   0.199
11521TIP3    H134485   7.702   6.259   0.253
11521TIP3    H234486   7.826   6.342   0.225
11522TIP3   OH234487   7.980   6.337   0.327
11522TIP3    H134488   8.057   6.313   0.275
11522TIP3    H234489   7.967   6.263   0.386
11523TIP3   OH234490   4.128   3.315   5.660
11523TIP3    H134491   4.127   3.335   5.754
11523TIP3    H234492   4.211   3.270   5.646
11524TIP3   OH234493   8.794   6.419   0.122
11524TIP3    H134494   8.812   6.390   0.212
11524TIP3    H234495   8.879   6.415   0.078
11525TIP3   OH234496   5.728   3.745   6.906
11525TIP3    H134497   5.656   3.715   6.851
11525TIP3    H234498   5.721   3.840   6.907
11526TIP3   OH234499   7.021   3.144   5.636
11526TIP3    H134500   6.985   3.230   5.618
11526TIP3    H234501   6.952   3.083   5.608
11527TIP3   OH234502   7.018   3.139   6.064
11527TIP3    H134503   7.075   3.120   6.139
11527TIP3    H234504   6.976   3.056   6.044
11528TIP3   OH234505   6.319   2.995   6.411
11528TIP3    H134506   6.358   2.944   6.481
11528TIP3    H234507   6.393   3.021   6.356
11529TIP3   OH234508   7.290   3.448   5.732
11529TIP3    H134509   7.278   3.381   5.799
11529TIP3    H234510   7.310   3.528   5.781
11530TIP3   OH234511   6.302   3.430   6.069
11530TIP3    H134512   6.286   3.336   6.083
11530TIP3    H234513   6.397   3.439   6.071
11531TIP3   OH234514   5.988   2.631   5.887
11531TIP3    H134515   5.952   2.716   5.911
11531TIP3    H234516   5.918   2.588   5.839
11532TIP3   OH234517   6.090   2.952   6.096
11532TIP3    H134518   6.140   2.874   6.121
11532TIP3    H234519   6.156   3.019   6.079
11533TIP3   OH234520   6.951   3.872   5.744
11533TIP3    H134521   6.974   3.809   5.675
11533TIP3    H234522   6.959   3.822   5.825
11534TIP3   OH234523   6.826   3.360   6.068
11534TIP3    H134524   6.871   3.281   6.040
11534TIP3    H234525   6.896   3.419   6.097
11535TIP3   OH234526   7.855   2.681   6.080
11535TIP3    H134527   7.871   2.766   6.120
11535TIP3    H234528   7.888   2.689   5.991
11536TIP3   OH234529   7.231   2.845   6.100
11536TIP3    H134530   7.267   2.761   6.128
11536TIP3    H234531   7.198   2.829   6.012
11537TIP3   OH234532   6.584   2.501   6.061
11537TIP3    H134533   6.568   2.576   6.003
11537TIP3    H234534   6.533   2.430   6.024
11538TIP3   OH234535   7.288   2.608   5.694
11538TIP3    H134536   7.351   2.602   5.766
11538TIP3    H234537   7.338   2.641   5.620
11539TIP3   OH234538   6.219   2.723   6.184
11539TIP3    H134539   6.302   2.702   6.228
11539TIP3    H234540   6.222   2.672   6.103
11540TIP3   OH234541   6.633   2.921   6.009
11540TIP3    H134542   6.728   2.907   6.014
11540TIP3    H234543   6.599   2.839   5.975
11541TIP3   OH234544   7.908   2.900   6.250
11541TIP3    H134545   7.819   2.934   6.244
11541TIP3    H234546   7.944   2.941   6.329
11542TIP3   OH234547   6.573   2.509   6.510
11542TIP3    H134548   6.522   2.544   6.438
11542TIP3    H234549   6.519   2.523   6.588
11543TIP3   OH234550   6.876   3.353   5.529
11543TIP3    H134551   6.859   3.336   5.436
11543TIP3    H234552   6.839   3.439   5.545
11544TIP3   OH234553   6.666   3.281   6.281
11544TIP3    H134554   6.613   3.354   6.315
11544TIP3    H234555   6.716   3.320   6.209
11545TIP3   OH234556   7.443   2.633   5.917
11545TIP3    H134557   7.404   2.610   6.002
11545TIP3    H234558   7.501   2.706   5.937
11546TIP3   OH234559   6.458   2.614   6.282
11546TIP3    H134560   6.514   2.688   6.303
11546TIP3    H234561   6.503   2.569   6.211
11547TIP3   OH234562   6.506   3.483   6.386
11547TIP3    H134563   6.493   3.570   6.346
11547TIP3    H234564   6.428   3.468   6.438
11548TIP3   OH234565   5.884   3.173   5.626
11548TIP3    H134566   5.850   3.178   5.537
11548TIP3    H234567   5.932   3.255   5.638
11549TIP3   OH234568   7.321   3.699   5.873
11549TIP3    H134569   7.233   3.692   5.909
11549TIP3    H234570   7.321   3.783   5.828
11550TIP3   OH234571   7.658   2.572   6.249
11550TIP3    H134572   7.574   2.590   6.208
11550TIP3    H234573   7.723   2.598   6.183
11551TIP3   OH234574   6.915   2.205   6.241
11551TIP3    H134575   6.910   2.114   6.268
11551TIP3    H234576   6.837   2.246   6.279
11552TIP3   OH234577   7.032   3.724   5.521
11552TIP3    H134578   7.082   3.643   5.512
11552TIP3    H234579   7.093   3.793   5.497
11553TIP3   OH234580   7.184   3.504   5.481
11553TIP3    H134581   7.196   3.430   5.423
11553TIP3    H234582   7.223   3.476   5.564
11554TIP3   OH234583   7.554   3.584   6.215
11554TIP3    H134584   7.539   3.508   6.158
11554TIP3    H234585   7.542   3.660   6.158
11555TIP3   OH234586   6.847   2.982   5.486
11555TIP3    H134587   6.767   3.030   5.466
11555TIP3    H234588   6.896   2.981   5.404
11556TIP3   OH234589   6.822   2.788   5.177
11556TIP3    H134590   6.888   2.837   5.226
11556TIP3    H234591   6.873   2.721   5.130
11557TIP3   OH234592   7.736   3.240   6.085
11557TIP3    H134593   7.653   3.286   6.083
11557TIP3    H234594   7.772   3.250   5.997
11558TIP3   OH234595   7.208   3.079   5.446
11558TIP3    H134596   7.153   3.105   5.520
11558TIP3    H234597   7.290   3.050   5.485
11559TIP3   OH234598   7.436   3.102   6.398
11559TIP3    H134599   7.434   3.186   6.443
11559TIP3    H234600   7.355   3.099   6.347
11560TIP3   OH234601   6.435   3.051   5.856
11560TIP3    H134602   6.402   2.990   5.790
11560TIP3    H234603   6.510   3.006   5.895
11561TIP3   OH234604   6.573   3.475   5.996
11561TIP3    H134605   6.558   3.461   5.903
11561TIP3    H234606   6.660   3.438   6.012
11562TIP3   OH234607   6.529   3.050   6.230
11562TIP3    H134608   6.568   3.013   6.152
11562TIP3    H234609   6.579   3.130   6.248
11563TIP3   OH234610   7.079   3.693   6.002
11563TIP3    H134611   7.076   3.771   6.057
11563TIP3    H234612   7.068   3.620   6.063
11564TIP3   OH234613   6.701   3.594   6.551
11564TIP3    H134614   6.646   3.657   6.599
11564TIP3    H234615   6.639   3.546   6.495
11565TIP3   OH234616   7.039   2.935   5.282
11565TIP3    H134617   7.099   2.992   5.330
11565TIP3    H234618   7.068   2.940   5.191
11566TIP3   OH234619   6.466   3.155   6.698
11566TIP3    H134620   6.462   3.249   6.717
11566TIP3    H234621   6.375   3.129   6.684
11567TIP3   OH234622   6.777   3.616   5.538
11567TIP3    H134623   6.865   3.653   5.540
11567TIP3    H234624   6.727   3.676   5.483
11568TIP3   OH234625   7.549   2.156   5.338
11568TIP3    H134626   7.473   2.180   5.391
11568TIP3    H234627   7.562   2.232   5.281
11569TIP3   OH234628   6.318   2.889   5.655
11569TIP3    H134629   6.238   2.931   5.622
11569TIP3    H234630   6.298   2.796   5.657
11570TIP3   OH234631   7.370   3.539   4.898
11570TIP3    H134632   7.366   3.629   4.867
11570TIP3    H234633   7.458   3.510   4.874
11571TIP3   OH234634   6.085   3.304   6.599
11571TIP3    H134635   6.019   3.283   6.533
11571TIP3    H234636   6.121   3.220   6.625
11572TIP3   OH234637   5.964   3.473   6.245
11572TIP3    H134638   6.054   3.483   6.212
11572TIP3    H234639   5.942   3.558   6.282
11573TIP3   OH234640   7.788   3.933   6.290
11573TIP3    H134641   7.792   3.839   6.306
11573TIP3    H234642   7.710   3.963   6.337
11574TIP3   OH234643   6.897   3.725   6.409
11574TIP3    H134644   6.891   3.816   6.438
11574TIP3    H234645   6.828   3.680   6.458
11575TIP3   OH234646   6.673   3.824   5.364
11575TIP3    H134647   6.636   3.803   5.278
11575TIP3    H234648   6.635   3.909   5.386
11576TIP3   OH234649   6.059   3.671   5.771
11576TIP3    H134650   6.122   3.694   5.839
11576TIP3    H234651   6.103   3.603   5.719
11577TIP3   OH234652   6.879   3.765   4.987
11577TIP3    H134653   6.926   3.690   4.950
11577TIP3    H234654   6.915   3.775   5.075
11578TIP3   OH234655   6.929   3.803   5.261
11578TIP3    H134656   6.843   3.806   5.301
11578TIP3    H234657   6.985   3.762   5.327
11579TIP3   OH234658   7.678   3.058   6.558
11579TIP3    H134659   7.597   3.064   6.506
11579TIP3    H234660   7.698   2.964   6.559
11580TIP3   OH234661   6.288   3.485   6.555
11580TIP3    H134662   6.337   3.478   6.637
11580TIP3    H234663   6.216   3.423   6.565
11581TIP3   OH234664   6.673   2.292   6.365
11581TIP3    H134665   6.589   2.260   6.334
11581TIP3    H234666   6.653   2.372   6.412
11582TIP3   OH234667   7.216   2.417   6.568
11582TIP3    H134668   7.286   2.390   6.627
11582TIP3    H234669   7.135   2.400   6.616
11583TIP3   OH234670   7.434   2.835   6.483
11583TIP3    H134671   7.396   2.832   6.571
11583TIP3    H234672   7.422   2.926   6.455
11584TIP3   OH234673   7.118   2.925   5.022
11584TIP3    H134674   7.071   2.924   4.939
11584TIP3    H234675   7.203   2.966   5.001
11585TIP3   OH234676   6.823   2.335   5.332
11585TIP3    H134677   6.790   2.343   5.422
11585TIP3    H234678   6.789   2.252   5.301
11586TIP3   OH234679   6.611   2.825   6.373
11586TIP3    H134680   6.569   2.833   6.458
11586TIP3    H234681   6.590   2.907   6.328
11587TIP3   OH234682   6.493   2.706   5.902
11587TIP3    H134683   6.403   2.680   5.923
11587TIP3    H234684   6.505   2.679   5.811
11588TIP3   OH234685   6.975   2.780   5.623
11588TIP3    H134686   6.927   2.852   5.582
11588TIP3    H234687   7.033   2.747   5.555
11589TIP3   OH234688   7.162   3.046   6.697
11589TIP3    H134689   7.135   2.978   6.758
11589TIP3    H234690   7.255   3.060   6.716
11590TIP3   OH234691   7.142   2.794   5.847
11590TIP3    H134692   7.075   2.814   5.782
11590TIP3    H234693   7.191   2.720   5.808
11591TIP3   OH234694   6.451   2.836   6.599
11591TIP3    H134695   6.504   2.887   6.661
11591TIP3    H234696   6.433   2.754   6.645
11592TIP3   OH234697   6.488   2.308   5.328
11592TIP3    H134698   6.476   2.309   5.423
11592TIP3    H234699   6.412   2.355   5.294
11593TIP3   OH234700   6.083   2.343   6.154
11593TIP3    H134701   6.123   2.374   6.235
11593TIP3    H234702   6.119   2.399   6.086
11594TIP3   OH234703   5.980   2.350   5.707
11594TIP3    H134704   6.019   2.383   5.626
11594TIP3    H234705   5.909   2.411   5.726
11595TIP3   OH234706   7.185   3.047   6.274
11595TIP3    H134707   7.210   2.981   6.210
11595TIP3    H234708   7.142   2.998   6.344
11596TIP3   OH234709   6.860   2.496   5.951
11596TIP3    H134710   6.783   2.492   6.008
11596TIP3    H234711   6.934   2.485   6.010
11597TIP3   OH234712   6.251   2.574   5.957
11597TIP3    H134713   6.166   2.580   5.914
11597TIP3    H234714   6.287   2.490   5.928
11598TIP3   OH234715   6.509   2.600   5.650
11598TIP3    H134716   6.604   2.605   5.641
11598TIP3    H234717   6.475   2.611   5.561
11599TIP3   OH234718   7.306   2.583   6.158
11599TIP3    H134719   7.284   2.600   6.249
11599TIP3    H234720   7.240   2.519   6.129
11600TIP3   OH234721   6.394   2.613   5.400
11600TIP3    H134722   6.335   2.560   5.348
11600TIP3    H234723   6.450   2.657   5.336
11601TIP3   OH234724   7.501   4.288   6.378
11601TIP3    H134725   7.504   4.295   6.283
11601TIP3    H234726   7.579   4.335   6.408
11602TIP3   OH234727   6.433   3.416   6.797
11602TIP3    H134728   6.516   3.434   6.841
11602TIP3    H234729   6.367   3.435   6.864
11603TIP3   OH234730   6.907   2.868   6.054
11603TIP3    H134731   6.974   2.822   6.004
11603TIP3    H234732   6.906   2.825   6.140
11604TIP3   OH234733   6.392   2.332   5.926
11604TIP3    H134734   6.373   2.253   5.978
11604TIP3    H234735   6.417   2.298   5.840
11605TIP3   OH234736   6.879   2.768   6.318
11605TIP3    H134737   6.792   2.800   6.342
11605TIP3    H234738   6.939   2.819   6.372
11606TIP3   OH234739   6.610   3.121   5.427
11606TIP3    H134740   6.536   3.066   5.403
11606TIP3    H234741   6.585   3.160   5.511
11607TIP3   OH234742   7.504   3.380   6.035
11607TIP3    H134743   7.540   3.429   5.961
11607TIP3    H234744   7.426   3.338   6.000
11608TIP3   OH234745   7.078   2.436   5.343
11608TIP3    H134746   6.985   2.416   5.335
11608TIP3    H234747   7.081   2.532   5.352
11609TIP3   OH234748   7.023   3.462   6.449
11609TIP3    H134749   7.079   3.453   6.526
11609TIP3    H234750   6.986   3.550   6.456
11610TIP3   OH234751   7.138   2.702   5.408
11610TIP3    H134752   7.233   2.705   5.417
11610TIP3    H234753   7.118   2.779   5.355
11611TIP3   OH234754   6.302   3.138   6.080
11611TIP3    H134755   6.342   3.118   5.996
11611TIP3    H234756   6.368   3.113   6.145
11612TIP3   OH234757   6.767   3.283   5.274
11612TIP3    H134758   6.718   3.365   5.272
11612TIP3    H234759   6.712   3.224   5.326
11613TIP3   OH234760   6.194   3.085   6.728
11613TIP3    H134761   6.217   3.081   6.820
11613TIP3    H234762   6.131   3.014   6.716
11614TIP3   OH234763   6.936   3.207   6.733
11614TIP3    H134764   6.871   3.157   6.683
11614TIP3    H234765   7.019   3.167   6.710
11615TIP3   OH234766   7.166   3.756   6.333
11615TIP3    H134767   7.072   3.738   6.338
11615TIP3    H234768   7.189   3.790   6.419
11616TIP3   OH234769   7.549   2.793   5.224
11616TIP3    H134770   7.492   2.747   5.162
11616TIP3    H234771   7.556   2.882   5.189
11617TIP3   OH234772   7.799   3.653   6.312
11617TIP3    H134773   7.705   3.641   6.301
11617TIP3    H234774   7.836   3.629   6.227
11618TIP3   OH234775   7.294   3.606   5.157
11618TIP3    H134776   7.265   3.530   5.207
11618TIP3    H234777   7.315   3.571   5.071
11619TIP3   OH234778   7.275   3.243   5.933
11619TIP3    H134779   7.185   3.221   5.956
11619TIP3    H234780   7.311   3.162   5.896
11620TIP3   OH234781   6.439   3.480   5.749
11620TIP3    H134782   6.433   3.557   5.692
11620TIP3    H234783   6.353   3.474   5.791
11621TIP3   OH234784   5.993   2.751   5.462
11621TIP3    H134785   6.038   2.832   5.483
11621TIP3    H234786   5.910   2.756   5.510
11622TIP3   OH234787   6.509   3.230   5.653
11622TIP3    H134788   6.502   3.320   5.684
11622TIP3    H234789   6.488   3.177   5.729
11623TIP3   OH234790   6.721   3.798   6.194
11623TIP3    H134791   6.761   3.870   6.144
11623TIP3    H234792   6.791   3.766   6.251
11624TIP3   OH234793   6.321   3.710   5.611
11624TIP3    H134794   6.234   3.747   5.627
11624TIP3    H234795   6.380   3.785   5.612
11625TIP3   OH234796   7.062   3.469   6.174
11625TIP3    H134797   7.050   3.463   6.269
11625TIP3    H234798   7.137   3.413   6.156
11626TIP3   OH234799   7.065   3.349   5.057
11626TIP3    H134800   7.104   3.332   5.142
11626TIP3    H234801   6.982   3.302   5.059
11627TIP3   OH234802   7.325   3.963   6.218
11627TIP3    H134803   7.256   3.899   6.237
11627TIP3    H234804   7.288   4.018   6.149
11628TIP3   OH234805   7.368   3.811   4.844
11628TIP3    H134806   7.380   3.863   4.765
11628TIP3    H234807   7.300   3.856   4.893
11629TIP3   OH234808   6.401   2.582   6.718
11629TIP3    H134809   6.306   2.590   6.722
11629TIP3    H234810   6.424   2.522   6.789
11630TIP3   OH234811   7.233   3.302   5.282
11630TIP3    H134812   7.215   3.225   5.336
11630TIP3    H234813   7.326   3.294   5.259
11631TIP3   OH234814   6.147   3.688   6.389
11631TIP3    H134815   6.198   3.622   6.437
11631TIP3    H234816   6.174   3.771   6.428
11632TIP3   OH234817   6.409   3.307   5.063
11632TIP3    H134818   6.419   3.216   5.035
11632TIP3    H234819   6.395   3.301   5.158
11633TIP3   OH234820   6.352   3.326   5.338
11633TIP3    H134821   6.426   3.300   5.392
11633TIP3    H234822   6.352   3.422   5.341
11634TIP3   OH234823   6.089   3.000   5.542
11634TIP3    H134824   6.019   3.045   5.589
11634TIP3    H234825   6.111   3.060   5.470
11635TIP3   OH234826   7.241   2.647   6.418
11635TIP3    H134827   7.321   2.692   6.448
11635TIP3    H234828   7.235   2.570   6.474
11636TIP3   OH234829   7.139   2.388   5.610
11636TIP3    H134830   7.119   2.405   5.518
11636TIP3    H234831   7.184   2.467   5.639
11637TIP3   OH234832   6.616   3.508   5.271
11637TIP3    H134833   6.535   3.538   5.311
11637TIP3    H234834   6.641   3.578   5.211
11638TIP3   OH234835   6.787   2.594   5.700
11638TIP3    H134836   6.851   2.661   5.673
11638TIP3    H234837   6.812   2.572   5.790
11639TIP3   OH234838   7.084   2.882   6.471
11639TIP3    H134839   7.112   2.923   6.552
11639TIP3    H234840   7.134   2.800   6.466
11640TIP3   OH234841   6.955   2.284   5.787
11640TIP3    H134842   6.933   2.362   5.838
11640TIP3    H234843   7.025   2.314   5.729
11641TIP3   OH234844   6.369   3.601   5.356
11641TIP3    H134845   6.354   3.670   5.292
11641TIP3    H234846   6.354   3.642   5.441
11642TIP3   OH234847   6.475   2.323   5.615
11642TIP3    H134848   6.469   2.417   5.633
11642TIP3    H234849   6.569   2.306   5.609
11643TIP3   OH234850   7.699   2.779   6.465
11643TIP3    H134851   7.604   2.789   6.476
11643TIP3    H234852   7.709   2.722   6.389
11644TIP3   OH234853   7.366   2.985   5.847
11644TIP3    H134854   7.291   2.927   5.857
11644TIP3    H234855   7.434   2.946   5.901
11645TIP3   OH234856   6.111   3.189   5.334
11645TIP3    H134857   6.183   3.252   5.341
11645TIP3    H234858   6.138   3.128   5.267
11646TIP3   OH234859   6.018   2.474   5.465
11646TIP3    H134860   6.028   2.569   5.467
11646TIP3    H234861   5.962   2.457   5.389
11647TIP3   OH234862   7.344   3.971   5.797
11647TIP3    H134863   7.299   4.022   5.730
11647TIP3    H234864   7.437   3.990   5.783
11648TIP3   OH234865   6.406   2.211   6.333
11648TIP3    H134866   6.380   2.176   6.247
11648TIP3    H234867   6.400   2.136   6.391
11649TIP3   OH234868   5.851   3.462   5.722
11649TIP3    H134869   5.787   3.393   5.740
11649TIP3    H234870   5.837   3.485   5.630
11650TIP3   OH234871   6.108   3.970   6.754
11650TIP3    H134872   6.194   3.948   6.790
11650TIP3    H234873   6.060   3.887   6.753
11651TIP3   OH234874   6.622   3.927   6.764
11651TIP3    H134875   6.692   3.871   6.798
11651TIP3    H234876   6.543   3.896   6.810
11652TIP3   OH234877   6.560   3.512   4.954
11652TIP3    H134878   6.513   3.440   4.996
11652TIP3    H234879   6.635   3.470   4.911
11653TIP3   OH234880   7.220   3.849   6.585
11653TIP3    H134881   7.233   3.778   6.648
11653TIP3    H234882   7.294   3.908   6.599
11654TIP3   OH234883   7.004   3.550   4.874
11654TIP3    H134884   7.044   3.487   4.934
11654TIP3    H234885   7.059   3.546   4.796
11655TIP3   OH234886   6.231   3.421   7.000
11655TIP3    H134887   6.251   3.327   7.003
11655TIP3    H234888   6.150   3.427   6.950
11656TIP3   OH234889   6.226   3.001   5.174
11656TIP3    H134890   6.278   2.975   5.249
11656TIP3    H234891   6.289   3.015   5.103
11657TIP3   OH234892   6.856   3.480   6.754
11657TIP3    H134893   6.815   3.501   6.670
11657TIP3    H234894   6.897   3.395   6.740
11658TIP3   OH234895   6.817   3.221   5.012
11658TIP3    H134896   6.790   3.232   5.104
11658TIP3    H234897   6.797   3.130   4.993
11659TIP3   OH234898   7.335   3.530   6.373
11659TIP3    H134899   7.412   3.553   6.323
11659TIP3    H234900   7.271   3.599   6.354
11660TIP3   OH234901   6.340   3.156   6.972
11660TIP3    H134902   6.417   3.149   6.915
11660TIP3    H234903   6.377   3.166   7.060
11661TIP3   OH234904   6.402   2.942   5.382
11661TIP3    H134905   6.389   2.910   5.471
11661TIP3    H234906   6.454   2.874   5.339
11662TIP3   OH234907   6.691   3.005   6.634
11662TIP3    H134908   6.621   3.068   6.655
11662TIP3    H234909   6.736   3.044   6.560
11663TIP3   OH234910   6.549   2.763   5.229
11663TIP3    H134911   6.520   2.765   5.138
11663TIP3    H234912   6.644   2.768   5.224
11664TIP3   OH234913   7.219   3.399   6.721
11664TIP3    H134914   7.290   3.364   6.667
11664TIP3    H234915   7.218   3.342   6.798
11665TIP3   OH234916   7.341   3.045   4.908
11665TIP3    H134917   7.327   3.004   4.823
11665TIP3    H234918   7.318   3.137   4.895
11666TIP3   OH234919   6.820   2.793   6.750
11666TIP3    H134920   6.827   2.721   6.687
11666TIP3    H234921   6.780   2.865   6.701
11667TIP3   OH234922   6.832   2.596   6.547
11667TIP3    H134923   6.860   2.631   6.463
11667TIP3    H234924   6.742   2.567   6.532
11668TIP3   OH234925   6.833   3.130   6.440
11668TIP3    H134926   6.923   3.151   6.415
11668TIP3    H234927   6.779   3.186   6.385
11669TIP3   OH234928   7.430   3.078   6.795
11669TIP3    H134929   7.469   2.990   6.800
11669TIP3    H234930   7.505   3.136   6.779
11670TIP3   OH234931   7.457   3.349   6.535
11670TIP3    H134932   7.405   3.412   6.485
11670TIP3    H234933   7.547   3.362   6.504
11671TIP3   OH234934   6.707   2.875   6.993
11671TIP3    H134935   6.638   2.811   7.013
11671TIP3    H234936   6.737   2.852   6.905
11672TIP3   OH234937   6.953   2.366   6.651
11672TIP3    H134938   6.913   2.446   6.617
11672TIP3    H234939   6.887   2.298   6.636
11673TIP3   OH234940   7.077   2.836   6.852
11673TIP3    H134941   7.067   2.822   6.946
11673TIP3    H234942   6.991   2.814   6.816
11674TIP3   OH234943   7.325   2.793   6.726
11674TIP3    H134944   7.246   2.791   6.780
11674TIP3    H234945   7.395   2.767   6.785
11675TIP3   OH234946   7.557   2.756   6.875
11675TIP3    H134947   7.571   2.661   6.879
11675TIP3    H234948   7.556   2.784   6.966
11676TIP3   OH234949   6.536   2.659   7.058
11676TIP3    H134950   6.543   2.572   7.020
11676TIP3    H234951   6.576   2.651   7.145
11677TIP3   OH234952   7.016   2.340   6.916
11677TIP3    H134953   7.085   2.273   6.910
11677TIP3    H234954   6.988   2.353   6.825
11678TIP3   OH234955   7.114   2.555   7.058
11678TIP3    H134956   7.083   2.482   7.004
11678TIP3    H234957   7.041   2.617   7.059
11679TIP3   OH234958   6.372   3.807   5.172
11679TIP3    H134959   6.460   3.787   5.140
11679TIP3    H234960   6.329   3.851   5.098
11680TIP3   OH234961   5.836   3.183   5.351
11680TIP3    H134962   5.931   3.195   5.339
11680TIP3    H234963   5.816   3.101   5.305
11681TIP3   OH234964   5.843   3.674   5.980
11681TIP3    H134965   5.779   3.642   6.043
11681TIP3    H234966   5.913   3.711   6.033
11682TIP3   OH234967   7.604   4.056   5.780
11682TIP3    H134968   7.643   4.052   5.867
11682TIP3    H234969   7.679   4.061   5.720
11683TIP3   OH234970   7.655   4.031   6.060
11683TIP3    H134971   7.603   3.951   6.050
11683TIP3    H234972   7.719   4.010   6.128
11684TIP3   OH234973   7.693   3.745   6.637
11684TIP3    H134974   7.619   3.753   6.698
11684TIP3    H234975   7.735   3.831   6.639
11685TIP3   OH234976   7.506   3.260   5.243
11685TIP3    H134977   7.565   3.328   5.211
11685TIP3    H234978   7.553   3.219   5.316
11686TIP3   OH234979   7.637   3.116   5.441
11686TIP3    H134980   7.571   3.077   5.498
11686TIP3    H234981   7.703   3.152   5.501
11687TIP3   OH234982   7.685   3.521   5.872
11687TIP3    H134983   7.736   3.446   5.840
11687TIP3    H234984   7.701   3.590   5.809
11688TIP3   OH234985   7.496   3.805   6.063
11688TIP3    H134986   7.430   3.851   6.115
11688TIP3    H234987   7.446   3.765   5.992
11689TIP3   OH234988   7.548   3.033   5.089
11689TIP3    H134989   7.479   3.030   5.023
11689TIP3    H234990   7.530   3.112   5.140
11690TIP3   OH234991   7.392   2.682   5.030
11690TIP3    H134992   7.349   2.716   4.952
11690TIP3    H234993   7.387   2.587   5.022
11691TIP3   OH234994   7.433   2.976   5.577
11691TIP3    H134995   7.440   2.882   5.562
11691TIP3    H234996   7.416   2.985   5.670
11692TIP3   OH234997   6.058   3.039   6.356
11692TIP3    H134998   6.053   3.009   6.265
11692TIP3    H234999   6.151   3.034   6.378
11693TIP3   OH235000   7.716   3.394   6.443
11693TIP3    H135001   7.781   3.325   6.428
11693TIP3    H235002   7.740   3.463   6.381
11694TIP3   OH235003   7.890   3.181   6.436
11694TIP3    H135004   7.816   3.139   6.480
11694TIP3    H235005   7.965   3.127   6.458
11695TIP3   OH235006   7.361   2.412   5.003
11695TIP3    H135007   7.429   2.382   5.064
11695TIP3    H235008   7.281   2.369   5.033
11696TIP3   OH235009   7.429   2.698   5.464
11696TIP3    H135010   7.475   2.615   5.477
11696TIP3    H235011   7.470   2.737   5.387
11697TIP3   OH235012   7.579   2.866   5.989
11697TIP3    H135013   7.660   2.884   5.941
11697TIP3    H235014   7.594   2.904   6.076
11698TIP3   OH235015   7.651   3.013   6.219
11698TIP3    H135016   7.580   3.044   6.274
11698TIP3    H235017   7.684   3.091   6.174
11699TIP3   OH235018   6.271   2.711   6.991
11699TIP3    H135019   6.365   2.708   7.009
11699TIP3    H235020   6.237   2.630   7.029
11700TIP3   OH235021   8.092   2.616   6.750
11700TIP3    H135022   8.163   2.559   6.720
11700TIP3    H235023   8.065   2.664   6.672
11701TIP3   OH235024   7.544   2.450   5.518
11701TIP3    H135025   7.590   2.433   5.601
11701TIP3    H235026   7.483   2.376   5.510
11702TIP3   OH235027   6.243   2.433   6.366
11702TIP3    H135028   6.299   2.354   6.367
11702TIP3    H235029   6.303   2.504   6.344
11703TIP3   OH235030   6.034   2.709   6.393
11703TIP3    H135031   6.090   2.703   6.316
11703TIP3    H235032   6.075   2.776   6.448
11704TIP3   OH235033   7.961   2.725   6.538
11704TIP3    H135034   7.874   2.763   6.552
11704TIP3    H235035   7.945   2.643   6.492
11705TIP3   OH235036   7.590   2.358   5.155
11705TIP3    H135037   7.638   2.298   5.099
11705TIP3    H235038   7.645   2.437   5.159
11706TIP3   OH235039   5.993   2.153   5.910
11706TIP3    H135040   6.010   2.196   5.994
11706TIP3    H235041   6.005   2.222   5.845
11707TIP3   OH235042   7.184   3.928   5.429
11707TIP3    H135043   7.232   3.909   5.348
11707TIP3    H235044   7.236   3.997   5.471
11708TIP3   OH235045   6.250   2.290   6.750
11708TIP3    H135046   6.194   2.261   6.822
11708TIP3    H235047   6.188   2.322   6.684
11709TIP3   OH235048   6.480   3.744   6.311
11709TIP3    H135049   6.434   3.827   6.299
11709TIP3    H235050   6.569   3.761   6.278
11710TIP3   OH235051   6.888   3.988   6.486
11710TIP3    H135052   6.919   3.984   6.576
11710TIP3    H235053   6.950   4.048   6.443
11711TIP3   OH235054   7.073   4.153   6.363
11711TIP3    H135055   7.135   4.096   6.317
11711TIP3    H235056   7.128   4.209   6.418
11712TIP3   OH235057   7.875   2.473   6.449
11712TIP3    H135058   7.789   2.462   6.409
11712TIP3    H235059   7.916   2.386   6.443
11713TIP3   OH235060   6.142   4.019   6.386
11713TIP3    H135061   6.050   4.035   6.368
11713TIP3    H235062   6.163   4.077   6.459
11714TIP3   OH235063   6.375   3.993   6.243
11714TIP3    H135064   6.294   4.001   6.293
11714TIP3    H235065   6.350   4.016   6.154
11715TIP3   OH235066   6.800   4.009   6.033
11715TIP3    H135067   6.727   4.019   5.972
11715TIP3    H235068   6.806   4.093   6.079
11716TIP3   OH235069   7.065   3.960   6.088
11716TIP3    H135070   6.973   3.971   6.065
11716TIP3    H235071   7.111   4.028   6.038
11717TIP3   OH235072   7.272   4.144   5.999
11717TIP3    H135073   7.256   4.228   5.955
11717TIP3    H235074   7.297   4.085   5.929
11718TIP3   OH235075   6.056   3.759   6.139
11718TIP3    H135076   6.093   3.742   6.225
11718TIP3    H235077   6.130   3.750   6.079
11719TIP3   OH235078   6.258   3.681   5.965
11719TIP3    H135079   6.268   3.596   6.007
11719TIP3    H235080   6.345   3.721   5.971
11720TIP3   OH235081   6.531   3.754   5.992
11720TIP3    H135082   6.547   3.660   5.980
11720TIP3    H235083   6.585   3.778   6.067
11721TIP3   OH235084   7.085   2.400   6.088
11721TIP3    H135085   7.046   2.329   6.138
11721TIP3    H235086   7.154   2.358   6.036
11722TIP3   OH235087   7.585   2.327   5.983
11722TIP3    H135088   7.624   2.372   5.908
11722TIP3    H235089   7.492   2.346   5.977
11723TIP3   OH235090   7.700   2.392   5.742
11723TIP3    H135091   7.768   2.331   5.714
11723TIP3    H235092   7.738   2.479   5.727
11724TIP3   OH235093   6.328   2.106   6.085
11724TIP3    H135094   6.241   2.066   6.095
11724TIP3    H235095   6.388   2.032   6.081
11725TIP3   OH235096   6.805   2.147   5.983
11725TIP3    H135097   6.855   2.190   5.914
11725TIP3    H235098   6.849   2.173   6.064
11726TIP3   OH235099   7.299   2.282   5.958
11726TIP3    H135100   7.321   2.246   5.872
11726TIP3    H235101   7.307   2.208   6.017
11727TIP3   OH235102   7.360   2.238   5.523
11727TIP3    H135103   7.280   2.285   5.548
11727TIP3    H235104   7.350   2.151   5.561
11728TIP3   OH235105   5.810   3.596   5.493
11728TIP3    H135106   5.730   3.569   5.449
11728TIP3    H235107   5.827   3.684   5.460
11729TIP3   OH235108   6.750   2.343   5.599
11729TIP3    H135109   6.809   2.291   5.652
11729TIP3    H235110   6.764   2.433   5.628
11730TIP3   OH235111   6.627   3.733   5.097
11730TIP3    H135112   6.708   3.762   5.056
11730TIP3    H235113   6.594   3.664   5.040
11731TIP3   OH235114   7.323   3.875   5.195
11731TIP3    H135115   7.318   3.780   5.187
11731TIP3    H235116   7.284   3.908   5.114
11732TIP3   OH235117   6.556   2.390   6.970
11732TIP3    H135118   6.521   2.322   7.028
11732TIP3    H235119   6.648   2.397   6.995
11733TIP3   OH235120   6.803   2.394   7.093
11733TIP3    H135121   6.880   2.371   7.040
11733TIP3    H235122   6.797   2.323   7.157
11734TIP3   OH235123   5.935   3.575   5.146
11734TIP3    H135124   5.947   3.607   5.236
11734TIP3    H235125   6.015   3.527   5.126
11735TIP3   OH235126   7.616   2.485   6.872
11735TIP3    H135127   7.635   2.454   6.961
11735TIP3    H235128   7.700   2.480   6.827
11736TIP3   OH235129   7.542   4.014   6.386
11736TIP3    H135130   7.469   3.985   6.332
11736TIP3    H235131   7.529   4.108   6.395
11737TIP3   OH235132   8.777   3.413   5.169
11737TIP3    H135133   8.715   3.479   5.138
11737TIP3    H235134   8.731   3.330   5.156
11738TIP3   OH235135   8.666   3.396   5.520
11738TIP3    H135136   8.701   3.411   5.608
11738TIP3    H235137   8.655   3.301   5.514
11739TIP3   OH235138   8.102   3.251   5.900
11739TIP3    H135139   8.137   3.193   5.967
11739TIP3    H235140   8.177   3.276   5.847
11740TIP3   OH235141   0.003   3.753   5.193
11740TIP3    H135142  -0.015   3.696   5.268
11740TIP3    H235143   0.078   3.806   5.220
11741TIP3   OH235144   8.063   3.681   5.598
11741TIP3    H135145   8.054   3.586   5.595
11741TIP3    H235146   8.156   3.698   5.582
11742TIP3   OH235147   7.783   2.887   5.360
11742TIP3    H135148   7.746   2.972   5.383
11742TIP3    H235149   7.711   2.840   5.318
11743TIP3   OH235150   7.863   3.201   5.585
11743TIP3    H135151   7.912   3.122   5.609
11743TIP3    H235152   7.930   3.266   5.563
11744TIP3   OH235153   8.643   4.157   5.233
11744TIP3    H135154   8.661   4.073   5.189
11744TIP3    H235155   8.697   4.155   5.311
11745TIP3   OH235156   8.560   3.646   5.548
11745TIP3    H135157   8.588   3.561   5.514
11745TIP3    H235158   8.642   3.692   5.565
11746TIP3   OH235159   8.351   2.765   5.558
11746TIP3    H135160   8.324   2.835   5.498
11746TIP3    H235161   8.304   2.688   5.527
11747TIP3   OH235162   7.995   2.975   5.672
11747TIP3    H135163   8.076   2.953   5.719
11747TIP3    H235164   7.994   2.914   5.598
11748TIP3   OH235165   8.371   3.177   5.490
11748TIP3    H135166   8.464   3.156   5.500
11748TIP3    H235167   8.332   3.095   5.459
11749TIP3   OH235168   8.342   2.776   6.015
11749TIP3    H135169   8.293   2.816   5.944
11749TIP3    H235170   8.289   2.790   6.093
11750TIP3   OH235171   8.592   3.607   5.085
11750TIP3    H135172   8.515   3.562   5.121
11750TIP3    H235173   8.563   3.697   5.072
11751TIP3   OH235174   8.433   3.549   5.771
11751TIP3    H135175   8.379   3.620   5.806
11751TIP3    H235176   8.478   3.588   5.696
11752TIP3   OH235177   8.231   2.870   5.780
11752TIP3    H135178   8.285   2.947   5.799
11752TIP3    H235179   8.276   2.826   5.708
11753TIP3   OH235180   8.288   3.754   5.875
11753TIP3    H135181   8.278   3.844   5.844
11753TIP3    H235182   8.210   3.738   5.928
11754TIP3   OH235183   7.678   3.446   5.126
11754TIP3    H135184   7.644   3.460   5.037
11754TIP3    H235185   7.702   3.534   5.155
11755TIP3   OH235186   0.189   3.958   5.225
11755TIP3    H135187   0.165   3.969   5.317
11755TIP3    H235188   0.223   4.043   5.199
11756TIP3   OH235189   8.667   2.498   5.793
11756TIP3    H135190   8.665   2.403   5.808
11756TIP3    H235191   8.579   2.527   5.816
11757TIP3   OH235192   8.754   3.955   5.080
11757TIP3    H135193   8.804   3.885   5.121
11757TIP3    H235194   8.815   3.996   5.019
11758TIP3   OH235195   0.162   3.771   4.970
11758TIP3    H135196   0.119   3.732   4.894
11758TIP3    H235197   0.105   3.749   5.044
11759TIP3   OH235198   8.592   3.207   5.108
11759TIP3    H135199   8.511   3.247   5.139
11759TIP3    H235200   8.608   3.248   5.023
11760TIP3   OH235201   8.656   3.057   4.559
11760TIP3    H135202   8.751   3.040   4.562
11760TIP3    H235203   8.618   2.983   4.606
11761TIP3   OH235204   8.200   3.321   5.336
11761TIP3    H135205   8.161   3.261   5.273
11761TIP3    H235206   8.263   3.269   5.384
11762TIP3   OH235207   8.312   3.744   5.484
11762TIP3    H135208   8.299   3.730   5.391
11762TIP3    H235209   8.401   3.714   5.501
11763TIP3   OH235210   8.309   3.311   5.722
11763TIP3    H135211   8.341   3.277   5.638
11763TIP3    H235212   8.359   3.392   5.735
11764TIP3   OH235213   8.731   3.953   5.479
11764TIP3    H135214   8.764   4.021   5.539
11764TIP3    H235215   8.757   3.870   5.520
11765TIP3   OH235216   8.491   3.839   6.050
11765TIP3    H135217   8.429   3.899   6.090
11765TIP3    H235218   8.438   3.788   5.987
11766TIP3   OH235219  -0.005   3.243   4.727
11766TIP3    H135220   0.076   3.267   4.772
11766TIP3    H235221   0.019   3.171   4.669
11767TIP3   OH235222   8.244   3.405   6.198
11767TIP3    H135223   8.242   3.500   6.210
11767TIP3    H235224   8.152   3.381   6.188
11768TIP3   OH235225   8.499   3.865   5.055
11768TIP3    H135226   8.587   3.899   5.071
11768TIP3    H235227   8.457   3.933   5.002
11769TIP3   OH235228   8.280   4.002   6.119
11769TIP3    H135229   8.258   4.014   6.027
11769TIP3    H235230   8.196   3.990   6.163
11770TIP3   OH235231   8.092   3.142   5.150
11770TIP3    H135232   8.014   3.185   5.116
11770TIP3    H235233   8.065   3.051   5.162
11771TIP3   OH235234   7.884   3.560   6.071
11771TIP3    H135235   7.816   3.541   6.007
11771TIP3    H235236   7.916   3.474   6.098
11772TIP3   OH235237   7.798   3.730   5.708
11772TIP3    H135238   7.882   3.708   5.669
11772TIP3    H235239   7.818   3.800   5.771
11773TIP3   OH235240   8.675   3.986   5.902
11773TIP3    H135241   8.663   4.075   5.936
11773TIP3    H235242   8.612   3.933   5.953
11774TIP3   OH235243   8.431   4.081   4.886
11774TIP3    H135244   8.388   4.071   4.801
11774TIP3    H235245   8.407   4.169   4.914
11775TIP3   OH235246   7.902   3.941   5.232
11775TIP3    H135247   7.944   3.933   5.317
11775TIP3    H235248   7.852   3.860   5.221
11776TIP3   OH235249   8.593   4.018   4.491
11776TIP3    H135250   8.640   3.939   4.465
11776TIP3    H235251   8.635   4.044   4.573
11777TIP3   OH235252   8.669   4.066   4.748
11777TIP3    H135253   8.598   4.063   4.812
11777TIP3    H235254   8.747   4.043   4.799
11778TIP3   OH235255   8.072   3.757   6.044
11778TIP3    H135256   8.124   3.746   6.123
11778TIP3    H235257   8.004   3.689   6.050
11779TIP3   OH235258   8.415   2.554   5.875
11779TIP3    H135259   8.330   2.524   5.841
11779TIP3    H235260   8.395   2.635   5.922
11780TIP3   OH235261   0.053   2.567   6.061
11780TIP3    H135262   0.068   2.656   6.093
11780TIP3    H235263  -0.034   2.544   6.093
11781TIP3   OH235264   8.609   2.605   4.824
11781TIP3    H135265   8.577   2.592   4.913
11781TIP3    H235266   8.584   2.525   4.778
11782TIP3   OH235267   8.391   3.079   5.850
11782TIP3    H135268   8.362   3.093   5.940
11782TIP3    H235269   8.374   3.162   5.806
11783TIP3   OH235270   8.246   2.956   5.391
11783TIP3    H135271   8.162   2.923   5.421
11783TIP3    H235272   8.253   2.925   5.300
11784TIP3   OH235273   0.002   3.147   5.073
11784TIP3    H135274  -0.069   3.131   5.011
11784TIP3    H235275   0.081   3.144   5.020
11785TIP3   OH235276  -0.014   3.317   6.172
11785TIP3    H135277   0.037   3.298   6.251
11785TIP3    H235278   0.020   3.400   6.140
11786TIP3   OH235279   8.814   3.075   5.339
11786TIP3    H135280   8.824   3.104   5.249
11786TIP3    H235281   8.859   2.990   5.342
11787TIP3   OH235282   8.220   3.074   6.080
11787TIP3    H135283   8.289   3.122   6.126
11787TIP3    H235284   8.202   2.998   6.137
11788TIP3   OH235285   8.258   2.541   4.810
11788TIP3    H135286   8.251   2.541   4.905
11788TIP3    H235287   8.178   2.585   4.781
11789TIP3   OH235288   7.825   2.617   5.665
11789TIP3    H135289   7.894   2.657   5.718
11789TIP3    H235290   7.867   2.602   5.580
11790TIP3   OH235291   7.738   2.594   5.167
11790TIP3    H135292   7.784   2.628   5.090
11790TIP3    H235293   7.675   2.662   5.189
11791TIP3   OH235294   0.112   3.266   5.899
11791TIP3    H135295   0.165   3.253   5.821
11791TIP3    H235296   0.023   3.248   5.871
11792TIP3   OH235297   8.611   2.781   5.470
11792TIP3    H135298   8.529   2.772   5.518
11792TIP3    H235299   8.667   2.834   5.528
11793TIP3   OH235300   8.028   2.806   5.458
11793TIP3    H135301   7.944   2.819   5.413
11793TIP3    H235302   8.060   2.721   5.427
11794TIP3   OH235303   8.236   2.830   5.148
11794TIP3    H135304   8.331   2.816   5.147
11794TIP3    H235305   8.212   2.842   5.056
11795TIP3   OH235306   8.160   2.858   4.889
11795TIP3    H135307   8.103   2.801   4.837
11795TIP3    H235308   8.207   2.911   4.825
11796TIP3   OH235309   0.321   4.677   5.934
11796TIP3    H135310   0.316   4.712   5.845
11796TIP3    H235311   0.336   4.583   5.922
11797TIP3   OH235312   8.229   3.674   6.277
11797TIP3    H135313   8.311   3.689   6.324
11797TIP3    H235314   8.161   3.678   6.345
11798TIP3   OH235315   8.630   3.115   5.532
11798TIP3    H135316   8.691   3.098   5.460
11798TIP3    H235317   8.666   3.066   5.606
11799TIP3   OH235318   8.201   2.568   5.435
11799TIP3    H135319   8.160   2.497   5.485
11799TIP3    H235320   8.260   2.524   5.374
11800TIP3   OH235321   8.641   2.965   5.832
11800TIP3    H135322   8.551   2.998   5.831
11800TIP3    H235323   8.695   3.043   5.845
11801TIP3   OH235324   8.313   3.430   4.934
11801TIP3    H135325   8.268   3.346   4.925
11801TIP3    H235326   8.329   3.439   5.028
11802TIP3   OH235327   8.784   3.702   5.947
11802TIP3    H135328   8.837   3.670   6.019
11802TIP3    H235329   8.785   3.797   5.957
11803TIP3   OH235330   8.078   3.398   5.573
11803TIP3    H135331   8.115   3.383   5.486
11803TIP3    H235332   8.146   3.368   5.634
11804TIP3   OH235333   8.474   3.520   4.741
11804TIP3    H135334   8.452   3.614   4.742
11804TIP3    H235335   8.417   3.481   4.807
11805TIP3   OH235336   7.970   3.333   6.210
11805TIP3    H135337   7.977   3.300   6.300
11805TIP3    H235338   7.899   3.281   6.171
11806TIP3   OH235339   8.663   3.460   6.238
11806TIP3    H135340   8.607   3.456   6.161
11806TIP3    H235341   8.736   3.401   6.218
11807TIP3   OH235342   0.022   3.944   5.793
11807TIP3    H135343  -0.067   3.971   5.817
11807TIP3    H235344   0.079   4.006   5.839
11808TIP3   OH235345   0.189   3.429   5.489
11808TIP3    H135346   0.137   3.509   5.484
11808TIP3    H235347   0.167   3.380   5.410
11809TIP3   OH235348   8.219   3.731   5.222
11809TIP3    H135349   8.234   3.809   5.169
11809TIP3    H235350   8.124   3.720   5.222
11810TIP3   OH235351   7.790   3.018   4.953
11810TIP3    H135352   7.829   3.103   4.973
11810TIP3    H235353   7.707   3.018   5.001
11811TIP3   OH235354   8.358   3.496   5.195
11811TIP3    H135355   8.318   3.582   5.202
11811TIP3    H235356   8.307   3.440   5.253
11812TIP3   OH235357   8.490   4.057   5.694
11812TIP3    H135358   8.521   4.133   5.645
11812TIP3    H235359   8.569   4.023   5.737
11813TIP3   OH235360   8.133   3.964   5.084
11813TIP3    H135361   8.047   3.966   5.127
11813TIP3    H235362   8.165   4.054   5.090
11814TIP3   OH235363   8.814   3.736   5.626
11814TIP3    H135364   8.844   3.775   5.708
11814TIP3    H235365   8.895   3.715   5.579
11815TIP3   OH235366   8.699   3.638   4.644
11815TIP3    H135367   8.777   3.584   4.660
11815TIP3    H235368   8.626   3.586   4.677
11816TIP3   OH235369   0.159   4.246   5.690
11816TIP3    H135370   0.081   4.191   5.685
11816TIP3    H235371   0.159   4.294   5.607
11817TIP3   OH235372   8.181   2.835   6.227
11817TIP3    H135373   8.085   2.842   6.231
11817TIP3    H235374   8.203   2.773   6.297
11818TIP3   OH235375   7.922   3.944   5.865
11818TIP3    H135376   7.975   3.884   5.918
11818TIP3    H235377   7.937   4.030   5.905
11819TIP3   OH235378   8.172   3.585   4.553
11819TIP3    H135379   8.218   3.508   4.521
11819TIP3    H235380   8.158   3.568   4.646
11820TIP3   OH235381   8.122   3.592   4.824
11820TIP3    H135382   8.195   3.551   4.870
11820TIP3    H235383   8.136   3.686   4.834
11821TIP3   OH235384   7.876   3.271   5.035
11821TIP3    H135385   7.810   3.318   5.086
11821TIP3    H235386   7.894   3.328   4.961
11822TIP3   OH235387   8.405   3.779   4.753
11822TIP3    H135388   8.318   3.806   4.784
11822TIP3    H235389   8.449   3.862   4.731
11823TIP3   OH235390   8.499   2.783   5.218
11823TIP3    H135391   8.561   2.840   5.173
11823TIP3    H235392   8.531   2.778   5.308
11824TIP3   OH235393   8.847   3.058   6.038
11824TIP3    H135394   8.855   3.147   6.070
11824TIP3    H235395   8.898   3.056   5.957
11825TIP3   OH235396   8.691   2.517   5.297
11825TIP3    H135397   8.740   2.548   5.374
11825TIP3    H235398   8.748   2.537   5.223
11826TIP3   OH235399   8.155   3.864   4.832
11826TIP3    H135400   8.112   3.929   4.777
11826TIP3    H235401   8.148   3.900   4.921
11827TIP3   OH235402   8.229   2.550   5.085
11827TIP3    H135403   8.211   2.635   5.125
11827TIP3    H235404   8.324   2.542   5.088
11828TIP3   OH235405   7.890   3.451   4.821
11828TIP3    H135406   7.959   3.516   4.827
11828TIP3    H235407   7.922   3.387   4.757
11829TIP3   OH235408   7.807   2.740   4.946
11829TIP3    H135409   7.824   2.834   4.956
11829TIP3    H235410   7.754   2.733   4.866
11830TIP3   OH235411   0.299   4.194   5.140
11830TIP3    H135412   0.253   4.277   5.154
11830TIP3    H235413   0.387   4.221   5.112
11831TIP3   OH235414   8.165   2.458   5.821
11831TIP3    H135415   8.147   2.423   5.733
11831TIP3    H235416   8.166   2.382   5.878
11832TIP3   OH235417   7.729   3.720   5.200
11832TIP3    H135418   7.677   3.751   5.275
11832TIP3    H235419   7.687   3.761   5.124
11833TIP3   OH235420   7.933   4.266   6.272
11833TIP3    H135421   8.010   4.279   6.328
11833TIP3    H235422   7.928   4.171   6.259
11834TIP3   OH235423   8.376   4.167   6.315
11834TIP3    H135424   8.464   4.134   6.329
11834TIP3    H235425   8.342   4.116   6.241
11835TIP3   OH235426   8.277   3.826   4.473
11835TIP3    H135427   8.233   3.750   4.511
11835TIP3    H235428   8.364   3.793   4.449
11836TIP3   OH235429   0.044   4.135   6.165
11836TIP3    H135430   0.027   4.043   6.187
11836TIP3    H235431   0.130   4.153   6.202
11837TIP3   OH235432   8.772   3.803   4.450
11837TIP3    H135433   8.766   3.730   4.512
11837TIP3    H235434   8.840   3.860   4.486
11838TIP3   OH235435   8.028   3.657   6.469
11838TIP3    H135436   8.051   3.565   6.481
11838TIP3    H235437   7.941   3.655   6.429
11839TIP3   OH235438   8.011   3.258   4.675
11839TIP3    H135439   8.064   3.231   4.750
11839TIP3    H235440   8.074   3.272   4.604
11840TIP3   OH235441   8.654   3.740   6.247
11840TIP3    H135442   8.604   3.763   6.169
11840TIP3    H235443   8.669   3.645   6.239
11841TIP3   OH235444   8.431   3.460   4.471
11841TIP3    H135445   8.455   3.459   4.563
11841TIP3    H235446   8.431   3.368   4.445
11842TIP3   OH235447   0.225   3.766   5.825
11842TIP3    H135448   0.292   3.802   5.767
11842TIP3    H235449   0.149   3.823   5.811
11843TIP3   OH235450   8.144   3.404   6.475
11843TIP3    H135451   8.214   3.386   6.412
11843TIP3    H235452   8.189   3.419   6.558
11844TIP3   OH235453   8.184   3.195   4.887
11844TIP3    H135454   8.163   3.151   4.970
11844TIP3    H235455   8.231   3.129   4.836
11845TIP3   OH235456   8.441   3.238   6.110
11845TIP3    H135457   8.378   3.300   6.148
11845TIP3    H235458   8.499   3.292   6.056
11846TIP3   OH235459   8.304   3.017   4.719
11846TIP3    H135460   8.277   3.022   4.627
11846TIP3    H235461   8.389   2.973   4.717
11847TIP3   OH235462   0.048   3.591   6.159
11847TIP3    H135463   0.123   3.638   6.123
11847TIP3    H235464   0.065   3.586   6.253
11848TIP3   OH235465   8.588   3.046   6.245
11848TIP3    H135466   8.606   2.969   6.191
11848TIP3    H235467   8.546   3.108   6.186
11849TIP3   OH235468   8.608   2.822   6.068
11849TIP3    H135469   8.641   2.865   5.990
11849TIP3    H235470   8.515   2.805   6.049
11850TIP3   OH235471   8.577   3.435   5.977
11850TIP3    H135472   8.663   3.448   5.938
11850TIP3    H235473   8.516   3.474   5.915
11851TIP3   OH235474   8.479   3.136   6.486
11851TIP3    H135475   8.411   3.071   6.502
11851TIP3    H235476   8.511   3.115   6.398
11852TIP3   OH235477   8.697   2.575   6.158
11852TIP3    H135478   8.668   2.661   6.128
11852TIP3    H235479   8.627   2.515   6.133
11853TIP3   OH235480   8.823   3.097   6.385
11853TIP3    H135481   8.784   3.061   6.465
11853TIP3    H235482   8.756   3.088   6.319
11854TIP3   OH235483   0.168   3.023   6.290
11854TIP3    H135484   0.085   3.046   6.332
11854TIP3    H235485   0.229   3.011   6.362
11855TIP3   OH235486   8.325   2.913   6.547
11855TIP3    H135487   8.332   2.827   6.507
11855TIP3    H235488   8.364   2.902   6.634
11856TIP3   OH235489   8.799   2.595   6.409
11856TIP3    H135490   8.872   2.533   6.406
11856TIP3    H235491   8.761   2.591   6.321
11857TIP3   OH235492   8.886   2.816   6.546
11857TIP3    H135493   8.859   2.752   6.481
11857TIP3    H235494   8.809   2.871   6.560
11858TIP3   OH235495   8.089   4.085   4.672
11858TIP3    H135496   8.185   4.085   4.667
11858TIP3    H235497   8.061   4.108   4.584
11859TIP3   OH235498   7.621   3.441   4.843
11859TIP3    H135499   7.715   3.452   4.836
11859TIP3    H235500   7.604   3.357   4.800
11860TIP3   OH235501   7.527   4.030   5.297
11860TIP3    H135502   7.465   3.975   5.249
11860TIP3    H235503   7.572   3.969   5.356
11861TIP3   OH235504   7.672   3.864   5.466
11861TIP3    H135505   7.670   3.790   5.527
11861TIP3    H235506   7.723   3.931   5.512
11862TIP3   OH235507   7.843   3.299   5.840
11862TIP3    H135508   7.834   3.263   5.752
11862TIP3    H235509   7.936   3.291   5.860
11863TIP3   OH235510   8.063   2.977   6.488
11863TIP3    H135511   8.158   2.971   6.503
11863TIP3    H235512   8.029   2.893   6.519
11864TIP3   OH235513   8.023   2.692   5.847
11864TIP3    H135514   8.071   2.609   5.846
11864TIP3    H235515   8.090   2.758   5.829
11865TIP3   OH235516   7.822   2.959   5.894
11865TIP3    H135517   7.868   2.949   5.811
11865TIP3    H235518   7.868   3.029   5.940
11866TIP3   OH235519   7.814   2.471   5.399
11866TIP3    H135520   7.728   2.456   5.438
11866TIP3    H235521   7.796   2.520   5.319
11867TIP3   OH235522   0.004   4.097   4.897
11867TIP3    H135523   0.068   4.035   4.861
11867TIP3    H235524   0.047   4.182   4.889
11868TIP3   OH235525   8.038   2.537   6.229
11868TIP3    H135526   7.981   2.518   6.303
11868TIP3    H235527   7.981   2.577   6.164
11869TIP3   OH235528   8.056   3.988   6.285
11869TIP3    H135529   7.965   3.959   6.282
11869TIP3    H235530   8.082   3.976   6.376
11870TIP3   OH235531   8.264   4.027   5.841
11870TIP3    H135532   8.217   4.105   5.810
11870TIP3    H235533   8.349   4.031   5.798
11871TIP3   OH235534   8.653   4.245   5.992
11871TIP3    H135535   8.678   4.256   6.084
11871TIP3    H235536   8.722   4.289   5.943
11872TIP3   OH235537   8.851   4.385   5.866
11872TIP3    H135538   8.922   4.352   5.810
11872TIP3    H235539   8.891   4.454   5.918
11873TIP3   OH235540   7.929   4.269   5.884
11873TIP3    H135541   7.839   4.293   5.866
11873TIP3    H235542   7.957   4.331   5.952
11874TIP3   OH235543   8.163   4.260   5.738
11874TIP3    H135544   8.078   4.264   5.782
11874TIP3    H235545   8.143   4.278   5.646
11875TIP3   OH235546   8.548   4.280   5.544
11875TIP3    H135547   8.490   4.284   5.469
11875TIP3    H235548   8.563   4.371   5.569
11876TIP3   OH235549   8.794   4.187   5.622
11876TIP3    H135550   8.706   4.224   5.616
11876TIP3    H235551   8.831   4.200   5.534
11877TIP3   OH235552   0.197   4.399   5.467
11877TIP3    H135553   0.135   4.431   5.401
11877TIP3    H235554   0.271   4.367   5.417
11878TIP3   OH235555   7.842   4.042   5.616
11878TIP3    H135556   7.871   4.015   5.704
11878TIP3    H235557   7.911   4.011   5.558
11879TIP3   OH235558   8.040   3.930   5.470
11879TIP3    H135559   8.051   3.844   5.512
11879TIP3    H235560   8.128   3.969   5.472
11880TIP3   OH235561   8.306   4.022   5.488
11880TIP3    H135562   8.322   3.929   5.470
11880TIP3    H235563   8.364   4.042   5.561
11881TIP3   OH235564   8.821   2.591   5.528
11881TIP3    H135565   8.753   2.654   5.549
11881TIP3    H235566   8.883   2.597   5.601
11882TIP3   OH235567   8.111   2.349   5.575
11882TIP3    H135568   8.023   2.311   5.582
11882TIP3    H235569   8.169   2.273   5.565
11883TIP3   OH235570   7.926   2.266   5.234
11883TIP3    H135571   7.953   2.310   5.153
11883TIP3    H235572   7.898   2.336   5.292
11884TIP3   OH235573   8.502   2.399   5.457
11884TIP3    H135574   8.557   2.450   5.399
11884TIP3    H235575   8.545   2.405   5.543
11885TIP3   OH235576   7.610   3.842   4.984
11885TIP3    H135577   7.528   3.809   4.946
11885TIP3    H235578   7.614   3.933   4.956
11886TIP3   OH235579   8.025   2.386   4.996
11886TIP3    H135580   8.073   2.326   4.939
11886TIP3    H235581   8.093   2.442   5.034
11887TIP3   OH235582   8.502   2.552   5.074
11887TIP3    H135583   8.556   2.483   5.115
11887TIP3    H235584   8.513   2.628   5.132
11888TIP3   OH235585   8.354   4.041   4.623
11888TIP3    H135586   8.434   4.060   4.574
11888TIP3    H235587   8.312   3.971   4.574
11889TIP3   OH235588   8.343   2.644   6.459
11889TIP3    H135589   8.307   2.580   6.520
11889TIP3    H235590   8.435   2.652   6.484
11890TIP3   OH235591   8.588   2.648   6.589
11890TIP3    H135592   8.665   2.627   6.535
11890TIP3    H235593   8.583   2.576   6.652
11891TIP3   OH235594   7.708   3.830   4.643
11891TIP3    H135595   7.715   3.836   4.738
11891TIP3    H235596   7.788   3.784   4.617
11892TIP3   OH235597   0.427   4.260   5.797
11892TIP3    H135598   0.335   4.252   5.772
11892TIP3    H235599   0.467   4.312   5.726
11893TIP3   OH235600   1.271   4.188   6.819
11893TIP3    H135601   1.235   4.275   6.802
11893TIP3    H235602   1.202   4.127   6.792
11894TIP3   OH235603   1.273   4.183   7.222
11894TIP3    H135604   1.325   4.159   7.298
11894TIP3    H235605   1.231   4.101   7.194
11895TIP3   OH235606   3.547   8.271   0.265
11895TIP3    H135607   3.574   8.208   0.332
11895TIP3    H235608   3.626   8.287   0.213
11896TIP3   OH235609   1.542   4.489   6.909
11896TIP3    H135610   1.528   4.423   6.976
11896TIP3    H235611   1.561   4.569   6.957
11897TIP3   OH235612   6.559   0.306   0.054
11897TIP3    H135613   6.529   0.217   0.039
11897TIP3    H235614   6.639   0.315   0.002
11898TIP3   OH235615   0.155   3.675   7.119
11898TIP3    H135616   0.184   3.759   7.155
11898TIP3    H235617   0.210   3.610   7.162
11899TIP3   OH235618   0.352   3.980   7.238
11899TIP3    H135619   0.401   3.902   7.266
11899TIP3    H235620   0.340   3.967   7.144
11900TIP3   OH235621   1.201   4.910   6.927
11900TIP3    H135622   1.223   4.848   6.858
11900TIP3    H235623   1.214   4.861   7.008
11901TIP3   OH235624   1.086   4.396   7.248
11901TIP3    H135625   1.130   4.319   7.212
11901TIP3    H235626   1.157   4.455   7.274
11902TIP3   OH235627   2.117   3.737   7.236
11902TIP3    H135628   2.133   3.824   7.273
11902TIP3    H235629   2.155   3.741   7.148
11903TIP3   OH235630   4.452   8.076   0.021
11903TIP3    H135631   4.485   7.990   0.048
11903TIP3    H235632   4.420   8.062  -0.068
11904TIP3   OH235633   0.869   3.551   7.196
11904TIP3    H135634   0.836   3.619   7.137
11904TIP3    H235635   0.817   3.474   7.176
11905TIP3   OH235636   1.537   3.656   6.869
11905TIP3    H135637   1.602   3.649   6.938
11905TIP3    H235638   1.585   3.689   6.793
11906TIP3   OH235639   3.442   7.947   0.066
11906TIP3    H135640   3.530   7.944   0.104
11906TIP3    H235641   3.445   7.883  -0.006
11907TIP3   OH235642   0.902   3.964   7.174
11907TIP3    H135643   0.996   3.947   7.170
11907TIP3    H235644   0.862   3.884   7.139
11908TIP3   OH235645   5.131   8.145   0.149
11908TIP3    H135646   5.045   8.186   0.143
11908TIP3    H235647   5.176   8.195   0.217
11909TIP3   OH235648   3.721   7.702   0.314
11909TIP3    H135649   3.713   7.764   0.241
11909TIP3    H235650   3.636   7.704   0.357
11910TIP3   OH235651   1.129   4.398   6.708
11910TIP3    H135652   1.126   4.389   6.612
11910TIP3    H235653   1.086   4.481   6.726
11911TIP3   OH235654   6.879   0.135   0.212
11911TIP3    H135655   6.815   0.202   0.238
11911TIP3    H235656   6.917   0.170   0.132
11912TIP3   OH235657   1.696   3.677   7.088
11912TIP3    H135658   1.662   3.647   7.172
11912TIP3    H235659   1.756   3.748   7.110
11913TIP3   OH235660   3.707   7.895   0.126
11913TIP3    H135661   3.767   7.959   0.162
11913TIP3    H235662   3.757   7.852   0.057
11914TIP3   OH235663   6.691   0.317   0.299
11914TIP3    H135664   6.640   0.328   0.219
11914TIP3    H235665   6.630   0.336   0.370
11915TIP3   OH235666   1.573   4.736   7.053
11915TIP3    H135667   1.483   4.730   7.086
11915TIP3    H235668   1.576   4.819   7.005
11916TIP3   OH235669   4.869   7.860   0.129
11916TIP3    H135670   4.793   7.905   0.093
11916TIP3    H235671   4.938   7.874   0.063
11917TIP3   OH235672   4.153   7.437   0.104
11917TIP3    H135673   4.143   7.348   0.137
11917TIP3    H235674   4.073   7.482   0.131
11918TIP3   OH235675   1.282   4.765   6.704
11918TIP3    H135676   1.333   4.685   6.693
11918TIP3    H235677   1.341   4.835   6.678
11919TIP3   OH235678   1.434   4.547   6.660
11919TIP3    H135679   1.451   4.476   6.598
11919TIP3    H235680   1.474   4.518   6.742
11920TIP3   OH235681   7.747   0.426   0.125
11920TIP3    H135682   7.727   0.354   0.065
11920TIP3    H235683   7.733   0.505   0.073
11921TIP3   OH235684   1.097   4.031   6.662
11921TIP3    H135685   1.025   4.090   6.645
11921TIP3    H235686   1.147   4.029   6.580
11922TIP3   OH235687   1.095   3.830   6.345
11922TIP3    H135688   1.159   3.883   6.393
11922TIP3    H235689   1.148   3.765   6.298
11923TIP3   OH235690   1.993   4.296   7.264
11923TIP3    H135691   1.908   4.339   7.257
11923TIP3    H235692   2.032   4.306   7.178
11924TIP3   OH235693   1.459   4.130   6.628
11924TIP3    H135694   1.404   4.153   6.703
11924TIP3    H235695   1.541   4.100   6.667
11925TIP3   OH235696   4.646   8.360   0.271
11925TIP3    H135697   4.641   8.438   0.325
11925TIP3    H235698   4.560   8.355   0.229
11926TIP3   OH235699   0.698   4.097   7.046
11926TIP3    H135700   0.660   4.030   6.989
11926TIP3    H235701   0.771   4.053   7.089
11927TIP3   OH235702   0.850   4.529   7.165
11927TIP3    H135703   0.822   4.507   7.076
11927TIP3    H235704   0.933   4.482   7.176
11928TIP3   OH235705   3.794   8.285   0.142
11928TIP3    H135706   3.816   8.260   0.052
11928TIP3    H235707   3.832   8.372   0.152
11929TIP3   OH235708   1.327   4.732   7.173
11929TIP3    H135709   1.326   4.811   7.228
11929TIP3    H235710   1.316   4.660   7.235
11930TIP3   OH235711   6.892   0.436   0.450
11930TIP3    H135712   6.834   0.498   0.493
11930TIP3    H235713   6.835   0.388   0.390
11931TIP3   OH235714   1.295   3.985   6.461
11931TIP3    H135715   1.354   4.043   6.511
11931TIP3    H235716   1.323   3.996   6.370
11932TIP3   OH235717   6.582  -0.009   0.583
11932TIP3    H135718   6.581   0.066   0.641
11932TIP3    H235719   6.517   0.011   0.515
11933TIP3   OH235720   1.026   4.661   6.719
11933TIP3    H135721   1.116   4.695   6.722
11933TIP3    H235722   0.977   4.728   6.670
11934TIP3   OH235723   6.686   0.598   0.529
11934TIP3    H135724   6.677   0.630   0.439
11934TIP3    H235725   6.618   0.530   0.538
11935TIP3   OH235726   1.799   3.203   6.515
11935TIP3    H135727   1.724   3.227   6.569
11935TIP3    H235728   1.812   3.278   6.457
11936TIP3   OH235729   0.566   3.935   6.853
11936TIP3    H135730   0.506   3.966   6.784
11936TIP3    H235731   0.508   3.898   6.920
11937TIP3   OH235732   1.626   4.578   6.076
11937TIP3    H135733   1.622   4.669   6.047
11937TIP3    H235734   1.715   4.550   6.054
11938TIP3   OH235735   7.977   0.799   0.193
11938TIP3    H135736   7.982   0.704   0.203
11938TIP3    H235737   7.897   0.824   0.240
11939TIP3   OH235738   7.085   0.572   0.316
11939TIP3    H135739   7.079   0.664   0.344
11939TIP3    H235740   7.015   0.528   0.364
11940TIP3   OH235741   0.927   4.873   6.548
11940TIP3    H135742   0.882   4.859   6.464
11940TIP3    H235743   0.897   4.959   6.577
11941TIP3   OH235744   1.144   4.801   6.174
11941TIP3    H135745   1.193   4.725   6.141
11941TIP3    H235746   1.177   4.815   6.263
11942TIP3   OH235747   1.181   4.845   6.444
11942TIP3    H135748   1.094   4.850   6.484
11942TIP3    H235749   1.237   4.805   6.511
11943TIP3   OH235750   4.873   8.288   0.432
11943TIP3    H135751   4.795   8.307   0.381
11943TIP3    H235752   4.896   8.198   0.410
11944TIP3   OH235753   6.529   0.365   0.521
11944TIP3    H135754   6.560   0.318   0.599
11944TIP3    H235755   6.434   0.363   0.528
11945TIP3   OH235756   3.909   7.544   0.179
11945TIP3    H135757   3.844   7.481   0.145
11945TIP3    H235758   3.857   7.606   0.230
11946TIP3   OH235759   4.535   7.678   0.309
11946TIP3    H135760   4.618   7.646   0.343
11946TIP3    H235761   4.474   7.669   0.382
11947TIP3   OH235762   4.661   8.083   0.312
11947TIP3    H135763   4.645   8.099   0.405
11947TIP3    H235764   4.650   8.169   0.271
11948TIP3   OH235765   1.369   3.993   6.202
11948TIP3    H135766   1.324   3.980   6.119
11948TIP3    H235767   1.455   4.027   6.176
11949TIP3   OH235768   1.082   3.382   6.512
11949TIP3    H135769   1.042   3.386   6.600
11949TIP3    H235770   1.052   3.298   6.476
11950TIP3   OH235771   3.881   8.059   0.260
11950TIP3    H135772   3.902   8.087   0.349
11950TIP3    H235773   3.843   8.136   0.218
11951TIP3   OH235774   0.747   3.761   7.067
11951TIP3    H135775   0.664   3.727   7.100
11951TIP3    H235776   0.751   3.731   6.976
11952TIP3   OH235777   1.229   3.829   6.797
11952TIP3    H135778   1.179   3.900   6.756
11952TIP3    H235779   1.286   3.797   6.728
11953TIP3   OH235780   4.413   8.355   0.546
11953TIP3    H135781   4.373   8.441   0.554
11953TIP3    H235782   4.503   8.367   0.576
11954TIP3   OH235783   1.393   3.839   7.024
11954TIP3    H135784   1.331   3.863   6.956
11954TIP3    H235785   1.442   3.765   6.987
11955TIP3   OH235786   3.650   8.112   0.460
11955TIP3    H135787   3.628   8.155   0.542
11955TIP3    H235788   3.709   8.041   0.485
11956TIP3   OH235789   0.752   3.355   6.490
11956TIP3    H135790   0.733   3.348   6.583
11956TIP3    H235791   0.667   3.368   6.449
11957TIP3   OH235792   3.238   7.665  -0.007
11957TIP3    H135793   3.306   7.655   0.059
11957TIP3    H235794   3.250   7.590  -0.065
11958TIP3   OH235795   0.120   3.341   6.882
11958TIP3    H135796   0.182   3.330   6.810
11958TIP3    H235797   0.099   3.434   6.881
11959TIP3   OH235798   4.389   8.291   0.174
11959TIP3    H135799   4.415   8.216   0.120
11959TIP3    H235800   4.343   8.251   0.248
11960TIP3   OH235801   1.134   3.536   7.112
11960TIP3    H135802   1.052   3.539   7.162
11960TIP3    H235803   1.202   3.531   7.179
11961TIP3   OH235804   0.537   3.593   7.122
11961TIP3    H135805   0.471   3.587   7.053
11961TIP3    H235806   0.580   3.508   7.121
11962TIP3   OH235807   0.774   3.621   6.833
11962TIP3    H135808   0.869   3.631   6.833
11962TIP3    H235809   0.748   3.638   6.743
11963TIP3   OH235810   4.533   7.811   0.064
11963TIP3    H135811   4.555   7.767   0.146
11963TIP3    H235812   4.455   7.765   0.032
11964TIP3   OH235813   0.697   3.635   6.572
11964TIP3    H135814   0.705   3.555   6.521
11964TIP3    H235815   0.746   3.700   6.521
11965TIP3   OH235816   7.694   1.135   0.287
11965TIP3    H135817   7.691   1.152   0.193
11965TIP3    H235818   7.772   1.182   0.317
11966TIP3   OH235819   6.611   0.222   0.743
11966TIP3    H135820   6.699   0.241   0.775
11966TIP3    H235821   6.556   0.225   0.821
11967TIP3   OH235822   1.176   3.915   7.196
11967TIP3    H135823   1.243   3.874   7.141
11967TIP3    H235824   1.185   3.871   7.280
11968TIP3   OH235825   0.685   3.359   7.101
11968TIP3    H135826   0.642   3.286   7.145
11968TIP3    H235827   0.707   3.325   7.014
11969TIP3   OH235828   4.142   8.013   0.188
11969TIP3    H135829   4.049   8.028   0.205
11969TIP3    H235830   4.188   8.068   0.252
11970TIP3   OH235831   0.868   4.203   6.617
11970TIP3    H135832   0.804   4.131   6.613
11970TIP3    H235833   0.862   4.235   6.707
11971TIP3   OH235834   1.754   4.423   7.212
11971TIP3    H135835   1.790   4.470   7.138
11971TIP3    H235836   1.675   4.380   7.177
11972TIP3   OH235837   1.334   3.484   6.519
11972TIP3    H135838   1.241   3.463   6.512
11972TIP3    H235839   1.337   3.579   6.525
11973TIP3   OH235840   7.214   0.316   0.357
11973TIP3    H135841   7.263   0.315   0.439
11973TIP3    H235842   7.169   0.401   0.358
11974TIP3   OH235843   1.391   3.751   6.582
11974TIP3    H135844   1.487   3.752   6.589
11974TIP3    H235845   1.370   3.827   6.528
11975TIP3   OH235846   0.579   4.239   7.257
11975TIP3    H135847   0.611   4.196   7.178
11975TIP3    H235848   0.530   4.170   7.303
11976TIP3   OH235849   1.042   4.315   6.438
11976TIP3    H135850   1.006   4.403   6.433
11976TIP3    H235851   0.985   4.270   6.500
11977TIP3   OH235852   7.094   0.075   0.588
11977TIP3    H135853   7.002   0.049   0.588
11977TIP3    H235854   7.123   0.060   0.498
11978TIP3   OH235855   7.354   0.599   0.242
11978TIP3    H135856   7.259   0.586   0.245
11978TIP3    H235857   7.375   0.639   0.327
11979TIP3   OH235858   1.801   3.842   6.405
11979TIP3    H135859   1.741   3.798   6.345
11979TIP3    H235860   1.812   3.930   6.369
11980TIP3   OH235861   7.990   0.523   0.215
11980TIP3    H135862   7.897   0.502   0.213
11980TIP3    H235863   8.024   0.490   0.132
11981TIP3   OH235864   1.539   4.648   6.331
11981TIP3    H135865   1.516   4.570   6.382
11981TIP3    H235866   1.567   4.615   6.246
11982TIP3   OH235867   1.526   4.286   7.111
11982TIP3    H135868   1.435   4.266   7.131
11982TIP3    H235869   1.561   4.205   7.074
11983TIP3   OH235870   0.688   4.523   6.938
11983TIP3    H135871   0.676   4.611   6.902
11983TIP3    H235872   0.599   4.493   6.959
11984TIP3   OH235873   0.193   3.812   6.670
11984TIP3    H135874   0.269   3.870   6.677
11984TIP3    H235875   0.138   3.853   6.603
11985TIP3   OH235876   0.817   4.282   6.872
11985TIP3    H135877   0.780   4.369   6.885
11985TIP3    H235878   0.779   4.229   6.941
11986TIP3   OH235879   6.906   0.649   0.109
11986TIP3    H135880   6.947   0.721   0.062
11986TIP3    H235881   6.977   0.611   0.161
11987TIP3   OH235882   0.587   4.772   6.845
11987TIP3    H135883   0.511   4.809   6.890
11987TIP3    H235884   0.638   4.848   6.817
11988TIP3   OH235885   7.252   0.315   0.083
11988TIP3    H135886   7.242   0.313   0.178
11988TIP3    H235887   7.335   0.270   0.067
11989TIP3   OH235888   1.314   4.385   6.249
11989TIP3    H135889   1.365   4.373   6.329
11989TIP3    H235890   1.230   4.343   6.267
11990TIP3   OH235891   7.511   0.814   0.127
11990TIP3    H135892   7.437   0.755   0.138
11990TIP3    H235893   7.485   0.872   0.055
11991TIP3   OH235894   1.619   4.849   6.026
11991TIP3    H135895   1.629   4.902   5.946
11991TIP3    H235896   1.551   4.895   6.076
11992TIP3   OH235897   3.573   7.839   0.637
11992TIP3    H135898   3.559   7.933   0.653
11992TIP3    H235899   3.662   7.833   0.603
11993TIP3   OH235900   1.490   4.349   6.463
11993TIP3    H135901   1.471   4.273   6.517
11993TIP3    H235902   1.582   4.339   6.439
11994TIP3   OH235903   0.705   4.314   6.206
11994TIP3    H135904   0.737   4.224   6.214
11994TIP3    H235905   0.676   4.336   6.294
11995TIP3   OH235906   0.674   4.368   6.477
11995TIP3    H135907   0.748   4.330   6.524
11995TIP3    H235908   0.686   4.463   6.485
11996TIP3   OH235909   0.371   4.024   6.685
11996TIP3    H135910   0.296   4.052   6.738
11996TIP3    H235911   0.394   4.101   6.634
11997TIP3   OH235912   4.440   7.935   0.362
11997TIP3    H135913   4.519   7.978   0.330
11997TIP3    H235914   4.450   7.844   0.335
11998TIP3   OH235915   1.395   3.434   6.782
11998TIP3    H135916   1.373   3.452   6.691
11998TIP3    H235917   1.436   3.514   6.814
11999TIP3   OH235918   0.922   4.556   6.441
11999TIP3    H135919   0.852   4.591   6.497
11999TIP3    H235920   0.937   4.625   6.376
12000TIP3   OH235921   1.048   3.633   6.869
12000TIP3    H135922   1.107   3.703   6.840
12000TIP3    H235923   1.079   3.610   6.956
12001TIP3   OH235924   4.287   8.155   0.392
12001TIP3    H135925   4.332   8.215   0.450
12001TIP3    H235926   4.338   8.074   0.397
12002TIP3   OH235927   1.207   3.325   6.948
12002TIP3    H135928   1.189   3.401   7.003
12002TIP3    H235929   1.278   3.355   6.890
12003TIP3   OH235930   0.663   4.652   6.495
12003TIP3    H135931   0.641   4.671   6.404
12003TIP3    H235932   0.652   4.735   6.540
12004TIP3   OH235933   0.722   3.351   6.770
12004TIP3    H135934   0.708   3.440   6.802
12004TIP3    H235935   0.817   3.338   6.772
12005TIP3   OH235936   4.924   8.021   0.363
12005TIP3    H135937   4.831   8.018   0.341
12005TIP3    H235938   4.968   7.989   0.285
12006TIP3   OH235939   1.618   4.026   7.028
12006TIP3    H135940   1.542   3.968   7.035
12006TIP3    H235941   1.685   3.984   7.081
12007TIP3   OH235942   0.433   4.273   6.568
12007TIP3    H135943   0.508   4.306   6.520
12007TIP3    H235944   0.372   4.243   6.501
12008TIP3   OH235945   0.285   3.453   6.684
12008TIP3    H135946   0.343   3.505   6.629
12008TIP3    H235947   0.208   3.509   6.696
12009TIP3   OH235948   1.597   5.001   6.966
12009TIP3    H135949   1.554   5.055   6.900
12009TIP3    H235950   1.691   5.018   6.954
12010TIP3   OH235951   3.649   7.424   0.180
12010TIP3    H135952   3.610   7.392   0.098
12010TIP3    H235953   3.654   7.346   0.236
12011TIP3   OH235954   6.813   0.780   0.694
12011TIP3    H135955   6.893   0.732   0.713
12011TIP3    H235956   6.759   0.719   0.644
12012TIP3   OH235957   0.834   4.542   6.122
12012TIP3    H135958   0.789   4.466   6.158
12012TIP3    H235959   0.913   4.506   6.082
12013TIP3   OH235960   7.401   0.701   0.492
12013TIP3    H135961   7.414   0.631   0.556
12013TIP3    H235962   7.475   0.759   0.506
12014TIP3   OH235963   1.261   4.583   6.064
12014TIP3    H135964   1.298   4.519   6.124
12014TIP3    H235965   1.318   4.580   5.988
12015TIP3   OH235966   0.526   4.035   6.385
12015TIP3    H135967   0.571   4.023   6.468
12015TIP3    H235968   0.596   4.038   6.319
12016TIP3   OH235969   7.039   0.340   0.661
12016TIP3    H135970   6.991   0.365   0.581
12016TIP3    H235971   7.077   0.255   0.640
12017TIP3   OH235972   1.039   4.255   6.169
12017TIP3    H135973   1.031   4.261   6.264
12017TIP3    H235974   1.033   4.162   6.150
12018TIP3   OH235975   7.516   0.374   0.269
12018TIP3    H135976   7.595   0.401   0.222
12018TIP3    H235977   7.455   0.446   0.256
12019TIP3   OH235978   3.573   8.341   0.920
12019TIP3    H135979   3.659   8.328   0.881
12019TIP3    H235980   3.588   8.402   0.992
12020TIP3   OH235981   0.699   3.985   6.600
12020TIP3    H135982   0.681   3.937   6.680
12020TIP3    H235983   0.749   3.923   6.546
12021TIP3   OH235984   6.845  -0.005   0.507
12021TIP3    H135985   6.756  -0.016   0.542
12021TIP3    H235986   6.832   0.041   0.424
12022TIP3   OH235987   0.832   3.816   6.424
12022TIP3    H135988   0.796   3.802   6.336
12022TIP3    H235989   0.927   3.821   6.411
12023TIP3   OH235990   7.401   0.239   0.631
12023TIP3    H135991   7.484   0.226   0.585
12023TIP3    H235992   7.411   0.191   0.713
12024TIP3   OH235993   1.597   4.091   6.080
12024TIP3    H135994   1.585   4.051   5.994
12024TIP3    H235995   1.571   4.182   6.068
12025TIP3   OH235996   4.044   8.108   0.748
12025TIP3    H135997   4.084   8.021   0.758
12025TIP3    H235998   4.036   8.120   0.654
12026TIP3   OH235999   4.116   7.895   0.460
12026TIP3    H136000   4.146   7.880   0.370
12026TIP3    H236001   4.065   7.976   0.455
12027TIP3   OH236002   7.103   0.014   0.320
12027TIP3    H136003   7.174   0.037   0.259
12027TIP3    H236004   7.025   0.056   0.283
12028TIP3   OH236005   7.635  -0.000   0.675
12028TIP3    H136006   7.704  -0.055   0.713
12028TIP3    H236007   7.678   0.083   0.657
12029TIP3   OH236008   7.629   0.205   0.443
12029TIP3    H136009   7.579   0.263   0.387
12029TIP3    H236010   7.719   0.211   0.410
12030TIP3   OH236011   3.816   8.254   0.831
12030TIP3    H136012   3.828   8.177   0.887
12030TIP3    H236013   3.901   8.268   0.790
12031TIP3   OH236014   4.081   7.584   0.677
12031TIP3    H136015   4.065   7.599   0.584
12031TIP3    H236016   4.066   7.491   0.690
12032TIP3   OH236017   4.704   7.977   0.828
12032TIP3    H136018   4.746   7.892   0.845
12032TIP3    H236019   4.677   8.008   0.915
12033TIP3   OH236020   4.333   7.662   0.861
12033TIP3    H136021   4.330   7.617   0.946
12033TIP3    H236022   4.329   7.591   0.796
12034TIP3   OH236023   0.702   4.943   6.360
12034TIP3    H136024   0.762   4.880   6.320
12034TIP3    H236025   0.667   4.992   6.285
12035TIP3   OH236026   1.859   5.075   6.953
12035TIP3    H136027   1.893   5.096   7.041
12035TIP3    H236028   1.928   5.104   6.894
12036TIP3   OH236029   1.888   5.086   7.238
12036TIP3    H136030   1.843   5.002   7.228
12036TIP3    H236031   1.958   5.068   7.301
12037TIP3   OH236032   7.870   0.586   0.541
12037TIP3    H136033   7.793   0.598   0.596
12037TIP3    H236034   7.917   0.670   0.547
12038TIP3   OH236035   1.759   4.306   6.419
12038TIP3    H136036   1.818   4.373   6.386
12038TIP3    H236037   1.808   4.264   6.490
12039TIP3   OH236038   1.888   4.160   6.618
12039TIP3    H136039   1.820   4.122   6.675
12039TIP3    H236040   1.953   4.195   6.679
12040TIP3   OH236041   1.940   4.555   7.051
12040TIP3    H136042   1.991   4.485   7.012
12040TIP3    H236043   1.947   4.628   6.989
12041TIP3   OH236044   1.746   4.844   7.245
12041TIP3    H136045   1.681   4.892   7.295
12041TIP3    H236046   1.698   4.805   7.172
12042TIP3   OH236047   1.803   4.079   6.264
12042TIP3    H136048   1.735   4.075   6.196
12042TIP3    H236049   1.782   4.159   6.313
12043TIP3   OH236050   1.637   3.736   6.217
12043TIP3    H136051   1.600   3.774   6.137
12043TIP3    H236052   1.629   3.642   6.206
12044TIP3   OH236053   1.683   4.022   6.756
12044TIP3    H136054   1.690   3.928   6.739
12044TIP3    H236055   1.666   4.028   6.850
12045TIP3   OH236056   3.275   8.262   0.227
12045TIP3    H136057   3.273   8.251   0.132
12045TIP3    H236058   3.367   8.278   0.248
12046TIP3   OH236059   7.880   0.242   0.337
12046TIP3    H136060   7.948   0.176   0.326
12046TIP3    H236061   7.882   0.293   0.257
12047TIP3   OH236062   8.061   0.040   0.352
12047TIP3    H136063   7.990  -0.013   0.387
12047TIP3    H236064   8.139  -0.014   0.365
12048TIP3   OH236065   1.608   3.467   6.189
12048TIP3    H136066   1.677   3.433   6.245
12048TIP3    H236067   1.530   3.417   6.214
12049TIP3   OH236068   1.681   3.745   6.643
12049TIP3    H136069   1.728   3.662   6.656
12049TIP3    H236070   1.722   3.784   6.565
12050TIP3   OH236071   1.836   3.904   7.169
12050TIP3    H136072   1.915   3.922   7.117
12050TIP3    H236073   1.850   3.952   7.251
12051TIP3   OH236074   4.871   8.264   0.119
12051TIP3    H136075   4.794   8.300   0.163
12051TIP3    H236076   4.910   8.339   0.074
12052TIP3   OH236077   5.381   7.904   0.626
12052TIP3    H136078   5.433   7.834   0.587
12052TIP3    H236079   5.329   7.938   0.553
12053TIP3   OH236080   1.798   3.495   6.700
12053TIP3    H136081   1.841   3.477   6.783
12053TIP3    H236082   1.736   3.423   6.689
12054TIP3   OH236083   3.442   7.616   0.173
12054TIP3    H136084   3.529   7.576   0.167
12054TIP3    H236085   3.449   7.680   0.243
12055TIP3   OH236086   3.274   7.991   0.275
12055TIP3    H136087   3.328   7.974   0.198
12055TIP3    H236088   3.255   8.084   0.271
12056TIP3   OH236089   5.207   7.987   0.432
12056TIP3    H136090   5.132   8.031   0.473
12056TIP3    H236091   5.170   7.909   0.390
12057TIP3   OH236092   1.841   3.403   6.332
12057TIP3    H136093   1.889   3.344   6.274
12057TIP3    H236094   1.894   3.483   6.333
12058TIP3   OH236095   0.289   3.245   7.091
12058TIP3    H136096   0.260   3.175   7.149
12058TIP3    H236097   0.214   3.263   7.035
12059TIP3   OH236098   1.423   4.974   6.605
12059TIP3    H136099   1.474   4.956   6.526
12059TIP3    H236100   1.474   5.040   6.652
12060TIP3   OH236101   3.320   7.500   0.562
12060TIP3    H136102   3.343   7.541   0.646
12060TIP3    H236103   3.234   7.536   0.540
12061TIP3   OH236104   6.678   0.656   0.264
12061TIP3    H136105   6.631   0.722   0.214
12061TIP3    H236106   6.758   0.640   0.213
12062TIP3   OH236107   7.072   0.837   0.390
12062TIP3    H136108   7.101   0.837   0.482
12062TIP3    H236109   7.136   0.891   0.345
12063TIP3   OH236110   7.261   0.994   0.269
12063TIP3    H136111   7.323   0.941   0.218
12063TIP3    H236112   7.317   1.049   0.324
12064TIP3   OH236113   5.099   7.749   0.333
12064TIP3    H136114   5.008   7.742   0.304
12064TIP3    H236115   5.134   7.660   0.323
12065TIP3   OH236116   6.539   0.853   0.124
12065TIP3    H136117   6.474   0.879   0.189
12065TIP3    H236118   6.491   0.801   0.060
12066TIP3   OH236119   1.063   5.055   7.223
12066TIP3    H136120   0.999   5.063   7.152
12066TIP3    H236121   1.068   5.142   7.262
12067TIP3   OH236122   1.321   4.990   7.272
12067TIP3    H136123   1.229   5.009   7.253
12067TIP3    H236124   1.370   5.056   7.223
12068TIP3   OH236125   1.514   5.167   7.169
12068TIP3    H136126   1.510   5.254   7.128
12068TIP3    H236127   1.542   5.109   7.099
12069TIP3   OH236128   0.523   4.725   7.176
12069TIP3    H136129   0.534   4.646   7.229
12069TIP3    H236130   0.612   4.755   7.158
12070TIP3   OH236131   0.798   4.802   7.166
12070TIP3    H136132   0.815   4.710   7.146
12070TIP3    H236133   0.850   4.819   7.244
12071TIP3   OH236134   1.354   3.445   7.261
12071TIP3    H136135   1.304   3.372   7.297
12071TIP3    H236136   1.419   3.404   7.204
12072TIP3   OH236137   1.819   3.385   7.178
12072TIP3    H136138   1.863   3.423   7.101
12072TIP3    H236139   1.727   3.382   7.154
12073TIP3   OH236140   1.945   3.425   6.931
12073TIP3    H136141   2.014   3.366   6.900
12073TIP3    H236142   1.981   3.513   6.921
12074TIP3   OH236143   0.567   3.138   7.216
12074TIP3    H136144   0.473   3.122   7.208
12074TIP3    H236145   0.607   3.051   7.213
12075TIP3   OH236146   0.410   3.063   6.910
12075TIP3    H136147   0.444   3.100   6.829
12075TIP3    H236148   0.383   3.138   6.962
12076TIP3   OH236149   1.045   3.196   7.132
12076TIP3    H136150   1.091   3.237   7.059
12076TIP3    H236151   1.100   3.215   7.208
12077TIP3   OH236152   1.553   3.318   7.119
12077TIP3    H136153   1.572   3.283   7.032
12077TIP3    H236154   1.554   3.242   7.176
12078TIP3   OH236155   1.613   3.283   6.702
12078TIP3    H136156   1.534   3.332   6.725
12078TIP3    H236157   1.600   3.196   6.738
12079TIP3   OH236158   0.533   3.165   6.682
12079TIP3    H136159   0.584   3.102   6.632
12079TIP3    H236160   0.598   3.225   6.718
12080TIP3   OH236161   0.993   3.381   6.774
12080TIP3    H136162   1.057   3.329   6.824
12080TIP3    H236163   1.011   3.472   6.800
12081TIP3   OH236164   0.888   4.771   6.263
12081TIP3    H136165   0.973   4.796   6.226
12081TIP3    H236166   0.859   4.697   6.209
12082TIP3   OH236167   1.569   4.917   6.376
12082TIP3    H136168   1.565   4.822   6.367
12082TIP3    H236169   1.532   4.951   6.295
12083TIP3   OH236170   4.890   7.771   0.853
12083TIP3    H136171   4.850   7.688   0.824
12083TIP3    H236172   4.933   7.805   0.774
12084TIP3   OH236173   7.729   0.863   0.292
12084TIP3    H136174   7.655   0.834   0.238
12084TIP3    H236175   7.718   0.958   0.299
12085TIP3   OH236176   3.011   4.415   6.395
12085TIP3    H136177   3.015   4.501   6.354
12085TIP3    H236178   2.976   4.357   6.327
12086TIP3   OH236179   3.058   4.464   6.664
12086TIP3    H136180   3.054   4.380   6.709
12086TIP3    H236181   3.041   4.443   6.572
12087TIP3   OH236182   2.366   4.298   7.074
12087TIP3    H136183   2.404   4.243   7.142
12087TIP3    H236184   2.440   4.321   7.018
12088TIP3   OH236185   2.345   4.729   6.767
12088TIP3    H136186   2.332   4.634   6.764
12088TIP3    H236187   2.439   4.740   6.751
12089TIP3   OH236188   2.036   3.929   6.546
12089TIP3    H136189   1.999   4.015   6.565
12089TIP3    H236190   1.966   3.882   6.499
12090TIP3   OH236191   2.117   4.239   6.762
12090TIP3    H136192   2.168   4.161   6.785
12090TIP3    H236193   2.182   4.301   6.728
12091TIP3   OH236194   3.016   5.146   6.399
12091TIP3    H136195   3.034   5.084   6.328
12091TIP3    H236196   3.029   5.096   6.479
12092TIP3   OH236197   2.864   4.668   6.730
12092TIP3    H136198   2.910   4.595   6.690
12092TIP3    H236199   2.934   4.728   6.758
12093TIP3   OH236200   3.913   3.977   6.744
12093TIP3    H136201   3.923   4.065   6.781
12093TIP3    H236202   3.940   3.986   6.652
12094TIP3   OH236203   3.261   4.148   6.763
12094TIP3    H136204   3.301   4.064   6.786
12094TIP3    H236205   3.236   4.137   6.671
12095TIP3   OH236206   2.634   3.803   6.720
12095TIP3    H136207   2.615   3.877   6.663
12095TIP3    H236208   2.579   3.732   6.686
12096TIP3   OH236209   3.326   3.916   6.360
12096TIP3    H136210   3.390   3.909   6.430
12096TIP3    H236211   3.376   3.948   6.285
12097TIP3   OH236212   2.258   4.017   6.852
12097TIP3    H136213   2.343   4.002   6.893
12097TIP3    H236214   2.261   3.967   6.771
12098TIP3   OH236215   2.674   4.216   6.674
12098TIP3    H136216   2.768   4.199   6.679
12098TIP3    H236217   2.636   4.137   6.636
12099TIP3   OH236218   3.959   4.201   6.911
12099TIP3    H136219   3.873   4.240   6.899
12099TIP3    H236220   3.992   4.241   6.992
12100TIP3   OH236221   2.613   3.808   7.173
12100TIP3    H136222   2.564   3.845   7.099
12100TIP3    H236223   2.558   3.825   7.249
12101TIP3   OH236224   2.985   4.635   6.227
12101TIP3    H136225   3.051   4.656   6.162
12101TIP3    H236226   2.923   4.708   6.223
12102TIP3   OH236227   2.711   4.583   6.944
12102TIP3    H136228   2.657   4.655   6.975
12102TIP3    H236229   2.759   4.620   6.870
12103TIP3   OH236230   3.488   3.928   6.581
12103TIP3    H136231   3.446   3.908   6.664
12103TIP3    H236232   3.546   4.002   6.600
12104TIP3   OH236233   2.506   3.915   6.941
12104TIP3    H136234   2.562   3.990   6.963
12104TIP3    H236235   2.551   3.872   6.868
12105TIP3   OH236236   2.554   4.789   7.046
12105TIP3    H136237   2.541   4.878   7.012
12105TIP3    H236238   2.475   4.771   7.097
12106TIP3   OH236239   1.931   4.491   6.302
12106TIP3    H136240   1.902   4.502   6.211
12106TIP3    H236241   1.954   4.579   6.331
12107TIP3   OH236242   3.382   5.025   6.576
12107TIP3    H136243   3.291   4.995   6.585
12107TIP3    H236244   3.376   5.101   6.518
12108TIP3   OH236245   3.713   3.866   6.912
12108TIP3    H136246   3.627   3.886   6.875
12108TIP3    H236247   3.775   3.894   6.845
12109TIP3   OH236248   2.960   3.505   6.905
12109TIP3    H136249   2.950   3.413   6.927
12109TIP3    H236250   2.882   3.548   6.942
12110TIP3   OH236251   3.090   4.983   6.173
12110TIP3    H136252   3.131   4.903   6.139
12110TIP3    H236253   3.153   5.052   6.154
12111TIP3   OH236254   3.621   4.871   6.899
12111TIP3    H136255   3.598   4.803   6.836
12111TIP3    H236256   3.606   4.953   6.851
12112TIP3   OH236257   2.913   4.291   6.153
12112TIP3    H136258   2.831   4.338   6.138
12112TIP3    H236259   2.968   4.314   6.079
12113TIP3   OH236260   2.864   4.090   5.864
12113TIP3    H136261   2.926   4.141   5.917
12113TIP3    H236262   2.920   4.028   5.816
12114TIP3   OH236263   3.787   4.540   6.743
12114TIP3    H136264   3.704   4.588   6.742
12114TIP3    H236265   3.824   4.555   6.656
12115TIP3   OH236266   3.485   4.404   7.058
12115TIP3    H136267   3.474   4.488   7.104
12115TIP3    H236268   3.403   4.394   7.009
12116TIP3   OH236269   2.476   4.353   6.520
12116TIP3    H136270   2.441   4.293   6.454
12116TIP3    H236271   2.551   4.306   6.557
12117TIP3   OH236272   2.606   4.778   6.663
12117TIP3    H136273   2.583   4.766   6.570
12117TIP3    H236274   2.694   4.742   6.671
12118TIP3   OH236275   2.576   4.349   6.895
12118TIP3    H136276   2.613   4.312   6.815
12118TIP3    H236277   2.626   4.429   6.910
12119TIP3   OH236278   3.115   4.995   6.656
12119TIP3    H136279   3.117   5.070   6.715
12119TIP3    H236280   3.110   4.919   6.713
12120TIP3   OH236281   2.752   4.888   7.214
12120TIP3    H136282   2.690   4.945   7.259
12120TIP3    H236283   2.697   4.836   7.155
12121TIP3   OH236284   3.105   4.262   5.928
12121TIP3    H136285   3.144   4.347   5.946
12121TIP3    H236286   3.112   4.251   5.833
12122TIP3   OH236287   8.443   0.245   0.100
12122TIP3    H136288   8.442   0.340   0.111
12122TIP3    H236289   8.351   0.222   0.084
12123TIP3   OH236290   2.834   4.883   6.210
12123TIP3    H136291   2.920   4.922   6.201
12123TIP3    H236292   2.781   4.924   6.141
12124TIP3   OH236293   8.475   0.850   0.032
12124TIP3    H136294   8.450   0.860  -0.060
12124TIP3    H236295   8.392   0.835   0.077
12125TIP3   OH236296   3.597   3.463   6.007
12125TIP3    H136297   3.520   3.485   6.059
12125TIP3    H236298   3.609   3.539   5.949
12126TIP3   OH236299   2.356   4.194   6.319
12126TIP3    H136300   2.280   4.243   6.287
12126TIP3    H236301   2.326   4.103   6.320
12127TIP3   OH236302   3.408   4.825   5.552
12127TIP3    H136303   3.409   4.919   5.531
12127TIP3    H236304   3.498   4.796   5.538
12128TIP3   OH236305   2.137   4.605   7.248
12128TIP3    H136306   2.070   4.584   7.183
12128TIP3    H236307   2.173   4.520   7.273
12129TIP3   OH236308   2.021   4.775   6.891
12129TIP3    H136309   2.112   4.766   6.861
12129TIP3    H236310   2.021   4.853   6.946
12130TIP3   OH236311   3.844   5.267   6.952
12130TIP3    H136312   3.849   5.171   6.955
12130TIP3    H236313   3.762   5.287   6.997
12131TIP3   OH236314   2.944   5.029   7.078
12131TIP3    H136315   2.933   5.120   7.105
12131TIP3    H236316   2.876   4.981   7.126
12132TIP3   OH236317   2.729   5.129   6.026
12132TIP3    H136318   2.693   5.104   5.941
12132TIP3    H236319   2.683   5.209   6.049
12133TIP3   OH236320   2.156   4.987   6.408
12133TIP3    H136321   2.201   4.976   6.492
12133TIP3    H236322   2.108   4.904   6.397
12134TIP3   OH236323   2.927   5.061   5.656
12134TIP3    H136324   2.974   4.986   5.621
12134TIP3    H236325   2.959   5.071   5.746
12135TIP3   OH236326   2.983   5.100   5.925
12135TIP3    H136327   2.897   5.103   5.968
12135TIP3    H236328   3.036   5.044   5.982
12136TIP3   OH236329   3.720   4.363   7.220
12136TIP3    H136330   3.642   4.373   7.166
12136TIP3    H236331   3.742   4.270   7.215
12137TIP3   OH236332   2.336   4.793   7.216
12137TIP3    H136333   2.386   4.780   7.296
12137TIP3    H236334   2.264   4.729   7.222
12138TIP3   OH236335   2.719   3.595   7.026
12138TIP3    H136336   2.636   3.565   6.989
12138TIP3    H236337   2.697   3.677   7.071
12139TIP3   OH236338   3.263   3.723   7.223
12139TIP3    H136339   3.328   3.696   7.287
12139TIP3    H236340   3.179   3.700   7.263
12140TIP3   OH236341   3.487   4.139   7.151
12140TIP3    H136342   3.445   4.137   7.237
12140TIP3    H236343   3.470   4.227   7.118
12141TIP3   OH236344   3.136   4.216   5.648
12141TIP3    H136345   3.116   4.203   5.556
12141TIP3    H236346   3.222   4.258   5.648
12142TIP3   OH236347   2.878   3.629   6.002
12142TIP3    H136348   2.836   3.638   6.087
12142TIP3    H236349   2.840   3.549   5.965
12143TIP3   OH236350   2.659   4.125   7.037
12143TIP3    H136351   2.617   4.133   7.122
12143TIP3    H236352   2.637   4.206   6.991
12144TIP3   OH236353   2.536   4.004   6.562
12144TIP3    H136354   2.447   3.979   6.584
12144TIP3    H236355   2.547   3.975   6.471
12145TIP3   OH236356   3.016   4.071   6.275
12145TIP3    H136357   2.972   4.147   6.237
12145TIP3    H236358   3.078   4.042   6.207
12146TIP3   OH236359   0.245   0.160   0.087
12146TIP3    H136360   0.214   0.093   0.148
12146TIP3    H236361   0.338   0.171   0.109
12147TIP3   OH236362   3.184   4.109   6.504
12147TIP3    H136363   3.116   4.140   6.445
12147TIP3    H236364   3.223   4.034   6.460
12148TIP3   OH236365   5.462   8.329  -0.005
12148TIP3    H136366   5.506   8.385   0.058
12148TIP3    H236367   5.444   8.248   0.043
12149TIP3   OH236368   2.541   3.617   5.977
12149TIP3    H136369   2.530   3.625   6.072
12149TIP3    H236370   2.464   3.658   5.940
12150TIP3   OH236371   2.077   3.647   6.853
12150TIP3    H136372   2.151   3.690   6.897
12150TIP3    H236373   2.106   3.635   6.763
12151TIP3   OH236374   1.986   3.641   6.343
12151TIP3    H136375   2.032   3.675   6.267
12151TIP3    H236376   1.922   3.709   6.365
12152TIP3   OH236377   3.240   4.343   6.952
12152TIP3    H136378   3.249   4.286   6.875
12152TIP3    H236379   3.184   4.293   7.012
12153TIP3   OH236380   2.905   3.789   6.611
12153TIP3    H136381   2.826   3.793   6.666
12153TIP3    H236382   2.978   3.788   6.674
12154TIP3   OH236383   2.297   3.877   6.621
12154TIP3    H136384   2.209   3.882   6.583
12154TIP3    H236385   2.327   3.789   6.602
12155TIP3   OH236386   2.551   3.885   6.314
12155TIP3    H136387   2.646   3.894   6.305
12155TIP3    H236388   2.517   3.902   6.227
12156TIP3   OH236389   3.350   3.889   6.823
12156TIP3    H136390   3.330   3.910   6.914
12156TIP3    H236391   3.282   3.827   6.797
12157TIP3   OH236392   2.440   3.906   6.065
12157TIP3    H136393   2.378   3.856   6.012
12157TIP3    H236394   2.493   3.954   6.001
12158TIP3   OH236395   3.548   5.592   7.041
12158TIP3    H136396   3.543   5.603   6.946
12158TIP3    H236397   3.626   5.641   7.067
12159TIP3   OH236398   8.418   0.510   0.184
12159TIP3    H136399   8.500   0.530   0.229
12159TIP3    H236400   8.350   0.520   0.251
12160TIP3   OH236401   2.939   4.142   6.718
12160TIP3    H136402   3.016   4.113   6.670
12160TIP3    H236403   2.947   4.101   6.804
12161TIP3   OH236404   2.442   3.631   6.599
12161TIP3    H136405   2.412   3.555   6.648
12161TIP3    H236406   2.460   3.598   6.511
12162TIP3   OH236407   2.923   4.054   6.988
12162TIP3    H136408   2.837   4.091   7.004
12162TIP3    H236409   2.983   4.110   7.038
12163TIP3   OH236410   2.672   4.420   6.096
12163TIP3    H136411   2.596   4.368   6.069
12163TIP3    H236412   2.644   4.463   6.176
12164TIP3   OH236413   3.555   4.682   6.714
12164TIP3    H136414   3.579   4.730   6.635
12164TIP3    H236415   3.476   4.635   6.691
12165TIP3   OH236416   3.126   3.744   6.012
12165TIP3    H136417   3.034   3.720   6.002
12165TIP3    H236418   3.126   3.840   6.010
12166TIP3   OH236419   3.070   4.765   7.106
12166TIP3    H136420   3.125   4.759   7.184
12166TIP3    H236421   3.032   4.853   7.110
12167TIP3   OH236422   3.185   4.020   6.058
12167TIP3    H136423   3.279   4.016   6.070
12167TIP3    H236424   3.170   4.102   6.011
12168TIP3   OH236425   2.347   4.443   6.747
12168TIP3    H136426   2.383   4.423   6.661
12168TIP3    H236427   2.414   4.413   6.809
12169TIP3   OH236428   2.806   4.573   5.904
12169TIP3    H136429   2.781   4.662   5.929
12169TIP3    H236430   2.769   4.517   5.973
12170TIP3   OH236431   8.167   0.184   0.118
12170TIP3    H136432   8.176   0.163   0.211
12170TIP3    H236433   8.094   0.131   0.089
12171TIP3   OH236434   0.019   0.318   0.117
12171TIP3    H136435  -0.041   0.283   0.051
12171TIP3    H236436   0.103   0.277   0.097
12172TIP3   OH236437   3.216   5.056   7.003
12172TIP3    H136438   3.122   5.041   7.003
12172TIP3    H236439   3.235   5.090   7.090
12173TIP3   OH236440   3.604   4.097   5.899
12173TIP3    H136441   3.549   4.050   5.836
12173TIP3    H236442   3.608   4.186   5.866
12174TIP3   OH236443   3.864   4.991   6.966
12174TIP3    H136444   3.774   4.960   6.977
12174TIP3    H236445   3.893   4.951   6.885
12175TIP3   OH236446   3.366   4.915   5.819
12175TIP3    H136447   3.318   4.859   5.881
12175TIP3    H236448   3.368   4.864   5.738
12176TIP3   OH236449   3.339   4.526   6.646
12176TIP3    H136450   3.244   4.517   6.650
12176TIP3    H236451   3.368   4.454   6.590
12177TIP3   OH236452   2.481   4.781   6.412
12177TIP3    H136453   2.489   4.858   6.357
12177TIP3    H236454   2.388   4.757   6.406
12178TIP3   OH236455   2.048   4.064   6.134
12178TIP3    H136456   2.087   4.149   6.152
12178TIP3    H236457   1.964   4.065   6.179
12179TIP3   OH236458   2.558   4.530   6.317
12179TIP3    H136459   2.554   4.620   6.349
12179TIP3    H236460   2.531   4.477   6.392
12180TIP3   OH236461   2.758   5.100   6.869
12180TIP3    H136462   2.794   5.173   6.818
12180TIP3    H236463   2.833   5.064   6.915
12181TIP3   OH236464   2.391   5.005   6.262
12181TIP3    H136465   2.303   5.011   6.301
12181TIP3    H236466   2.424   5.095   6.267
12182TIP3   OH236467   3.106   4.771   6.829
12182TIP3    H136468   3.100   4.762   6.924
12182TIP3    H236469   3.165   4.701   6.802
12183TIP3   OH236470   3.091   4.645   5.732
12183TIP3    H136471   3.129   4.671   5.816
12183TIP3    H236472   3.004   4.613   5.753
12184TIP3   OH236473   3.370   5.269   6.890
12184TIP3    H136474   3.301   5.204   6.904
12184TIP3    H236475   3.339   5.322   6.817
12185TIP3   OH236476   3.411   5.102   5.511
12185TIP3    H136477   3.417   5.158   5.434
12185TIP3    H236478   3.344   5.144   5.565
12186TIP3   OH236479   5.414   8.074   0.118
12186TIP3    H136480   5.319   8.078   0.125
12186TIP3    H236481   5.441   8.014   0.188
12187TIP3   OH236482   2.175   5.000   7.037
12187TIP3    H136483   2.231   4.940   7.086
12187TIP3    H236484   2.195   5.086   7.073
12188TIP3   OH236485   2.453   4.614   5.729
12188TIP3    H136486   2.461   4.525   5.695
12188TIP3    H236487   2.437   4.603   5.823
12189TIP3   OH236488   2.399   4.631   6.003
12189TIP3    H136489   2.472   4.604   6.058
12189TIP3    H236490   2.402   4.726   6.002
12190TIP3   OH236491   2.133   4.319   6.211
12190TIP3    H136492   2.067   4.367   6.260
12190TIP3    H236493   2.153   4.376   6.136
12191TIP3   OH236494   3.290   3.957   7.083
12191TIP3    H136495   3.370   3.999   7.114
12191TIP3    H236496   3.283   3.878   7.136
12192TIP3   OH236497   3.185   3.691   6.276
12192TIP3    H136498   3.162   3.709   6.185
12192TIP3    H236499   3.226   3.772   6.307
12193TIP3   OH236500   2.675   4.814   5.936
12193TIP3    H136501   2.594   4.849   5.972
12193TIP3    H236502   2.666   4.824   5.841
12194TIP3   OH236503   2.831   3.886   6.359
12194TIP3    H136504   2.893   3.952   6.328
12194TIP3    H236505   2.857   3.868   6.449
12195TIP3   OH236506   3.121   4.178   7.139
12195TIP3    H136507   3.154   4.224   7.216
12195TIP3    H236508   3.177   4.101   7.131
12196TIP3   OH236509   2.995   3.583   6.445
12196TIP3    H136510   2.969   3.660   6.496
12196TIP3    H236511   3.064   3.614   6.387
12197TIP3   OH236512   2.424   4.905   6.008
12197TIP3    H136513   2.403   4.977   5.948
12197TIP3    H236514   2.412   4.942   6.095
12198TIP3   OH236515   2.505   3.611   6.259
12198TIP3    H136516   2.494   3.703   6.283
12198TIP3    H236517   2.599   3.596   6.263
12199TIP3   OH236518   3.753   4.090   7.132
12199TIP3    H136519   3.658   4.094   7.143
12199TIP3    H236520   3.765   4.047   7.048
12200TIP3   OH236521   3.414   4.285   6.511
12200TIP3    H136522   3.336   4.229   6.514
12200TIP3    H236523   3.478   4.239   6.564
12201TIP3   OH236524   2.155   4.496   5.996
12201TIP3    H136525   2.227   4.558   6.004
12201TIP3    H236526   2.183   4.434   5.928
12202TIP3   OH236527   2.063   3.786   6.125
12202TIP3    H136528   2.075   3.880   6.134
12202TIP3    H236529   2.030   3.774   6.036
12203TIP3   OH236530   3.395   5.279   6.461
12203TIP3    H136531   3.351   5.324   6.389
12203TIP3    H236532   3.488   5.283   6.439
12204TIP3   OH236533   2.456   3.516   6.980
12204TIP3    H136534   2.426   3.485   6.895
12204TIP3    H236535   2.446   3.440   7.038
12205TIP3   OH236536   1.980   4.765   6.380
12205TIP3    H136537   1.934   4.799   6.457
12205TIP3    H236538   1.937   4.806   6.306
12206TIP3   OH236539   8.122   1.103   0.183
12206TIP3    H136540   8.204   1.107   0.231
12206TIP3    H236541   8.107   1.010   0.169
12207TIP3   OH236542   8.585   1.009   0.228
12207TIP3    H136543   8.676   0.981   0.235
12207TIP3    H236544   8.549   0.957   0.156
12208TIP3   OH236545   2.615   4.823   5.660
12208TIP3    H136546   2.562   4.745   5.677
12208TIP3    H236547   2.683   4.791   5.599
12209TIP3   OH236548   0.299   0.953  -0.009
12209TIP3    H136549   0.317   0.882   0.052
12209TIP3    H236550   0.374   1.012   0.001
12210TIP3   OH236551   3.054   4.846   5.543
12210TIP3    H136552   3.081   4.780   5.607
12210TIP3    H236553   3.115   4.835   5.470
12211TIP3   OH236554   8.214   0.503   0.374
12211TIP3    H136555   8.228   0.408   0.384
12211TIP3    H236556   8.129   0.510   0.330
12212TIP3   OH236557   2.273   4.308   5.839
12212TIP3    H136558   2.329   4.283   5.912
12212TIP3    H236559   2.334   4.323   5.767
12213TIP3   OH236560   8.840   0.589   0.150
12213TIP3    H136561   8.797   0.611   0.067
12213TIP3    H236562   8.881   0.504   0.133
12214TIP3   OH236563   2.803   4.536   5.636
12214TIP3    H136564   2.793   4.551   5.730
12214TIP3    H236565   2.814   4.441   5.628
12215TIP3   OH236566   3.387   4.835   7.051
12215TIP3    H136567   3.465   4.855   6.998
12215TIP3    H236568   3.322   4.900   7.023
12216TIP3   OH236569   8.328   0.241   0.371
12216TIP3    H136570   8.398   0.240   0.305
12216TIP3    H236571   8.371   0.275   0.450
12217TIP3   OH236572   2.454   4.248   6.047
12217TIP3    H136573   2.436   4.216   6.135
12217TIP3    H236574   2.501   4.177   6.004
12218TIP3   OH236575   8.671   0.105   0.024
12218TIP3    H136576   8.602   0.166   0.049
12218TIP3    H236577   8.719   0.150  -0.046
12219TIP3   OH236578   2.590   4.061   5.895
12219TIP3    H136579   2.566   4.071   5.802
12219TIP3    H236580   2.686   4.066   5.895
12220TIP3   OH236581   0.304   0.506   0.124
12220TIP3    H136582   0.367   0.467   0.065
12220TIP3    H236583   0.302   0.447   0.200
12221TIP3   OH236584   3.375   4.348   5.590
12221TIP3    H136585   3.396   4.314   5.503
12221TIP3    H236586   3.345   4.438   5.574
12222TIP3   OH236587   5.832   8.283   0.138
12222TIP3    H136588   5.837   8.211   0.075
12222TIP3    H236589   5.792   8.355   0.088
12223TIP3   OH236590   2.874   3.886   7.207
12223TIP3    H136591   2.901   3.928   7.126
12223TIP3    H236592   2.782   3.864   7.193
12224TIP3   OH236593   2.884   4.445   7.111
12224TIP3    H136594   2.971   4.456   7.074
12224TIP3    H236595   2.826   4.495   7.053
12225TIP3   OH236596   0.512   0.184   0.188
12225TIP3    H136597   0.543   0.093   0.191
12225TIP3    H236598   0.587   0.234   0.157
12226TIP3   OH236599   3.497   4.646   7.211
12226TIP3    H136600   3.446   4.711   7.161
12226TIP3    H236601   3.586   4.656   7.178
12227TIP3   OH236602   5.724   8.372   0.378
12227TIP3    H136603   5.649   8.315   0.397
12227TIP3    H236604   5.753   8.345   0.291
12228TIP3   OH236605   5.964   7.848   0.014
12228TIP3    H136606   5.924   7.930  -0.014
12228TIP3    H236607   5.894   7.783   0.004
12229TIP3   OH236608   6.081   8.346   0.239
12229TIP3    H136609   6.069   8.332   0.333
12229TIP3    H236610   5.997   8.321   0.200
12230TIP3   OH236611   6.336   8.296   0.124
12230TIP3    H136612   6.256   8.298   0.177
12230TIP3    H236613   6.404   8.266   0.184
12231TIP3   OH236614   6.580   8.250   0.256
12231TIP3    H136615   6.589   8.155   0.262
12231TIP3    H236616   6.575   8.279   0.347
12232TIP3   OH236617   5.544   8.167   0.433
12232TIP3    H136618   5.542   8.081   0.389
12232TIP3    H236619   5.586   8.150   0.517
12233TIP3   OH236620   6.032   7.844   0.273
12233TIP3    H136621   6.099   7.776   0.280
12233TIP3    H236622   6.006   7.843   0.181
12234TIP3   OH236623   6.129   8.071   0.392
12234TIP3    H136624   6.093   7.999   0.340
12234TIP3    H236625   6.054   8.129   0.408
12235TIP3   OH236626   2.410   5.123   5.834
12235TIP3    H136627   2.502   5.112   5.810
12235TIP3    H236628   2.369   5.160   5.756
12236TIP3   OH236629   1.880   4.482   6.021
12236TIP3    H136630   1.973   4.499   6.006
12236TIP3    H236631   1.863   4.401   5.974
12237TIP3   OH236632   1.777   5.072   6.470
12237TIP3    H136633   1.714   5.017   6.423
12237TIP3    H236634   1.823   5.012   6.528
12238TIP3   OH236635   1.921   4.905   6.639
12238TIP3    H136636   1.913   4.836   6.704
12238TIP3    H236637   1.973   4.973   6.682
12239TIP3   OH236638   3.669   5.307   6.443
12239TIP3    H136639   3.693   5.336   6.531
12239TIP3    H236640   3.730   5.353   6.385
12240TIP3   OH236641   3.694   5.343   6.723
12240TIP3    H136642   3.646   5.260   6.723
12240TIP3    H236643   3.764   5.329   6.786
12241TIP3   OH236644   0.776   0.846   0.034
12241TIP3    H136645   0.704   0.855   0.096
12241TIP3    H236646   0.819   0.931   0.035
12242TIP3   OH236647   3.557   4.562   5.933
12242TIP3    H136648   3.608   4.632   5.892
12242TIP3    H236649   3.475   4.604   5.959
12243TIP3   OH236650   3.716   4.414   6.121
12243TIP3    H136651   3.649   4.370   6.173
12243TIP3    H236652   3.666   4.468   6.059
12244TIP3   OH236653   3.743   4.815   6.543
12244TIP3    H136654   3.790   4.745   6.497
12244TIP3    H236655   3.738   4.887   6.480
12245TIP3   OH236656   3.556   5.105   6.766
12245TIP3    H136657   3.490   5.154   6.814
12245TIP3    H236658   3.509   5.068   6.691
12246TIP3   OH236659   3.593   4.339   5.769
12246TIP3    H136660   3.523   4.341   5.705
12246TIP3    H236661   3.579   4.416   5.823
12247TIP3   OH236662   3.466   3.980   5.698
12247TIP3    H136663   3.480   4.021   5.612
12247TIP3    H236664   3.439   3.891   5.677
12248TIP3   OH236665   3.527   4.266   6.253
12248TIP3    H136666   3.496   4.178   6.231
12248TIP3    H236667   3.484   4.286   6.336
12249TIP3   OH236668   2.103   4.330   7.019
12249TIP3    H136669   2.095   4.302   6.927
12249TIP3    H236670   2.198   4.329   7.036
12250TIP3   OH236671   3.746   4.691   7.099
12250TIP3    H136672   3.816   4.631   7.073
12250TIP3    H236673   3.726   4.741   7.020
12251TIP3   OH236674   3.935   4.483   7.095
12251TIP3    H136675   3.860   4.444   7.140
12251TIP3    H236676   4.009   4.428   7.121
12252TIP3   OH236677   3.414   3.707   5.662
12252TIP3    H136678   3.474   3.688   5.734
12252TIP3    H236679   3.329   3.675   5.692
12253TIP3   OH236680   3.471   3.997   6.130
12253TIP3    H136681   3.518   3.915   6.142
12253TIP3    H236682   3.516   4.040   6.057
12254TIP3   OH236683   3.628   4.158   6.654
12254TIP3    H136684   3.707   4.178   6.603
12254TIP3    H236685   3.641   4.202   6.737
12255TIP3   OH236686   3.701   4.315   6.879
12255TIP3    H136687   3.626   4.345   6.929
12255TIP3    H236688   3.731   4.392   6.831
12256TIP3   OH236689   5.290   8.242   0.368
12256TIP3    H136690   5.384   8.240   0.384
12256TIP3    H236691   5.258   8.159   0.403
12257TIP3   OH236692   7.134   8.107   0.149
12257TIP3    H136693   7.197   8.051   0.105
12257TIP3    H236694   7.093   8.158   0.079
12258TIP3   OH236695   3.595   3.750   6.182
12258TIP3    H136696   3.639   3.733   6.266
12258TIP3    H236697   3.530   3.679   6.175
12259TIP3   OH236698   2.293   3.737   7.012
12259TIP3    H136699   2.347   3.658   7.011
12259TIP3    H236700   2.354   3.807   6.988
12260TIP3   OH236701   2.073   4.008   7.065
12260TIP3    H136702   2.126   3.988   6.988
12260TIP3    H236703   2.093   4.100   7.085
12261TIP3   OH236704   4.014   4.027   7.222
12261TIP3    H136705   3.932   4.069   7.247
12261TIP3    H236706   3.988   3.956   7.164
12262TIP3   OH236707   3.640   3.662   5.821
12262TIP3    H136708   3.689   3.603   5.763
12262TIP3    H236709   3.690   3.743   5.820
12263TIP3   OH236710   2.063   3.519   6.576
12263TIP3    H136711   1.977   3.502   6.613
12263TIP3    H236712   2.046   3.569   6.496
12264TIP3   OH236713   3.236   5.201   6.102
12264TIP3    H136714   3.285   5.197   6.020
12264TIP3    H236715   3.274   5.277   6.148
12265TIP3   OH236716   5.264   7.779   0.110
12265TIP3    H136717   5.214   7.777   0.192
12265TIP3    H236718   5.207   7.824   0.048
12266TIP3   OH236719   8.251   0.826   0.199
12266TIP3    H136720   8.158   0.805   0.190
12266TIP3    H236721   8.268   0.819   0.293
12267TIP3   OH236722   2.529   5.067   7.017
12267TIP3    H136723   2.480   5.143   6.985
12267TIP3    H236724   2.614   5.073   6.974
12268TIP3   OH236725   2.923   5.295   7.157
12268TIP3    H136726   2.962   5.289   7.244
12268TIP3    H236727   2.985   5.349   7.107
12269TIP3   OH236728   3.111   5.450   7.026
12269TIP3    H136729   3.166   5.397   6.969
12269TIP3    H236730   3.173   5.502   7.078
12270TIP3   OH236731   3.923   3.786   7.107
12270TIP3    H136732   3.840   3.790   7.059
12270TIP3    H236733   3.950   3.694   7.100
12271TIP3   OH236734   2.191   5.302   7.067
12271TIP3    H136735   2.101   5.324   7.044
12271TIP3    H236736   2.216   5.368   7.131
12272TIP3   OH236737   2.421   5.299   6.915
12272TIP3    H136738   2.337   5.302   6.961
12272TIP3    H236739   2.400   5.320   6.824
12273TIP3   OH236740   2.837   5.312   6.709
12273TIP3    H136741   2.768   5.320   6.643
12273TIP3    H236742   2.846   5.400   6.745
12274TIP3   OH236743   3.104   5.259   6.764
12274TIP3    H136744   3.013   5.269   6.739
12274TIP3    H236745   3.152   5.318   6.706
12275TIP3   OH236746   3.314   5.438   6.667
12275TIP3    H136747   3.302   5.522   6.623
12275TIP3    H236748   3.341   5.378   6.597
12276TIP3   OH236749   2.095   5.083   6.785
12276TIP3    H136750   2.124   5.060   6.873
12276TIP3    H236751   2.166   5.052   6.728
12277TIP3   OH236752   2.300   4.973   6.645
12277TIP3    H136753   2.313   4.887   6.686
12277TIP3    H236754   2.387   5.012   6.645
12278TIP3   OH236755   2.570   5.057   6.665
12278TIP3    H136756   2.588   4.964   6.648
12278TIP3    H236757   2.626   5.078   6.740
12279TIP3   OH236758   3.135   3.708   6.758
12279TIP3    H136759   3.092   3.636   6.803
12279TIP3    H236760   3.203   3.667   6.704
12280TIP3   OH236761   3.631   3.630   6.654
12280TIP3    H136762   3.668   3.675   6.577
12280TIP3    H236763   3.537   3.645   6.647
12281TIP3   OH236764   3.749   3.685   6.409
12281TIP3    H136765   3.817   3.626   6.377
12281TIP3    H236766   3.785   3.772   6.398
12282TIP3   OH236767   2.365   3.406   6.745
12282TIP3    H136768   2.276   3.372   6.753
12282TIP3    H236769   2.419   3.327   6.736
12283TIP3   OH236770   2.203   3.322   6.414
12283TIP3    H136771   2.225   3.365   6.331
12283TIP3    H236772   2.164   3.391   6.467
12284TIP3   OH236773   2.855   3.441   6.646
12284TIP3    H136774   2.898   3.487   6.574
12284TIP3    H236775   2.896   3.475   6.725
12285TIP3   OH236776   3.346   3.589   6.625
12285TIP3    H136777   3.353   3.558   6.534
12285TIP3    H236778   3.352   3.510   6.678
12286TIP3   OH236779   3.406   3.542   6.190
12286TIP3    H136780   3.326   3.590   6.213
12286TIP3    H236781   3.392   3.454   6.226
12287TIP3   OH236782   1.857   4.889   6.169
12287TIP3    H136783   1.778   4.854   6.128
12287TIP3    H236784   1.865   4.978   6.135
12288TIP3   OH236785   2.298   3.440   6.167
12288TIP3    H136786   2.343   3.381   6.106
12288TIP3    H236787   2.367   3.498   6.199
12289TIP3   OH236788   2.780   3.635   6.263
12289TIP3    H136789   2.841   3.582   6.314
12289TIP3    H236790   2.796   3.725   6.290
12290TIP3   OH236791   2.668   5.074   5.756
12290TIP3    H136792   2.754   5.090   5.719
12290TIP3    H236793   2.640   4.991   5.717
12291TIP3   OH236794   3.374   5.181   5.861
12291TIP3    H136795   3.376   5.086   5.851
12291TIP3    H236796   3.328   5.212   5.783
12292TIP3   OH236797   5.553   7.906   0.324
12292TIP3    H136798   5.537   7.842   0.393
12292TIP3    H236799   5.647   7.926   0.332
12293TIP3   OH236800   5.813   7.948   0.397
12293TIP3    H136801   5.889   7.924   0.344
12293TIP3    H236802   5.809   7.880   0.465
12294TIP3   OH236803   1.988   4.877   5.809
12294TIP3    H136804   1.994   4.876   5.904
12294TIP3    H236805   2.063   4.825   5.779
12295TIP3   OH236806   6.634   7.977   0.254
12295TIP3    H136807   6.654   7.951   0.344
12295TIP3    H236808   6.719   7.974   0.209
12296TIP3   OH236809   3.591   5.321   7.052
12296TIP3    H136810   3.517   5.289   7.001
12296TIP3    H236811   3.577   5.415   7.059
12297TIP3   OH236812   4.871   4.699   5.788
12297TIP3    H136813   4.842   4.787   5.765
12297TIP3    H236814   4.800   4.642   5.760
12298TIP3   OH236815   4.875   4.695   6.209
12298TIP3    H136816   4.923   4.674   6.289
12298TIP3    H236817   4.823   4.617   6.191
12299TIP3   OH236818   4.174   4.567   6.559
12299TIP3    H136819   4.216   4.508   6.622
12299TIP3    H236820   4.242   4.587   6.495
12300TIP3   OH236821   5.139   5.003   5.886
12300TIP3    H136822   5.122   4.938   5.955
12300TIP3    H236823   5.156   5.084   5.933
12301TIP3   OH236824   4.161   4.999   6.259
12301TIP3    H136825   4.142   4.905   6.258
12301TIP3    H236826   4.255   5.004   6.240
12302TIP3   OH236827   3.838   4.172   6.050
12302TIP3    H136828   3.808   4.258   6.077
12302TIP3    H236829   3.765   4.136   6.000
12303TIP3   OH236830   3.948   4.507   6.247
12303TIP3    H136831   3.986   4.423   6.273
12303TIP3    H236832   3.871   4.484   6.195
12304TIP3   OH236833   4.792   5.435   5.891
12304TIP3    H136834   4.815   5.372   5.823
12304TIP3    H236835   4.779   5.382   5.970
12305TIP3   OH236836   4.663   4.920   6.209
12305TIP3    H136837   4.704   4.842   6.172
12305TIP3    H236838   4.736   4.972   6.243
12306TIP3   OH236839   5.690   4.255   6.238
12306TIP3    H136840   5.716   4.329   6.293
12306TIP3    H236841   5.673   4.294   6.152
12307TIP3   OH236842   5.083   4.403   6.250
12307TIP3    H136843   5.112   4.316   6.276
12307TIP3    H236844   5.040   4.389   6.165
12308TIP3   OH236845   4.433   4.057   6.202
12308TIP3    H136846   4.410   4.132   6.148
12308TIP3    H236847   4.378   3.986   6.170
12309TIP3   OH236848   5.129   4.168   5.850
12309TIP3    H136849   5.195   4.160   5.919
12309TIP3    H236850   5.176   4.207   5.776
12310TIP3   OH236851   4.054   4.266   6.344
12310TIP3    H136852   4.141   4.253   6.383
12310TIP3    H236853   4.058   4.218   6.261
12311TIP3   OH236854   4.472   4.480   6.151
12311TIP3    H136855   4.566   4.465   6.157
12311TIP3    H236856   4.436   4.398   6.117
12312TIP3   OH236857   5.761   4.463   6.403
12312TIP3    H136858   5.672   4.498   6.401
12312TIP3    H236859   5.798   4.496   6.485
12313TIP3   OH236860   4.410   4.067   6.665
12313TIP3    H136861   4.363   4.101   6.588
12313TIP3    H236862   4.353   4.086   6.739
12314TIP3   OH236863   4.772   4.920   5.658
12314TIP3    H136864   4.729   4.890   5.578
12314TIP3    H236865   4.717   4.993   5.688
12315TIP3   OH236866   4.507   4.845   6.427
12315TIP3    H136867   4.450   4.914   6.459
12315TIP3    H236868   4.550   4.882   6.350
12316TIP3   OH236869   5.294   4.178   6.069
12316TIP3    H136870   5.247   4.156   6.149
12316TIP3    H236871   5.342   4.258   6.090
12317TIP3   OH236872   4.307   4.168   6.428
12317TIP3    H136873   4.363   4.242   6.451
12317TIP3    H236874   4.351   4.126   6.354
12318TIP3   OH236875   4.352   5.048   6.533
12318TIP3    H136876   4.334   5.136   6.500
12318TIP3    H236877   4.272   5.025   6.581
12319TIP3   OH236878   3.718   4.747   5.794
12319TIP3    H136879   3.687   4.752   5.704
12319TIP3    H236880   3.741   4.837   5.817
12320TIP3   OH236881   5.172   5.254   6.021
12320TIP3    H136882   5.086   5.246   6.063
12320TIP3    H236883   5.166   5.335   5.970
12321TIP3   OH236884   5.497   4.126   6.404
12321TIP3    H136885   5.410   4.144   6.370
12321TIP3    H236886   5.556   4.157   6.335
12322TIP3   OH236887   4.756   3.762   6.397
12322TIP3    H136888   4.744   3.669   6.419
12322TIP3    H236889   4.679   3.805   6.434
12323TIP3   OH236890   4.870   5.280   5.672
12323TIP3    H136891   4.923   5.201   5.664
12323TIP3    H236892   4.928   5.351   5.645
12324TIP3   OH236893   5.016   5.053   5.643
12324TIP3    H136894   4.943   4.992   5.642
12324TIP3    H236895   5.068   5.028   5.720
12325TIP3   OH236896   5.408   5.133   6.371
12325TIP3    H136897   5.387   5.060   6.313
12325TIP3    H236898   5.391   5.211   6.318
12326TIP3   OH236899   4.695   4.544   5.638
12326TIP3    H136900   4.610   4.585   5.625
12326TIP3    H236901   4.735   4.544   5.551
12327TIP3   OH236902   4.654   4.349   5.333
12327TIP3    H136903   4.722   4.396   5.380
12327TIP3    H236904   4.700   4.283   5.282
12328TIP3   OH236905   5.581   4.795   6.230
12328TIP3    H136906   5.497   4.841   6.230
12328TIP3    H236907   5.618   4.812   6.143
12329TIP3   OH236908   5.049   4.633   5.590
12329TIP3    H136909   4.993   4.660   5.664
12329TIP3    H236910   5.133   4.613   5.630
12330TIP3   OH236911   5.282   4.661   6.545
12330TIP3    H136912   5.276   4.744   6.593
12330TIP3    H236913   5.201   4.656   6.495
12331TIP3   OH236914   4.269   4.613   6.005
12331TIP3    H136915   4.229   4.549   5.945
12331TIP3    H236916   4.339   4.564   6.049
12332TIP3   OH236917   4.415   5.045   6.142
12332TIP3    H136918   4.384   5.026   6.053
12332TIP3    H236919   4.499   5.001   6.148
12333TIP3   OH236920   4.401   4.591   6.397
12333TIP3    H136921   4.415   4.567   6.306
12333TIP3    H236922   4.431   4.682   6.403
12334TIP3   OH236923   4.941   5.242   6.162
12334TIP3    H136924   4.918   5.321   6.210
12334TIP3    H236925   4.919   5.170   6.221
12335TIP3   OH236926   4.549   5.142   6.702
12335TIP3    H136927   4.487   5.200   6.748
12335TIP3    H236928   4.494   5.091   6.642
12336TIP3   OH236929   4.883   4.486   5.423
12336TIP3    H136930   4.940   4.548   5.468
12336TIP3    H236931   4.909   4.492   5.331
12337TIP3   OH236932   4.298   4.679   6.862
12337TIP3    H136933   4.304   4.774   6.870
12337TIP3    H236934   4.205   4.661   6.847
12338TIP3   OH236935   4.627   5.151   5.702
12338TIP3    H136936   4.702   5.209   5.693
12338TIP3    H236937   4.564   5.183   5.636
12339TIP3   OH236938   4.341   5.302   6.787
12339TIP3    H136939   4.315   5.312   6.695
12339TIP3    H236940   4.258   5.285   6.833
12340TIP3   OH236941   5.421   3.728   5.521
12340TIP3    H136942   5.339   3.742   5.567
12340TIP3    H236943   5.424   3.797   5.455
12341TIP3   OH236944   4.139   4.449   5.806
12341TIP3    H136945   4.071   4.508   5.776
12341TIP3    H236946   4.096   4.363   5.812
12342TIP3   OH236947   5.219   5.096   5.036
12342TIP3    H136948   5.215   5.188   5.008
12342TIP3    H236949   5.309   5.069   5.015
12343TIP3   OH236950   3.936   4.856   6.741
12343TIP3    H136951   3.868   4.841   6.675
12343TIP3    H236952   3.969   4.769   6.762
12344TIP3   OH236953   3.778   5.048   6.386
12344TIP3    H136954   3.871   5.069   6.396
12344TIP3    H236955   3.732   5.126   6.417
12345TIP3   OH236956   5.635   5.513   6.435
12345TIP3    H136957   5.640   5.417   6.444
12345TIP3    H236958   5.554   5.536   6.481
12346TIP3   OH236959   4.739   5.285   6.566
12346TIP3    H136960   4.728   5.377   6.592
12346TIP3    H236961   4.669   5.239   6.613
12347TIP3   OH236962   4.509   5.395   5.504
12347TIP3    H136963   4.442   5.368   5.442
12347TIP3    H236964   4.478   5.478   5.539
12348TIP3   OH236965   3.952   5.245   5.895
12348TIP3    H136966   3.994   5.233   5.980
12348TIP3    H236967   3.900   5.165   5.883
12349TIP3   OH236968   4.724   5.322   5.138
12349TIP3    H136969   4.786   5.258   5.104
12349TIP3    H236970   4.751   5.335   5.229
12350TIP3   OH236971   4.765   5.363   5.412
12350TIP3    H136972   4.675   5.369   5.443
12350TIP3    H236973   4.813   5.321   5.484
12351TIP3   OH236974   5.528   4.611   6.702
12351TIP3    H136975   5.444   4.624   6.658
12351TIP3    H236976   5.544   4.516   6.695
12352TIP3   OH236977   4.132   5.046   6.704
12352TIP3    H136978   4.184   5.030   6.783
12352TIP3    H236979   4.061   4.982   6.709
12353TIP3   OH236980   4.518   3.852   6.521
12353TIP3    H136981   4.435   3.818   6.486
12353TIP3    H236982   4.493   3.933   6.567
12354TIP3   OH236983   5.057   3.972   6.721
12354TIP3    H136984   5.124   3.948   6.785
12354TIP3    H236985   4.974   3.958   6.766
12355TIP3   OH236986   5.281   4.397   6.637
12355TIP3    H136987   5.239   4.393   6.723
12355TIP3    H236988   5.264   4.486   6.606
12356TIP3   OH236989   4.958   4.457   5.156
12356TIP3    H136990   4.907   4.472   5.076
12356TIP3    H236991   5.038   4.507   5.143
12357TIP3   OH236992   4.677   3.879   5.489
12357TIP3    H136993   4.635   3.891   5.574
12357TIP3    H236994   4.635   3.801   5.452
12358TIP3   OH236995   4.467   4.369   6.537
12358TIP3    H136996   4.417   4.379   6.618
12358TIP3    H236997   4.449   4.450   6.488
12359TIP3   OH236998   4.337   4.262   6.049
12359TIP3    H136999   4.247   4.240   6.073
12359TIP3    H237000   4.345   4.231   5.958
12360TIP3   OH237001   4.817   4.340   5.775
12360TIP3    H137002   4.769   4.413   5.736
12360TIP3    H237003   4.873   4.307   5.705
12361TIP3   OH237004   5.002   4.604   6.849
12361TIP3    H137005   4.975   4.536   6.910
12361TIP3    H237006   5.094   4.620   6.869
12362TIP3   OH237007   4.981   4.353   6.000
12362TIP3    H137008   4.913   4.377   5.937
12362TIP3    H237009   5.027   4.280   5.959
12363TIP3   OH237010   4.299   4.400   6.751
12363TIP3    H137011   4.296   4.469   6.818
12363TIP3    H237012   4.273   4.321   6.797
12364TIP3   OH237013   4.338   3.870   5.461
12364TIP3    H137014   4.329   3.880   5.556
12364TIP3    H237015   4.259   3.910   5.425
12365TIP3   OH237016   3.879   3.911   6.344
12365TIP3    H137017   3.950   3.952   6.393
12365TIP3    H237018   3.900   3.928   6.252
12366TIP3   OH237019   3.787   3.899   5.823
12366TIP3    H137020   3.833   3.936   5.747
12366TIP3    H237021   3.727   3.969   5.850
12367TIP3   OH237022   5.034   4.603   6.425
12367TIP3    H137023   5.057   4.536   6.361
12367TIP3    H237024   4.986   4.556   6.493
12368TIP3   OH237025   4.700   4.055   6.101
12368TIP3    H137026   4.619   4.054   6.151
12368TIP3    H237027   4.769   4.049   6.168
12369TIP3   OH237028   4.101   4.130   6.111
12369TIP3    H137029   4.012   4.135   6.076
12369TIP3    H237030   4.131   4.042   6.089
12370TIP3   OH237031   4.356   4.140   5.804
12370TIP3    H137032   4.450   4.151   5.790
12370TIP3    H237033   4.316   4.157   5.719
12371TIP3   OH237034   5.150   4.139   6.307
12371TIP3    H137035   5.131   4.158   6.399
12371TIP3    H237036   5.079   4.081   6.281
12372TIP3   OH237037   4.241   4.155   5.558
12372TIP3    H137038   4.172   4.109   5.510
12372TIP3    H237039   4.289   4.203   5.491
12373TIP3   OH237040   5.344   5.845   6.524
12373TIP3    H137041   5.337   5.863   6.430
12373TIP3    H237042   5.421   5.893   6.552
12374TIP3   OH237043   4.287   4.952   6.938
12374TIP3    H137044   4.367   4.973   6.985
12374TIP3    H237045   4.217   4.963   7.003
12375TIP3   OH237046   4.749   4.429   6.204
12375TIP3    H137047   4.810   4.375   6.154
12375TIP3    H237048   4.746   4.387   6.290
12376TIP3   OH237049   4.244   3.884   6.084
12376TIP3    H137050   4.214   3.809   6.136
12376TIP3    H237051   4.252   3.850   5.995
12377TIP3   OH237052   4.729   4.324   6.467
12377TIP3    H137053   4.641   4.352   6.492
12377TIP3    H237054   4.787   4.378   6.521
12378TIP3   OH237055   4.455   4.673   5.592
12378TIP3    H137056   4.380   4.618   5.568
12378TIP3    H237057   4.428   4.716   5.673
12379TIP3   OH237058   5.347   4.934   6.190
12379TIP3    H137059   5.381   4.986   6.116
12379TIP3    H237060   5.267   4.894   6.156
12380TIP3   OH237061   4.925   3.992   5.497
12380TIP3    H137062   4.833   3.967   5.491
12380TIP3    H237063   4.923   4.088   5.504
12381TIP3   OH237064   4.865   5.022   6.600
12381TIP3    H137065   4.911   5.016   6.684
12381TIP3    H237066   4.821   5.107   6.603
12382TIP3   OH237067   4.977   4.262   5.559
12382TIP3    H137068   5.072   4.271   5.567
12382TIP3    H237069   4.950   4.336   5.505
12383TIP3   OH237070   4.133   4.724   6.223
12383TIP3    H137071   4.181   4.694   6.146
12383TIP3    H237072   4.066   4.657   6.238
12384TIP3   OH237073   4.609   4.844   5.445
12384TIP3    H137074   4.562   4.927   5.444
12384TIP3    H237075   4.550   4.784   5.492
12385TIP3   OH237076   4.026   4.615   6.866
12385TIP3    H137077   4.018   4.586   6.957
12385TIP3    H237078   3.953   4.572   6.821
12386TIP3   OH237079   4.769   4.759   6.898
12386TIP3    H137080   4.698   4.703   6.867
12386TIP3    H237081   4.848   4.718   6.864
12387TIP3   OH237082   5.011   5.306   6.493
12387TIP3    H137083   4.916   5.294   6.495
12387TIP3    H237084   5.031   5.342   6.580
12388TIP3   OH237085   5.397   4.347   5.378
12388TIP3    H137086   5.344   4.299   5.315
12388TIP3    H237087   5.400   4.436   5.343
12389TIP3   OH237088   5.651   5.235   6.455
12389TIP3    H137089   5.558   5.212   6.454
12389TIP3    H237090   5.685   5.200   6.372
12390TIP3   OH237091   5.140   5.166   5.303
12390TIP3    H137092   5.102   5.099   5.360
12390TIP3    H237093   5.148   5.123   5.218
12391TIP3   OH237094   5.119   4.799   6.088
12391TIP3    H137095   5.030   4.777   6.115
12391TIP3    H237096   5.151   4.720   6.046
12392TIP3   OH237097   4.265   5.035   5.903
12392TIP3    H137098   4.261   5.112   5.846
12392TIP3    H237099   4.173   5.014   5.922
12393TIP3   OH237100   3.860   4.316   5.682
12393TIP3    H137101   3.885   4.408   5.670
12393TIP3    H237102   3.767   4.320   5.707
12394TIP3   OH237103   4.364   4.793   5.816
12394TIP3    H137104   4.342   4.881   5.844
12394TIP3    H237105   4.331   4.736   5.886
12395TIP3   OH237106   4.553   5.361   6.358
12395TIP3    H137107   4.588   5.434   6.306
12395TIP3    H237108   4.629   5.325   6.404
12396TIP3   OH237109   4.188   5.260   5.753
12396TIP3    H137110   4.100   5.267   5.791
12396TIP3    H237111   4.222   5.350   5.758
12397TIP3   OH237112   4.898   5.018   6.326
12397TIP3    H137113   4.889   5.016   6.421
12397TIP3    H237114   4.967   4.955   6.307
12398TIP3   OH237115   4.896   4.895   5.163
12398TIP3    H137116   4.938   4.866   5.244
12398TIP3    H237117   4.805   4.868   5.171
12399TIP3   OH237118   5.162   5.514   6.369
12399TIP3    H137119   5.092   5.452   6.391
12399TIP3    H237120   5.128   5.565   6.296
12400TIP3   OH237121   5.224   5.390   4.989
12400TIP3    H137122   5.242   5.483   4.975
12400TIP3    H237123   5.138   5.388   5.032
12401TIP3   OH237124   4.233   4.148   6.866
12401TIP3    H137125   4.138   4.159   6.867
12401TIP3    H237126   4.251   4.092   6.942
12402TIP3   OH237127   5.064   4.810   5.372
12402TIP3    H137128   5.047   4.761   5.453
12402TIP3    H237129   5.159   4.820   5.370
12403TIP3   OH237130   3.984   5.251   6.520
12403TIP3    H137131   4.035   5.186   6.569
12403TIP3    H237132   4.003   5.334   6.563
12404TIP3   OH237133   4.241   4.862   5.219
12404TIP3    H137134   4.250   4.771   5.191
12404TIP3    H237135   4.222   4.857   5.313
12405TIP3   OH237136   4.184   4.886   5.489
12405TIP3    H137137   4.243   4.859   5.559
12405TIP3    H237138   4.187   4.982   5.492
12406TIP3   OH237139   3.928   4.589   5.698
12406TIP3    H137140   3.859   4.632   5.749
12406TIP3    H237141   3.937   4.643   5.619
12407TIP3   OH237142   5.096   4.199   6.569
12407TIP3    H137143   5.170   4.247   6.606
12407TIP3    H237144   5.084   4.124   6.627
12408TIP3   OH237145   4.984   3.947   5.764
12408TIP3    H137146   4.959   3.963   5.674
12408TIP3    H237147   5.024   4.028   5.794
12409TIP3   OH237148   4.473   5.080   5.439
12409TIP3    H137149   4.384   5.098   5.467
12409TIP3    H237150   4.488   5.139   5.365
12410TIP3   OH237151   4.638   4.142   5.843
12410TIP3    H137152   4.697   4.213   5.818
12410TIP3    H237153   4.657   4.126   5.936
12411TIP3   OH237154   4.930   4.441   6.623
12411TIP3    H137155   4.952   4.488   6.704
12411TIP3    H237156   4.980   4.360   6.628
12412TIP3   OH237157   4.790   3.848   5.937
12412TIP3    H137158   4.763   3.925   5.987
12412TIP3    H237159   4.858   3.880   5.878
12413TIP3   OH237160   4.218   5.159   5.500
12413TIP3    H137161   4.202   5.231   5.440
12413TIP3    H237162   4.203   5.196   5.587
12414TIP3   OH237163   4.303   3.867   5.743
12414TIP3    H137164   4.289   3.959   5.768
12414TIP3    H237165   4.397   3.854   5.749
12415TIP3   OH237166   5.542   4.334   6.609
12415TIP3    H137167   5.448   4.348   6.624
12415TIP3    H237168   5.546   4.272   6.537
12416TIP3   OH237169   5.205   4.540   5.995
12416TIP3    H137170   5.124   4.489   6.005
12416TIP3    H237171   5.267   4.498   6.056
12417TIP3   OH237172   3.936   4.756   5.474
12417TIP3    H137173   4.008   4.819   5.481
12417TIP3    H237174   3.967   4.691   5.411
12418TIP3   OH237175   3.876   4.051   5.610
12418TIP3    H137176   3.884   4.142   5.639
12418TIP3    H237177   3.844   4.056   5.520
12419TIP3   OH237178   5.183   5.519   5.923
12419TIP3    H137179   5.146   5.571   5.852
12419TIP3    H237180   5.278   5.532   5.916
12420TIP3   OH237181   4.259   3.763   6.474
12420TIP3    H137182   4.229   3.734   6.388
12420TIP3    H237183   4.245   3.688   6.531
12421TIP3   OH237184   3.778   5.026   5.858
12421TIP3    H137185   3.721   5.052   5.931
12421TIP3    H237186   3.736   5.064   5.780
12422TIP3   OH237187   3.976   5.551   6.941
12422TIP3    H137188   4.060   5.550   6.986
12422TIP3    H237189   3.951   5.459   6.934
12423TIP3   OH237190   4.448   5.461   6.983
12423TIP3    H137191   4.539   5.433   6.988
12423TIP3    H237192   4.411   5.410   6.911
12424TIP3   OH237193   4.436   5.013   5.102
12424TIP3    H137194   4.365   4.965   5.144
12424TIP3    H237195   4.512   4.955   5.108
12425TIP3   OH237196   5.064   5.403   6.745
12425TIP3    H137197   5.082   5.333   6.809
12425TIP3    H237198   5.138   5.463   6.755
12426TIP3   OH237199   4.888   5.136   5.026
12426TIP3    H137200   4.891   5.055   5.077
12426TIP3    H237201   4.903   5.108   4.936
12427TIP3   OH237202   4.083   4.960   7.131
12427TIP3    H137203   4.097   4.866   7.142
12427TIP3    H237204   4.000   4.967   7.085
12428TIP3   OH237205   4.073   4.567   5.333
12428TIP3    H137206   4.124   4.540   5.410
12428TIP3    H237207   4.137   4.574   5.263
12429TIP3   OH237208   4.702   5.036   6.906
12429TIP3    H137209   4.657   5.057   6.824
12429TIP3    H237210   4.735   4.947   6.893
12430TIP3   OH237211   4.629   4.815   5.172
12430TIP3    H137212   4.618   4.818   5.267
12430TIP3    H237213   4.620   4.722   5.150
12431TIP3   OH237214   5.183   5.084   6.529
12431TIP3    H137215   5.258   5.110   6.477
12431TIP3    H237216   5.116   5.150   6.511
12432TIP3   OH237217   4.192   4.703   7.140
12432TIP3    H137218   4.260   4.685   7.075
12432TIP3    H237219   4.240   4.721   7.221
12433TIP3   OH237220   4.248   4.497   5.543
12433TIP3    H137221   4.218   4.463   5.627
12433TIP3    H237222   4.290   4.422   5.500
12434TIP3   OH237223   4.565   4.589   6.800
12434TIP3    H137224   4.475   4.622   6.809
12434TIP3    H237225   4.593   4.619   6.713
12435TIP3   OH237226   4.381   4.311   5.381
12435TIP3    H137227   4.350   4.316   5.290
12435TIP3    H237228   4.476   4.322   5.374
12436TIP3   OH237229   5.062   4.958   6.884
12436TIP3    H137230   5.122   4.913   6.824
12436TIP3    H237231   5.053   4.898   6.958
12437TIP3   OH237232   5.173   4.607   5.063
12437TIP3    H137233   5.168   4.567   4.976
12437TIP3    H237234   5.152   4.699   5.048
12438TIP3   OH237235   4.667   4.353   6.896
12438TIP3    H137236   4.665   4.283   6.830
12438TIP3    H237237   4.632   4.430   6.851
12439TIP3   OH237238   4.671   4.151   6.695
12439TIP3    H137239   4.698   4.189   6.611
12439TIP3    H237240   4.579   4.127   6.683
12440TIP3   OH237241   4.679   4.691   6.576
12440TIP3    H137242   4.765   4.729   6.555
12440TIP3    H237243   4.618   4.742   6.523
12441TIP3   OH237244   5.268   4.644   6.947
12441TIP3    H137245   5.319   4.563   6.950
12441TIP3    H237246   5.334   4.714   6.944
12442TIP3   OH237247   5.297   4.902   6.694
12442TIP3    H137248   5.245   4.965   6.645
12442TIP3    H237249   5.387   4.915   6.664
12443TIP3   OH237250   4.544   4.429   7.140
12443TIP3    H137251   4.474   4.366   7.157
12443TIP3    H237252   4.571   4.411   7.050
12444TIP3   OH237253   4.792   3.923   6.801
12444TIP3    H137254   4.752   4.003   6.767
12444TIP3    H237255   4.726   3.855   6.788
12445TIP3   OH237256   4.920   4.391   7.002
12445TIP3    H137257   4.903   4.379   7.095
12445TIP3    H237258   4.836   4.372   6.960
12446TIP3   OH237259   5.164   4.345   6.873
12446TIP3    H137260   5.086   4.347   6.928
12446TIP3    H237261   5.235   4.323   6.933
12447TIP3   OH237262   5.405   4.308   7.016
12447TIP3    H137263   5.418   4.214   7.022
12447TIP3    H237264   5.399   4.338   7.107
12448TIP3   OH237265   4.376   4.212   7.204
12448TIP3    H137266   4.382   4.124   7.167
12448TIP3    H237267   4.415   4.203   7.291
12449TIP3   OH237268   4.861   3.900   7.066
12449TIP3    H137269   4.928   3.832   7.057
12449TIP3    H237270   4.829   3.914   6.977
12450TIP3   OH237271   4.955   4.115   7.214
12450TIP3    H137272   4.927   4.043   7.157
12450TIP3    H237273   4.883   4.178   7.209
12451TIP3   OH237274   4.242   5.372   5.320
12451TIP3    H137275   4.316   5.332   5.276
12451TIP3    H237276   4.193   5.416   5.250
12452TIP3   OH237277   3.664   4.725   5.519
12452TIP3    H137278   3.753   4.745   5.493
12452TIP3    H237279   3.642   4.644   5.471
12453TIP3   OH237280   3.577   5.335   5.956
12453TIP3    H137281   3.512   5.281   5.910
12453TIP3    H237282   3.622   5.274   6.014
12454TIP3   OH237283   3.717   5.168   6.124
12454TIP3    H137284   3.708   5.095   6.185
12454TIP3    H237285   3.772   5.231   6.171
12455TIP3   OH237286   5.454   5.569   5.930
12455TIP3    H137287   5.471   5.598   6.020
12455TIP3    H237288   5.506   5.629   5.876
12456TIP3   OH237289   5.468   5.601   6.211
12456TIP3    H137290   5.424   5.515   6.208
12456TIP3    H237291   5.540   5.588   6.272
12457TIP3   OH237292   5.540   5.297   6.791
12457TIP3    H137293   5.467   5.309   6.852
12457TIP3    H237294   5.584   5.382   6.790
12458TIP3   OH237295   5.347   4.811   5.391
12458TIP3    H137296   5.403   4.882   5.360
12458TIP3    H237297   5.393   4.775   5.466
12459TIP3   OH237298   5.483   4.671   5.592
12459TIP3    H137299   5.413   4.636   5.648
12459TIP3    H237300   5.546   4.710   5.653
12460TIP3   OH237301   5.531   5.079   6.032
12460TIP3    H137302   5.581   5.012   5.985
12460TIP3    H237303   5.529   5.154   5.973
12461TIP3   OH237304   5.336   5.355   6.222
12461TIP3    H137305   5.268   5.400   6.272
12461TIP3    H237306   5.290   5.316   6.147
12462TIP3   OH237307   5.384   4.585   5.239
12462TIP3    H137308   5.312   4.585   5.176
12462TIP3    H237309   5.368   4.664   5.292
12463TIP3   OH237310   5.255   4.226   5.179
12463TIP3    H137311   5.211   4.273   5.108
12463TIP3    H237312   5.239   4.134   5.160
12464TIP3   OH237313   5.277   4.539   5.727
12464TIP3    H137314   5.274   4.445   5.710
12464TIP3    H237315   5.254   4.546   5.820
12465TIP3   OH237316   3.910   4.588   6.505
12465TIP3    H137317   3.908   4.567   6.411
12465TIP3    H237318   4.003   4.591   6.527
12466TIP3   OH237319   5.553   4.945   6.594
12466TIP3    H137320   5.623   4.883   6.575
12466TIP3    H237321   5.550   5.003   6.517
12467TIP3   OH237322   5.738   4.737   6.581
12467TIP3    H137323   5.664   4.696   6.625
12467TIP3    H237324   5.814   4.684   6.606
12468TIP3   OH237325   5.211   3.953   5.150
12468TIP3    H137326   5.267   3.932   5.225
12468TIP3    H237327   5.123   3.926   5.177
12469TIP3   OH237328   5.268   4.267   5.618
12469TIP3    H137329   5.309   4.181   5.629
12469TIP3    H237330   5.308   4.304   5.540
12470TIP3   OH237331   5.419   4.416   6.141
12470TIP3    H137332   5.499   4.436   6.092
12470TIP3    H237333   5.432   4.459   6.226
12471TIP3   OH237334   5.498   4.569   6.366
12471TIP3    H137335   5.426   4.597   6.423
12471TIP3    H237336   5.527   4.650   6.323
12472TIP3   OH237337   4.112   4.277   7.150
12472TIP3    H137338   4.207   4.272   7.164
12472TIP3    H237339   4.078   4.196   7.186
12473TIP3   OH237340   5.955   4.150   6.899
12473TIP3    H137341   6.021   4.093   6.860
12473TIP3    H237342   5.926   4.206   6.827
12474TIP3   OH237343   5.376   4.016   5.670
12474TIP3    H137344   5.418   3.999   5.754
12474TIP3    H237345   5.312   3.944   5.660
12475TIP3   OH237346   4.095   3.987   6.506
12475TIP3    H137347   4.149   3.909   6.503
12475TIP3    H237348   4.154   4.058   6.481
12476TIP3   OH237349   3.870   4.257   6.557
12476TIP3    H137350   3.924   4.241   6.479
12476TIP3    H237351   3.875   4.351   6.570
12477TIP3   OH237352   5.812   4.290   6.712
12477TIP3    H137353   5.740   4.329   6.761
12477TIP3    H237354   5.771   4.223   6.658
12478TIP3   OH237355   5.437   3.910   5.313
12478TIP3    H137356   5.481   3.853   5.250
12478TIP3    H237357   5.487   3.991   5.311
12479TIP3   OH237358   3.858   3.766   6.051
12479TIP3    H137359   3.773   3.756   6.093
12479TIP3    H237360   3.841   3.821   5.975
12480TIP3   OH237361   5.021   5.478   5.576
12480TIP3    H137362   5.076   5.470   5.498
12480TIP3    H237363   5.060   5.552   5.624
12481TIP3   OH237364   4.090   3.812   6.879
12481TIP3    H137365   4.039   3.811   6.960
12481TIP3    H237366   4.037   3.864   6.818
12482TIP3   OH237367   4.121   5.271   6.956
12482TIP3    H137368   4.027   5.258   6.944
12482TIP3    H237369   4.136   5.257   7.049
12483TIP3   OH237370   4.325   5.326   6.507
12483TIP3    H137371   4.274   5.400   6.473
12483TIP3    H237372   4.409   5.333   6.462
12484TIP3   OH237373   4.721   5.553   6.643
12484TIP3    H137374   4.759   5.546   6.731
12484TIP3    H237375   4.783   5.607   6.594
12485TIP3   OH237376   4.910   5.708   6.516
12485TIP3    H137377   4.969   5.657   6.461
12485TIP3    H237378   4.968   5.764   6.568
12486TIP3   OH237379   5.713   4.045   6.597
12486TIP3    H137380   5.629   4.046   6.551
12486TIP3    H237381   5.745   3.955   6.587
12487TIP3   OH237382   3.988   5.568   6.553
12487TIP3    H137383   3.896   5.587   6.531
12487TIP3    H237384   4.010   5.633   6.620
12488TIP3   OH237385   4.217   5.557   6.402
12488TIP3    H137386   4.134   5.562   6.448
12488TIP3    H237387   4.195   5.578   6.311
12489TIP3   OH237388   4.629   5.570   6.192
12489TIP3    H137389   4.557   5.580   6.130
12489TIP3    H237390   4.639   5.658   6.231
12490TIP3   OH237391   4.888   5.500   6.251
12490TIP3    H137392   4.798   5.521   6.226
12490TIP3    H237393   4.942   5.560   6.199
12491TIP3   OH237394   5.089   5.659   6.141
12491TIP3    H137395   5.095   5.749   6.109
12491TIP3    H237396   5.117   5.605   6.067
12492TIP3   OH237397   3.897   5.341   6.273
12492TIP3    H137398   3.926   5.316   6.360
12492TIP3    H237399   3.966   5.310   6.215
12493TIP3   OH237400   4.099   5.231   6.130
12493TIP3    H137401   4.112   5.148   6.176
12493TIP3    H237402   4.186   5.272   6.129
12494TIP3   OH237403   4.368   5.319   6.150
12494TIP3    H137404   4.386   5.226   6.132
12494TIP3    H237405   4.421   5.339   6.228
12495TIP3   OH237406   4.928   3.964   6.248
12495TIP3    H137407   4.885   3.892   6.295
12495TIP3    H237408   4.994   3.922   6.194
12496TIP3   OH237409   5.426   3.874   6.123
12496TIP3    H137410   5.462   3.923   6.049
12496TIP3    H237411   5.333   3.897   6.124
12497TIP3   OH237412   5.542   3.926   5.874
12497TIP3    H137413   5.588   3.864   5.818
12497TIP3    H237414   5.593   4.007   5.869
12498TIP3   OH237415   4.170   3.660   6.234
12498TIP3    H137416   4.080   3.630   6.242
12498TIP3    H237417   4.221   3.580   6.222
12499TIP3   OH237418   4.009   3.580   5.901
12499TIP3    H137419   4.024   3.625   5.818
12499TIP3    H237420   3.962   3.643   5.955
12500TIP3   OH237421   4.655   3.692   6.133
12500TIP3    H137422   4.695   3.745   6.064
12500TIP3    H237423   4.689   3.730   6.214
12501TIP3   OH237424   5.139   3.855   6.105
12501TIP3    H137425   5.124   3.824   6.015
12501TIP3    H237426   5.144   3.775   6.157
12502TIP3   OH237427   5.204   3.795   5.679
12502TIP3    H137428   5.123   3.842   5.699
12502TIP3    H237429   5.190   3.707   5.714
12503TIP3   OH237430   3.659   5.142   5.638
12503TIP3    H137431   3.576   5.108   5.605
12503TIP3    H237432   3.660   5.233   5.610
12504TIP3   OH237433   4.090   3.701   5.651
12504TIP3    H137434   4.135   3.644   5.589
12504TIP3    H237435   4.159   3.759   5.683
12505TIP3   OH237436   4.579   3.892   5.748
12505TIP3    H137437   4.636   3.841   5.805
12505TIP3    H237438   4.594   3.983   5.774
12506TIP3   OH237439   4.468   5.257   5.222
12506TIP3    H137440   4.550   5.293   5.188
12506TIP3    H237441   4.452   5.180   5.168
12507TIP3   OH237442   5.164   5.435   5.341
12507TIP3    H137443   5.160   5.340   5.336
12507TIP3    H237444   5.111   5.465   5.267
12508TIP3   OH237445   4.396   3.940   7.120
12508TIP3    H137446   4.362   3.873   7.179
12508TIP3    H237447   4.488   3.950   7.145
12509TIP3   OH237448   4.644   3.948   7.243
12509TIP3    H137449   4.721   3.927   7.191
12509TIP3    H237450   4.638   3.876   7.306
12510TIP3   OH237451   3.774   5.130   5.305
12510TIP3    H137452   3.769   5.127   5.400
12510TIP3    H237453   3.856   5.085   5.284
12511TIP3   OH237454   5.468   4.037   7.026
12511TIP3    H137455   5.484   4.013   7.117
12511TIP3    H237456   5.553   4.031   6.984
12512TIP3   OH237457   5.382   5.572   6.533
12512TIP3    H137458   5.309   5.540   6.480
12512TIP3    H237459   5.369   5.667   6.538
12513TIP3   OH237460   6.663   4.967   5.271
12513TIP3    H137461   6.630   5.053   5.245
12513TIP3    H237462   6.593   4.906   5.247
12514TIP3   OH237463   6.642   4.949   5.683
12514TIP3    H137464   6.678   4.928   5.769
12514TIP3    H237465   6.602   4.867   5.654
12515TIP3   OH237466   5.959   4.812   6.040
12515TIP3    H137467   5.996   4.762   6.112
12515TIP3    H237468   6.034   4.841   5.988
12516TIP3   OH237469   6.939   5.252   5.377
12516TIP3    H137470   6.911   5.197   5.449
12516TIP3    H237471   6.957   5.337   5.417
12517TIP3   OH237472   5.953   5.237   5.732
12517TIP3    H137473   5.934   5.143   5.739
12517TIP3    H237474   6.048   5.242   5.719
12518TIP3   OH237475   5.628   4.438   5.525
12518TIP3    H137476   5.591   4.523   5.546
12518TIP3    H237477   5.559   4.394   5.476
12519TIP3   OH237478   5.713   4.753   5.736
12519TIP3    H137479   5.763   4.676   5.761
12519TIP3    H237480   5.780   4.817   5.710
12520TIP3   OH237481   6.582   5.691   5.378
12520TIP3    H137482   6.613   5.621   5.320
12520TIP3    H237483   6.562   5.647   5.460
12521TIP3   OH237484   6.466   5.170   5.697
12521TIP3    H137485   6.509   5.089   5.670
12521TIP3    H237486   6.537   5.226   5.727
12522TIP3   OH237487   7.481   4.509   5.692
12522TIP3    H137488   7.522   4.570   5.752
12522TIP3    H237489   7.541   4.504   5.617
12523TIP3   OH237490   6.888   4.685   5.731
12523TIP3    H137491   6.928   4.603   5.758
12523TIP3    H237492   6.846   4.665   5.647
12524TIP3   OH237493   6.230   4.315   5.693
12524TIP3    H137494   6.214   4.392   5.638
12524TIP3    H237495   6.182   4.245   5.650
12525TIP3   OH237496   6.916   4.428   5.325
12525TIP3    H137497   6.983   4.418   5.393
12525TIP3    H237498   6.965   4.455   5.247
12526TIP3   OH237499   5.848   4.525   5.827
12526TIP3    H137500   5.933   4.511   5.869
12526TIP3    H237501   5.853   4.476   5.745
12527TIP3   OH237502   6.273   4.731   5.643
12527TIP3    H137503   6.368   4.715   5.644
12527TIP3    H237504   6.236   4.651   5.607
12528TIP3   OH237505   7.571   4.699   5.872
12528TIP3    H137506   7.482   4.734   5.872
12528TIP3    H237507   7.610   4.733   5.952
12529TIP3   OH237508   6.201   4.315   6.145
12529TIP3    H137509   6.156   4.364   6.075
12529TIP3    H237510   6.149   4.334   6.223
12530TIP3   OH237511   6.563   5.184   5.133
12530TIP3    H137512   6.523   5.152   5.052
12530TIP3    H237513   6.507   5.257   5.160
12531TIP3   OH237514   6.314   5.097   5.918
12531TIP3    H137515   6.257   5.167   5.952
12531TIP3    H237516   6.356   5.136   5.842
12532TIP3   OH237517   7.076   4.433   5.545
12532TIP3    H137518   7.041   4.402   5.629
12532TIP3    H237519   7.137   4.502   5.568
12533TIP3   OH237520   6.104   4.431   5.913
12533TIP3    H137521   6.157   4.508   5.935
12533TIP3    H237522   6.149   4.391   5.839
12534TIP3   OH237523   6.153   5.301   6.021
12534TIP3    H137524   6.138   5.389   5.987
12534TIP3    H237525   6.075   5.281   6.073
12535TIP3   OH237526   5.522   4.998   5.274
12535TIP3    H137527   5.485   5.022   5.189
12535TIP3    H237528   5.545   5.082   5.314
12536TIP3   OH237529   6.973   5.506   5.507
12536TIP3    H137530   6.887   5.498   5.548
12536TIP3    H237531   6.970   5.590   5.460
12537TIP3   OH237532   7.261   4.410   5.885
12537TIP3    H137533   7.175   4.415   5.845
12537TIP3    H237534   7.322   4.427   5.813
12538TIP3   OH237535   6.560   4.013   5.879
12538TIP3    H137536   6.553   3.921   5.903
12538TIP3    H237537   6.486   4.055   5.923
12539TIP3   OH237538   6.674   5.530   5.167
12539TIP3    H137539   6.729   5.452   5.156
12539TIP3    H237540   6.729   5.602   5.137
12540TIP3   OH237541   6.819   5.299   5.129
12540TIP3    H137542   6.739   5.245   5.129
12540TIP3    H237543   6.864   5.274   5.210
12541TIP3   OH237544   7.195   5.370   5.881
12541TIP3    H137545   7.178   5.304   5.814
12541TIP3    H237546   7.180   5.454   5.837
12542TIP3   OH237547   6.491   4.802   5.127
12542TIP3    H137548   6.408   4.846   5.111
12542TIP3    H237549   6.529   4.791   5.040
12543TIP3   OH237550   6.458   4.598   4.826
12543TIP3    H137551   6.530   4.650   4.863
12543TIP3    H237552   6.500   4.524   4.783
12544TIP3   OH237553   7.371   5.041   5.691
12544TIP3    H137554   7.292   5.095   5.692
12544TIP3    H237555   7.423   5.075   5.619
12545TIP3   OH237556   6.846   4.884   5.089
12545TIP3    H137557   6.789   4.922   5.155
12545TIP3    H237558   6.895   4.816   5.136
12546TIP3   OH237559   6.070   4.863   5.493
12546TIP3    H137560   6.033   4.805   5.427
12546TIP3    H237561   6.144   4.814   5.530
12547TIP3   OH237562   6.213   5.279   5.635
12547TIP3    H137563   6.188   5.271   5.543
12547TIP3    H237564   6.302   5.242   5.639
12548TIP3   OH237565   6.177   4.864   5.868
12548TIP3    H137566   6.214   4.828   5.787
12548TIP3    H237567   6.226   4.944   5.883
12549TIP3   OH237568   6.741   5.492   5.644
12549TIP3    H137569   6.718   5.574   5.689
12549TIP3    H237570   6.715   5.423   5.706
12550TIP3   OH237571   6.344   5.399   6.196
12550TIP3    H137572   6.281   5.457   6.239
12550TIP3    H237573   6.291   5.348   6.135
12551TIP3   OH237574   6.676   4.748   4.917
12551TIP3    H137575   6.732   4.809   4.964
12551TIP3    H237576   6.705   4.756   4.826
12552TIP3   OH237577   6.094   4.943   6.328
12552TIP3    H137578   6.099   5.036   6.350
12552TIP3    H237579   6.000   4.924   6.324
12553TIP3   OH237580   6.422   5.418   5.177
12553TIP3    H137581   6.504   5.468   5.180
12553TIP3    H237582   6.361   5.475   5.129
12554TIP3   OH237583   6.136   5.559   6.279
12554TIP3    H137584   6.111   5.571   6.187
12554TIP3    H237585   6.054   5.543   6.324
12555TIP3   OH237586   7.190   3.980   4.973
12555TIP3    H137587   7.112   3.997   5.025
12555TIP3    H237588   7.195   4.054   4.912
12556TIP3   OH237589   5.945   4.707   5.292
12556TIP3    H137590   5.870   4.757   5.260
12556TIP3    H237591   5.912   4.619   5.306
12557TIP3   OH237592   7.014   5.348   4.537
12557TIP3    H137593   7.006   5.441   4.516
12557TIP3    H237594   7.105   5.327   4.515
12558TIP3   OH237595   5.733   5.114   6.225
12558TIP3    H137596   5.663   5.100   6.162
12558TIP3    H237597   5.765   5.026   6.246
12559TIP3   OH237598   5.567   5.317   5.883
12559TIP3    H137599   5.656   5.345   5.902
12559TIP3    H237600   5.512   5.392   5.906
12560TIP3   OH237601   7.423   5.771   5.923
12560TIP3    H137602   7.430   5.676   5.935
12560TIP3    H237603   7.345   5.795   5.973
12561TIP3   OH237604   6.533   5.542   6.055
12561TIP3    H137605   6.522   5.634   6.079
12561TIP3    H237606   6.464   5.497   6.103
12562TIP3   OH237607   6.310   5.645   5.002
12562TIP3    H137608   6.243   5.621   4.938
12562TIP3    H237609   6.281   5.729   5.037
12563TIP3   OH237610   5.755   5.476   5.377
12563TIP3    H137611   5.794   5.474   5.465
12563TIP3    H237612   5.703   5.396   5.372
12564TIP3   OH237613   6.509   5.569   4.625
12564TIP3    H137614   6.564   5.498   4.593
12564TIP3    H237615   6.539   5.584   4.715
12565TIP3   OH237616   6.563   5.612   4.896
12565TIP3    H137617   6.475   5.617   4.934
12565TIP3    H237618   6.618   5.579   4.966
12566TIP3   OH237619   5.938   5.296   6.193
12566TIP3    H137620   5.985   5.283   6.275
12566TIP3    H237621   5.863   5.237   6.198
12567TIP3   OH237622   6.319   4.112   5.995
12567TIP3    H137623   6.261   4.111   5.919
12567TIP3    H237624   6.283   4.181   6.051
12568TIP3   OH237625   6.852   4.221   6.201
12568TIP3    H137626   6.921   4.198   6.263
12568TIP3    H237627   6.770   4.205   6.248
12569TIP3   OH237628   6.767   4.752   4.663
12569TIP3    H137629   6.722   4.743   4.579
12569TIP3    H237630   6.848   4.798   4.642
12570TIP3   OH237631   6.465   4.144   4.977
12570TIP3    H137632   6.420   4.155   5.061
12570TIP3    H237633   6.423   4.067   4.937
12571TIP3   OH237634   6.253   4.641   6.014
12571TIP3    H137635   6.207   4.648   6.098
12571TIP3    H237636   6.231   4.722   5.968
12572TIP3   OH237637   6.133   4.517   5.535
12572TIP3    H137638   6.044   4.492   5.558
12572TIP3    H237639   6.142   4.492   5.443
12573TIP3   OH237640   6.610   4.596   5.264
12573TIP3    H137641   6.563   4.668   5.223
12573TIP3    H237642   6.665   4.560   5.195
12574TIP3   OH237643   6.838   4.885   6.392
12574TIP3    H137644   6.796   4.799   6.399
12574TIP3    H237645   6.835   4.920   6.481
12575TIP3   OH237646   6.765   4.600   5.495
12575TIP3    H137647   6.702   4.620   5.427
12575TIP3    H237648   6.821   4.532   5.457
12576TIP3   OH237649   6.090   4.655   6.236
12576TIP3    H137650   6.094   4.723   6.304
12576TIP3    H237651   6.071   4.575   6.283
12577TIP3   OH237652   6.129   4.126   4.921
12577TIP3    H137653   6.104   4.207   4.966
12577TIP3    H237654   6.141   4.151   4.830
12578TIP3   OH237655   5.690   4.146   5.830
12578TIP3    H137656   5.768   4.177   5.876
12578TIP3    H237657   5.696   4.186   5.743
12579TIP3   OH237658   5.586   4.149   5.325
12579TIP3    H137659   5.631   4.185   5.248
12579TIP3    H237660   5.521   4.216   5.348
12580TIP3   OH237661   6.751   4.846   5.915
12580TIP3    H137662   6.807   4.797   5.855
12580TIP3    H237663   6.740   4.788   5.991
12581TIP3   OH237664   6.503   4.304   5.585
12581TIP3    H137665   6.426   4.306   5.642
12581TIP3    H237666   6.577   4.300   5.646
12582TIP3   OH237667   5.892   4.389   5.590
12582TIP3    H137668   5.803   4.399   5.556
12582TIP3    H237669   5.919   4.302   5.562
12583TIP3   OH237670   6.146   4.415   5.279
12583TIP3    H137671   6.241   4.414   5.273
12583TIP3    H237672   6.116   4.413   5.188
12584TIP3   OH237673   6.966   4.416   5.809
12584TIP3    H137674   6.953   4.433   5.902
12584TIP3    H237675   6.895   4.357   5.785
12585TIP3   OH237676   6.047   4.380   5.023
12585TIP3    H137677   5.970   4.357   4.970
12585TIP3    H237678   6.097   4.440   4.968
12586TIP3   OH237679   7.145   6.105   6.014
12586TIP3    H137680   7.141   6.124   5.920
12586TIP3    H237681   7.222   6.153   6.044
12587TIP3   OH237682   6.087   5.207   6.427
12587TIP3    H137683   6.167   5.230   6.474
12587TIP3    H237684   6.017   5.218   6.491
12588TIP3   OH237685   6.546   4.675   5.679
12588TIP3    H137686   6.617   4.631   5.631
12588TIP3    H237687   6.546   4.631   5.765
12589TIP3   OH237688   6.070   4.145   5.540
12589TIP3    H137689   6.057   4.053   5.563
12589TIP3    H237690   6.078   4.145   5.445
12590TIP3   OH237691   6.513   4.573   5.945
12590TIP3    H137692   6.426   4.606   5.970
12590TIP3    H237693   6.573   4.617   6.005
12591TIP3   OH237694   6.257   4.941   5.078
12591TIP3    H137695   6.185   4.881   5.055
12591TIP3    H237696   6.229   4.981   5.160
12592TIP3   OH237697   7.143   5.197   5.672
12592TIP3    H137698   7.180   5.254   5.604
12592TIP3    H237699   7.056   5.175   5.640
12593TIP3   OH237700   6.715   4.248   4.982
12593TIP3    H137701   6.623   4.221   4.977
12593TIP3    H237702   6.711   4.343   4.992
12594TIP3   OH237703   6.660   5.280   6.085
12594TIP3    H137704   6.753   5.297   6.100
12594TIP3    H237705   6.619   5.366   6.086
12595TIP3   OH237706   6.766   4.516   5.046
12595TIP3    H137707   6.861   4.509   5.047
12595TIP3    H237708   6.748   4.589   4.988
12596TIP3   OH237709   5.942   4.947   5.723
12596TIP3    H137710   5.978   4.930   5.636
12596TIP3    H237711   6.010   4.919   5.784
12597TIP3   OH237712   6.407   5.098   4.914
12597TIP3    H137713   6.359   5.181   4.908
12597TIP3    H237714   6.351   5.042   4.969
12598TIP3   OH237715   5.823   4.872   6.350
12598TIP3    H137716   5.821   4.845   6.441
12598TIP3    H237717   5.747   4.829   6.310
12599TIP3   OH237718   6.551   5.017   6.377
12599TIP3    H137719   6.476   4.959   6.367
12599TIP3    H237720   6.602   5.003   6.297
12600TIP3   OH237721   6.805   5.550   5.990
12600TIP3    H137722   6.710   5.551   5.990
12600TIP3    H237723   6.830   5.594   6.071
12601TIP3   OH237724   7.194   4.610   4.869
12601TIP3    H137725   7.137   4.564   4.808
12601TIP3    H237726   7.200   4.699   4.834
12602TIP3   OH237727   7.440   5.496   5.952
12602TIP3    H137728   7.352   5.459   5.961
12602TIP3    H237729   7.472   5.460   5.869
12603TIP3   OH237730   6.937   5.419   4.802
12603TIP3    H137731   6.892   5.354   4.855
12603TIP3    H237732   6.952   5.375   4.718
12604TIP3   OH237733   6.890   5.077   5.600
12604TIP3    H137734   6.795   5.065   5.607
12604TIP3    H237735   6.926   4.989   5.615
12605TIP3   OH237736   6.066   5.290   5.395
12605TIP3    H137737   6.065   5.366   5.337
12605TIP3    H237738   5.978   5.286   5.432
12606TIP3   OH237739   5.624   4.578   5.103
12606TIP3    H137740   5.665   4.662   5.125
12606TIP3    H237741   5.541   4.579   5.151
12607TIP3   OH237742   6.159   5.048   5.305
12607TIP3    H137743   6.135   5.136   5.332
12607TIP3    H237744   6.127   4.992   5.375
12608TIP3   OH237745   6.351   5.613   5.841
12608TIP3    H137746   6.383   5.688   5.792
12608TIP3    H237747   6.427   5.583   5.892
12609TIP3   OH237748   5.991   5.512   5.242
12609TIP3    H137749   5.903   5.511   5.278
12609TIP3    H237750   6.017   5.604   5.246
12610TIP3   OH237751   6.699   5.270   5.812
12610TIP3    H137752   6.677   5.265   5.905
12610TIP3    H237753   6.786   5.230   5.805
12611TIP3   OH237754   6.703   5.149   4.673
12611TIP3    H137755   6.750   5.116   4.749
12611TIP3    H237756   6.618   5.105   4.677
12612TIP3   OH237757   6.957   5.773   5.854
12612TIP3    H137758   6.879   5.720   5.866
12612TIP3    H237759   6.936   5.831   5.780
12613TIP3   OH237760   7.000   5.619   4.488
12613TIP3    H137761   7.004   5.667   4.406
12613TIP3    H237762   6.936   5.666   4.541
12614TIP3   OH237763   6.036   4.400   6.354
12614TIP3    H137764   5.942   4.412   6.365
12614TIP3    H237765   6.063   4.350   6.431
12615TIP3   OH237766   6.869   5.053   4.868
12615TIP3    H137767   6.857   5.003   4.949
12615TIP3    H237768   6.964   5.064   4.862
12616TIP3   OH237769   5.775   5.517   5.999
12616TIP3    H137770   5.833   5.463   6.052
12616TIP3    H237771   5.788   5.606   6.032
12617TIP3   OH237772   6.041   5.119   4.695
12617TIP3    H137773   6.048   5.026   4.672
12617TIP3    H237774   6.029   5.119   4.790
12618TIP3   OH237775   5.989   5.144   4.967
12618TIP3    H137776   6.050   5.116   5.036
12618TIP3    H237777   5.988   5.239   4.974
12619TIP3   OH237778   5.722   4.829   5.182
12619TIP3    H137779   5.655   4.876   5.232
12619TIP3    H237780   5.740   4.886   5.107
12620TIP3   OH237781   6.911   4.458   6.077
12620TIP3    H137782   6.943   4.504   6.155
12620TIP3    H237783   6.888   4.371   6.110
12621TIP3   OH237784   6.775   4.201   5.248
12621TIP3    H137785   6.753   4.216   5.156
12621TIP3    H237786   6.816   4.283   5.276
12622TIP3   OH237787   6.261   5.327   4.900
12622TIP3    H137788   6.178   5.349   4.943
12622TIP3    H237789   6.272   5.394   4.833
12623TIP3   OH237790   6.425   4.403   5.336
12623TIP3    H137791   6.487   4.472   5.309
12623TIP3    H237792   6.452   4.381   5.425
12624TIP3   OH237793   6.719   4.657   6.115
12624TIP3    H137794   6.726   4.662   6.210
12624TIP3    H237795   6.779   4.587   6.089
12625TIP3   OH237796   6.584   4.094   5.418
12625TIP3    H137797   6.561   4.171   5.470
12625TIP3    H237798   6.654   4.124   5.360
12626TIP3   OH237799   6.015   5.415   4.987
12626TIP3    H137800   5.994   5.487   4.929
12626TIP3    H237801   6.003   5.451   5.075
12627TIP3   OH237802   6.090   4.130   5.263
12627TIP3    H137803   6.077   4.223   5.248
12627TIP3    H237804   6.182   4.114   5.239
12628TIP3   OH237805   7.326   4.592   6.101
12628TIP3    H137806   7.259   4.577   6.167
12628TIP3    H237807   7.304   4.532   6.030
12629TIP3   OH237808   7.152   4.802   5.428
12629TIP3    H137809   7.057   4.798   5.415
12629TIP3    H237810   7.169   4.740   5.499
12630TIP3   OH237811   5.743   5.008   4.968
12630TIP3    H137812   5.811   5.075   4.975
12630TIP3    H237813   5.780   4.943   4.908
12631TIP3   OH237814   5.652   4.301   5.108
12631TIP3    H137815   5.657   4.396   5.109
12631TIP3    H237816   5.608   4.280   5.025
12632TIP3   OH237817   6.982   5.773   5.412
12632TIP3    H137818   6.942   5.825   5.342
12632TIP3    H237819   7.076   5.788   5.404
12633TIP3   OH237820   5.576   5.259   5.373
12633TIP3    H137821   5.540   5.296   5.453
12633TIP3    H237822   5.527   5.302   5.302
12634TIP3   OH237823   5.774   5.808   6.424
12634TIP3    H137824   5.857   5.809   6.473
12634TIP3    H237825   5.754   5.715   6.414
12635TIP3   OH237826   6.241   5.720   6.478
12635TIP3    H137827   6.336   5.710   6.475
12635TIP3    H237828   6.209   5.666   6.406
12636TIP3   OH237829   6.159   5.310   4.531
12636TIP3    H137830   6.125   5.247   4.594
12636TIP3    H237831   6.246   5.276   4.509
12637TIP3   OH237832   6.864   5.648   6.239
12637TIP3    H137833   6.876   5.570   6.294
12637TIP3    H237834   6.941   5.702   6.257
12638TIP3   OH237835   6.646   5.362   4.511
12638TIP3    H137836   6.681   5.295   4.570
12638TIP3    H237837   6.700   5.355   4.432
12639TIP3   OH237838   5.879   5.211   6.612
12639TIP3    H137839   5.895   5.117   6.623
12639TIP3    H237840   5.792   5.216   6.571
12640TIP3   OH237841   5.891   4.833   4.829
12640TIP3    H137842   5.952   4.805   4.897
12640TIP3    H237843   5.944   4.833   4.749
12641TIP3   OH237844   6.511   5.296   6.389
12641TIP3    H137845   6.462   5.320   6.310
12641TIP3    H237846   6.533   5.204   6.376
12642TIP3   OH237847   6.453   5.030   4.651
12642TIP3    H137848   6.427   5.042   4.743
12642TIP3    H237849   6.432   4.939   4.632
12643TIP3   OH237850   6.949   5.317   6.028
12643TIP3    H137851   7.040   5.326   5.997
12643TIP3    H237852   6.908   5.400   6.004
12644TIP3   OH237853   5.993   4.956   6.626
12644TIP3    H137854   6.070   4.935   6.572
12644TIP3    H237855   6.029   4.976   6.712
12645TIP3   OH237856   6.062   4.755   5.034
12645TIP3    H137857   6.032   4.723   5.120
12645TIP3    H237858   6.103   4.678   4.994
12646TIP3   OH237859   6.352   4.845   6.275
12646TIP3    H137860   6.265   4.883   6.281
12646TIP3    H237861   6.388   4.878   6.193
12647TIP3   OH237862   6.186   4.565   4.877
12647TIP3    H137863   6.154   4.565   4.787
12647TIP3    H237864   6.281   4.571   4.868
12648TIP3   OH237865   6.914   5.170   6.374
12648TIP3    H137866   6.888   5.258   6.348
12648TIP3    H237867   6.898   5.168   6.469
12649TIP3   OH237868   6.994   4.869   4.551
12649TIP3    H137869   6.979   4.820   4.470
12649TIP3    H237870   6.966   4.958   4.531
12650TIP3   OH237871   6.457   4.612   6.377
12650TIP3    H137872   6.453   4.539   6.315
12650TIP3    H237873   6.417   4.686   6.331
12651TIP3   OH237874   6.459   4.407   6.182
12651TIP3    H137875   6.485   4.437   6.095
12651TIP3    H237876   6.369   4.374   6.170
12652TIP3   OH237877   6.496   4.943   6.062
12652TIP3    H137878   6.575   4.935   6.009
12652TIP3    H237879   6.440   5.004   6.014
12653TIP3   OH237880   7.138   4.936   6.393
12653TIP3    H137881   7.146   4.864   6.455
12653TIP3    H237882   7.214   4.992   6.411
12654TIP3   OH237883   6.347   4.687   6.628
12654TIP3    H137884   6.280   4.623   6.652
12654TIP3    H237885   6.373   4.663   6.539
12655TIP3   OH237886   6.588   4.174   6.279
12655TIP3    H137887   6.543   4.254   6.252
12655TIP3    H237888   6.522   4.105   6.272
12656TIP3   OH237889   6.716   4.648   6.464
12656TIP3    H137890   6.711   4.631   6.558
12656TIP3    H237891   6.628   4.631   6.431
12657TIP3   OH237892   6.955   4.588   6.314
12657TIP3    H137893   6.889   4.591   6.383
12657TIP3    H237894   7.038   4.580   6.360
12658TIP3   OH237895   7.199   4.563   6.447
12658TIP3    H137896   7.213   4.473   6.479
12658TIP3    H237897   7.177   4.612   6.526
12659TIP3   OH237898   6.183   4.467   6.696
12659TIP3    H137899   6.187   4.379   6.660
12659TIP3    H237900   6.223   4.459   6.783
12660TIP3   OH237901   6.680   4.175   6.538
12660TIP3    H137902   6.730   4.094   6.546
12660TIP3    H237903   6.646   4.174   6.449
12661TIP3   OH237904   6.767   4.381   6.697
12661TIP3    H137905   6.741   4.309   6.641
12661TIP3    H237906   6.693   4.442   6.695
12662TIP3   OH237907   6.018   5.624   4.805
12662TIP3    H137908   6.097   5.589   4.763
12662TIP3    H237909   5.975   5.675   4.737
12663TIP3   OH237910   5.470   5.005   4.973
12663TIP3    H137911   5.566   5.010   4.974
12663TIP3    H237912   5.451   4.923   4.928
12664TIP3   OH237913   5.378   5.581   5.426
12664TIP3    H137914   5.301   5.532   5.398
12664TIP3    H237915   5.422   5.524   5.489
12665TIP3   OH237916   5.517   5.417   5.607
12665TIP3    H137917   5.503   5.352   5.676
12665TIP3    H237918   5.569   5.485   5.648
12666TIP3   OH237919   7.253   5.826   5.424
12666TIP3    H137920   7.264   5.843   5.517
12666TIP3    H237921   7.298   5.898   5.380
12667TIP3   OH237922   7.258   5.848   5.702
12667TIP3    H137923   7.217   5.762   5.706
12667TIP3    H237924   7.331   5.843   5.764
12668TIP3   OH237925   7.318   5.555   6.289
12668TIP3    H137926   7.249   5.567   6.355
12668TIP3    H237927   7.366   5.638   6.289
12669TIP3   OH237928   7.149   5.093   4.886
12669TIP3    H137929   7.207   5.151   4.837
12669TIP3    H237930   7.134   5.137   4.969
12670TIP3   OH237931   7.326   5.334   5.515
12670TIP3    H137932   7.389   5.276   5.473
12670TIP3    H237933   7.327   5.414   5.462
12671TIP3   OH237934   7.129   5.595   5.726
12671TIP3    H137935   7.062   5.646   5.771
12671TIP3    H237936   7.085   5.561   5.648
12672TIP3   OH237937   7.191   4.856   4.744
12672TIP3    H137938   7.121   4.855   4.678
12672TIP3    H237939   7.174   4.936   4.794
12673TIP3   OH237940   7.036   4.505   4.679
12673TIP3    H137941   6.983   4.542   4.608
12673TIP3    H237942   7.031   4.411   4.666
12674TIP3   OH237943   5.694   4.852   5.990
12674TIP3    H137944   5.684   4.822   5.900
12674TIP3    H237945   5.788   4.849   6.006
12675TIP3   OH237946   7.347   5.190   6.096
12675TIP3    H137947   7.397   5.112   6.074
12675TIP3    H237948   7.318   5.225   6.011
12676TIP3   OH237949   7.485   4.947   6.079
12676TIP3    H137950   7.434   4.880   6.123
12676TIP3    H237951   7.576   4.919   6.090
12677TIP3   OH237952   6.995   4.238   4.625
12677TIP3    H137953   7.067   4.205   4.678
12677TIP3    H237954   6.917   4.194   4.659
12678TIP3   OH237955   7.049   4.490   5.083
12678TIP3    H137956   7.099   4.410   5.100
12678TIP3    H237957   7.100   4.535   5.016
12679TIP3   OH237958   7.238   4.636   5.634
12679TIP3    H137959   7.321   4.589   5.630
12679TIP3    H237960   7.248   4.696   5.708
12680TIP3   OH237961   7.315   4.812   5.832
12680TIP3    H137962   7.268   4.837   5.912
12680TIP3    H237963   7.336   4.896   5.790
12681TIP3   OH237964   5.919   4.531   6.634
12681TIP3    H137965   6.012   4.527   6.653
12681TIP3    H237966   5.883   4.450   6.671
12682TIP3   OH237967   7.741   4.434   6.381
12682TIP3    H137968   7.810   4.375   6.352
12682TIP3    H237969   7.709   4.475   6.301
12683TIP3   OH237970   7.184   4.257   5.157
12683TIP3    H137971   7.226   4.243   5.242
12683TIP3    H237972   7.123   4.184   5.148
12684TIP3   OH237973   5.914   4.228   5.965
12684TIP3    H137974   5.921   4.211   6.059
12684TIP3    H237975   5.975   4.301   5.949
12685TIP3   OH237976   5.672   4.486   6.047
12685TIP3    H137977   5.720   4.487   5.964
12685TIP3    H237978   5.687   4.573   6.084
12686TIP3   OH237979   7.591   4.531   6.170
12686TIP3    H137980   7.504   4.571   6.170
12686TIP3    H237981   7.577   4.446   6.128
12687TIP3   OH237982   7.222   4.178   4.779
12687TIP3    H137983   7.269   4.115   4.724
12687TIP3    H237984   7.283   4.251   4.790
12688TIP3   OH237985   5.638   3.998   5.544
12688TIP3    H137986   5.551   3.997   5.585
12688TIP3    H237987   5.629   4.058   5.470
12689TIP3   OH237988   6.814   5.730   5.059
12689TIP3    H137989   6.875   5.723   4.985
12689TIP3    H237990   6.847   5.804   5.110
12690TIP3   OH237991   5.877   4.091   6.365
12690TIP3    H137992   5.833   4.083   6.450
12690TIP3    H237993   5.813   4.137   6.310
12691TIP3   OH237994   5.913   5.526   6.445
12691TIP3    H137995   5.819   5.511   6.432
12691TIP3    H237996   5.925   5.516   6.539
12692TIP3   OH237997   6.124   5.579   5.994
12692TIP3    H137998   6.071   5.651   5.962
12692TIP3    H237999   6.207   5.587   5.947
12693TIP3   OH238000   6.517   5.809   6.127
12693TIP3    H138001   6.555   5.804   6.215
12693TIP3    H238002   6.577   5.864   6.077
12694TIP3   OH238003   6.707   5.968   6.007
12694TIP3    H138004   6.767   5.930   5.943
12694TIP3    H238005   6.762   6.024   6.061
12695TIP3   OH238006   7.518   4.268   6.091
12695TIP3    H138007   7.430   4.239   6.068
12695TIP3    H238008   7.572   4.189   6.086
12696TIP3   OH238009   5.785   5.805   6.045
12696TIP3    H138010   5.694   5.822   6.020
12696TIP3    H238011   5.807   5.875   6.105
12697TIP3   OH238012   6.012   5.807   5.887
12697TIP3    H138013   5.928   5.810   5.932
12697TIP3    H238014   5.992   5.835   5.797
12698TIP3   OH238015   6.433   5.825   5.686
12698TIP3    H138016   6.359   5.838   5.626
12698TIP3    H238017   6.445   5.910   5.728
12699TIP3   OH238018   6.693   5.750   5.732
12699TIP3    H138019   6.602   5.774   5.715
12699TIP3    H238020   6.745   5.815   5.685
12700TIP3   OH238021   6.892   5.921   5.629
12700TIP3    H138022   6.889   6.011   5.598
12700TIP3    H238023   6.919   5.870   5.552
12701TIP3   OH238024   5.688   5.595   5.747
12701TIP3    H138025   5.712   5.573   5.837
12701TIP3    H238026   5.761   5.562   5.694
12702TIP3   OH238027   5.893   5.475   5.614
12702TIP3    H138028   5.905   5.393   5.662
12702TIP3    H238029   5.978   5.518   5.618
12703TIP3   OH238030   6.157   5.552   5.645
12703TIP3    H138031   6.182   5.460   5.638
12703TIP3    H238032   6.214   5.588   5.712
12704TIP3   OH238033   6.734   4.224   5.732
12704TIP3    H138034   6.694   4.150   5.778
12704TIP3    H238035   6.802   4.185   5.678
12705TIP3   OH238036   7.221   4.149   5.629
12705TIP3    H138037   7.256   4.190   5.550
12705TIP3    H238038   7.126   4.150   5.616
12706TIP3   OH238039   7.337   4.211   5.386
12706TIP3    H138040   7.405   4.150   5.358
12706TIP3    H238041   7.375   4.297   5.373
12707TIP3   OH238042   5.821   3.845   5.385
12707TIP3    H138043   5.835   3.888   5.301
12707TIP3    H238044   5.760   3.902   5.432
12708TIP3   OH238045   6.447   3.951   5.623
12708TIP3    H138046   6.490   3.995   5.550
12708TIP3    H238047   6.496   3.979   5.700
12709TIP3   OH238048   6.943   4.101   5.596
12709TIP3    H138049   6.950   4.067   5.506
12709TIP3    H238050   6.947   4.023   5.651
12710TIP3   OH238051   6.997   4.051   5.160
12710TIP3    H138052   6.917   4.097   5.184
12710TIP3    H238053   6.986   3.963   5.196
12711TIP3   OH238054   5.435   5.397   5.186
12711TIP3    H138055   5.365   5.375   5.125
12711TIP3    H238056   5.408   5.482   5.223
12712TIP3   OH238057   5.899   3.960   5.133
12712TIP3    H138058   5.946   3.907   5.069
12712TIP3    H238059   5.966   4.020   5.168
12713TIP3   OH238060   6.367   4.154   5.236
12713TIP3    H138061   6.427   4.099   5.286
12713TIP3    H238062   6.387   4.243   5.266
12714TIP3   OH238063   6.248   5.519   4.700
12714TIP3    H138064   6.334   5.547   4.668
12714TIP3    H238065   6.215   5.461   4.632
12715TIP3   OH238066   6.973   5.688   4.835
12715TIP3    H138067   6.966   5.593   4.828
12715TIP3    H238068   6.927   5.721   4.757
12716TIP3   OH238069   6.180   4.197   6.602
12716TIP3    H138070   6.148   4.125   6.657
12716TIP3    H238071   6.274   4.201   6.619
12717TIP3   OH238072   6.440   4.202   6.676
12717TIP3    H138073   6.524   4.184   6.634
12717TIP3    H238074   6.451   4.175   6.767
12718TIP3   OH238075   7.259   4.300   6.514
12718TIP3    H138076   7.273   4.272   6.604
12718TIP3    H238077   7.346   4.292   6.473
12719TIP3   OH238078   7.171   5.831   6.028
12719TIP3    H138079   7.099   5.801   5.973
12719TIP3    H238080   7.163   5.926   6.030
12720TIP3   OH238081   8.422   5.225   4.778
12720TIP3    H138082   8.393   5.312   4.750
12720TIP3    H238083   8.353   5.166   4.750
12721TIP3   OH238084   8.425   5.210   5.175
12721TIP3    H138085   8.469   5.192   5.258
12721TIP3    H238086   8.385   5.127   5.151
12722TIP3   OH238087   7.758   5.070   5.550
12722TIP3    H138088   7.794   5.010   5.615
12722TIP3    H238089   7.832   5.094   5.495
12723TIP3   OH238090   8.728   5.516   4.859
12723TIP3    H138091   8.695   5.458   4.928
12723TIP3    H238092   8.754   5.595   4.905
12724TIP3   OH238093   7.745   5.492   5.210
12724TIP3    H138094   7.729   5.398   5.223
12724TIP3    H238095   7.840   5.498   5.202
12725TIP3   OH238096   7.424   4.694   5.013
12725TIP3    H138097   7.417   4.775   4.963
12725TIP3    H238098   7.348   4.643   4.986
12726TIP3   OH238099   7.431   4.947   5.230
12726TIP3    H138100   7.515   4.904   5.242
12726TIP3    H238101   7.445   5.010   5.160
12727TIP3   OH238102   8.379   5.947   4.887
12727TIP3    H138103   8.396   5.880   4.820
12727TIP3    H238104   8.395   5.902   4.970
12728TIP3   OH238105   8.255   5.433   5.196
12728TIP3    H138106   8.298   5.353   5.166
12728TIP3    H238107   8.326   5.488   5.227
12729TIP3   OH238108   0.309   4.834   5.223
12729TIP3    H138109   0.366   4.837   5.299
12729TIP3    H238110   0.368   4.843   5.148
12730TIP3   OH238111   8.653   4.918   5.242
12730TIP3    H138112   8.682   4.831   5.269
12730TIP3    H238113   8.614   4.905   5.156
12731TIP3   OH238114   8.018   4.575   5.190
12731TIP3    H138115   7.999   4.646   5.129
12731TIP3    H238116   7.969   4.500   5.157
12732TIP3   OH238117   8.657   4.651   4.880
12732TIP3    H138118   8.733   4.652   4.937
12732TIP3    H238119   8.692   4.666   4.792
12733TIP3   OH238120   7.650   4.794   5.303
12733TIP3    H138121   7.734   4.780   5.347
12733TIP3    H238122   7.655   4.738   5.225
12734TIP3   OH238123   8.057   4.990   5.131
12734TIP3    H138124   8.151   4.976   5.136
12734TIP3    H238125   8.023   4.907   5.096
12735TIP3   OH238126   0.514   4.884   5.395
12735TIP3    H138127   0.501   4.977   5.376
12735TIP3    H238128   0.586   4.882   5.458
12736TIP3   OH238129   8.007   4.580   5.632
12736TIP3    H138130   7.953   4.619   5.564
12736TIP3    H238131   7.957   4.592   5.712
12737TIP3   OH238132   8.319   5.434   4.636
12737TIP3    H138133   8.295   5.412   4.546
12737TIP3    H238134   8.271   5.515   4.654
12738TIP3   OH238135   8.102   5.351   5.412
12738TIP3    H138136   8.047   5.423   5.444
12738TIP3    H238137   8.151   5.389   5.339
12739TIP3   OH238138   8.860   4.708   5.052
12739TIP3    H138139   8.829   4.658   5.128
12739TIP3    H238140   8.889   4.791   5.089
12740TIP3   OH238141   7.887   4.689   5.407
12740TIP3    H138142   7.943   4.763   5.430
12740TIP3    H238143   7.935   4.644   5.337
12741TIP3   OH238144   7.942   5.556   5.509
12741TIP3    H138145   7.929   5.645   5.477
12741TIP3    H238146   7.864   5.538   5.563
12742TIP3   OH238147   7.322   5.265   4.757
12742TIP3    H138148   7.294   5.281   4.667
12742TIP3    H238149   7.344   5.352   4.790
12743TIP3   OH238150   8.763   5.765   5.006
12743TIP3    H138151   8.674   5.752   5.038
12743TIP3    H238152   8.759   5.846   4.955
12744TIP3   OH238153   0.135   4.621   5.284
12744TIP3    H138154   0.096   4.672   5.355
12744TIP3    H238155   0.199   4.681   5.244
12745TIP3   OH238156   8.330   4.272   5.360
12745TIP3    H138157   8.329   4.180   5.387
12745TIP3    H238158   8.253   4.311   5.402
12746TIP3   OH238159   8.450   5.795   4.666
12746TIP3    H138160   8.509   5.721   4.655
12746TIP3    H238161   8.502   5.871   4.640
12747TIP3   OH238162   8.622   5.594   4.616
12747TIP3    H138163   8.589   5.516   4.571
12747TIP3    H238164   8.663   5.560   4.695
12748TIP3   OH238165   0.073   5.654   5.351
12748TIP3    H138166   0.060   5.590   5.280
12748TIP3    H238167   0.052   5.738   5.311
12749TIP3   OH238168   8.256   5.065   4.622
12749TIP3    H138169   8.177   5.114   4.596
12749TIP3    H238170   8.308   5.060   4.542
12750TIP3   OH238171   8.242   4.871   4.297
12750TIP3    H138172   8.302   4.925   4.348
12750TIP3    H238173   8.296   4.799   4.265
12751TIP3   OH238174   0.204   5.282   5.120
12751TIP3    H138175   0.136   5.347   5.139
12751TIP3    H238176   0.258   5.324   5.053
12752TIP3   OH238177   8.607   5.166   4.588
12752TIP3    H138178   8.545   5.191   4.656
12752TIP3    H238179   8.681   5.128   4.636
12753TIP3   OH238180   8.798   5.216   5.478
12753TIP3    H138181   8.804   5.305   5.513
12753TIP3    H238182   8.708   5.208   5.447
12754TIP3   OH238183   7.852   5.118   4.986
12754TIP3    H138184   7.824   5.059   4.917
12754TIP3    H238185   7.929   5.075   5.025
12755TIP3   OH238186   8.007   5.544   5.120
12755TIP3    H138187   7.992   5.531   5.027
12755TIP3    H238188   8.095   5.508   5.135
12756TIP3   OH238189   7.962   5.122   5.356
12756TIP3    H138190   7.999   5.087   5.275
12756TIP3    H238191   8.013   5.201   5.374
12757TIP3   OH238192   8.519   5.742   5.123
12757TIP3    H138193   8.501   5.825   5.168
12757TIP3    H238194   8.501   5.675   5.189
12758TIP3   OH238195   8.141   5.656   5.676
12758TIP3    H138196   8.080   5.712   5.725
12758TIP3    H238197   8.084   5.604   5.619
12759TIP3   OH238198   8.436   5.040   4.411
12759TIP3    H138199   8.503   5.087   4.461
12759TIP3    H238200   8.457   5.058   4.319
12760TIP3   OH238201   7.902   5.220   5.817
12760TIP3    H138202   7.902   5.313   5.840
12760TIP3    H238203   7.810   5.200   5.799
12761TIP3   OH238204   8.199   5.684   4.662
12761TIP3    H138205   8.285   5.724   4.674
12761TIP3    H238206   8.149   5.748   4.611
12762TIP3   OH238207   7.927   5.810   5.763
12762TIP3    H138208   7.901   5.821   5.672
12762TIP3    H238209   7.845   5.798   5.810
12763TIP3   OH238210   0.127   4.247   4.397
12763TIP3    H138211   0.135   4.331   4.442
12763TIP3    H238212   0.121   4.271   4.304
12764TIP3   OH238213   7.745   4.959   4.773
12764TIP3    H138214   7.665   5.000   4.742
12764TIP3    H238215   7.728   4.865   4.766
12765TIP3   OH238216   8.710   5.603   4.020
12765TIP3    H138217   8.689   5.689   3.984
12765TIP3    H238218   8.802   5.590   3.998
12766TIP3   OH238219   7.523   5.372   5.723
12766TIP3    H138220   7.456   5.349   5.659
12766TIP3    H238221   7.553   5.288   5.757
12767TIP3   OH238222   7.367   5.574   5.369
12767TIP3    H138223   7.458   5.600   5.388
12767TIP3    H238224   7.316   5.651   5.393
12768TIP3   OH238225   0.269   5.987   5.381
12768TIP3    H138226   0.234   5.920   5.322
12768TIP3    H238227   0.193   6.015   5.433
12769TIP3   OH238228   8.325   5.803   5.536
12769TIP3    H138229   8.317   5.893   5.568
12769TIP3    H238230   8.261   5.754   5.587
12770TIP3   OH238231   8.104   5.896   4.492
12770TIP3    H138232   8.062   5.880   4.408
12770TIP3    H238233   8.072   5.981   4.520
12771TIP3   OH238234   7.544   5.759   4.869
12771TIP3    H138235   7.591   5.749   4.951
12771TIP3    H238236   7.496   5.677   4.858
12772TIP3   OH238237   8.308   5.836   4.118
12772TIP3    H138238   8.350   5.756   4.087
12772TIP3    H238239   8.343   5.848   4.207
12773TIP3   OH238240   8.359   5.870   4.389
12773TIP3    H138241   8.273   5.873   4.431
12773TIP3    H238242   8.418   5.838   4.458
12774TIP3   OH238243   0.070   5.167   5.731
12774TIP3    H138244   0.044   5.241   5.676
12774TIP3    H238245   0.107   5.104   5.669
12775TIP3   OH238246   7.725   5.558   5.681
12775TIP3    H138247   7.774   5.551   5.762
12775TIP3    H238248   7.652   5.497   5.691
12776TIP3   OH238249   8.097   4.360   5.489
12776TIP3    H138250   8.012   4.328   5.460
12776TIP3    H238251   8.078   4.442   5.534
12777TIP3   OH238252   8.645   4.492   5.708
12777TIP3    H138253   8.712   4.449   5.762
12777TIP3    H238254   8.562   4.469   5.750
12778TIP3   OH238255   8.795   4.955   5.583
12778TIP3    H138256   8.774   4.947   5.676
12778TIP3    H238257   8.789   5.049   5.564
12779TIP3   OH238258   8.484   5.066   4.145
12779TIP3    H138259   8.431   5.036   4.071
12779TIP3    H238260   8.573   5.073   4.110
12780TIP3   OH238261   8.229   4.398   4.461
12780TIP3    H138262   8.201   4.403   4.553
12780TIP3    H238263   8.198   4.313   4.431
12781TIP3   OH238264   8.045   4.896   5.491
12781TIP3    H138265   8.026   4.915   5.583
12781TIP3    H238266   8.022   4.976   5.444
12782TIP3   OH238267   7.923   4.771   5.022
12782TIP3    H138268   7.834   4.742   5.045
12782TIP3    H238269   7.935   4.741   4.932
12783TIP3   OH238270   8.386   4.868   4.760
12783TIP3    H138271   8.334   4.941   4.727
12783TIP3    H238272   8.429   4.832   4.683
12784TIP3   OH238273   8.590   5.112   5.826
12784TIP3    H138274   8.559   5.045   5.886
12784TIP3    H238275   8.673   5.141   5.863
12785TIP3   OH238276   8.547   4.879   4.991
12785TIP3    H138277   8.490   4.903   4.918
12785TIP3    H238278   8.584   4.795   4.965
12786TIP3   OH238279   7.875   4.893   5.729
12786TIP3    H138280   7.944   4.941   5.775
12786TIP3    H238281   7.866   4.811   5.778
12787TIP3   OH238282   7.913   4.383   4.439
12787TIP3    H138283   7.907   4.386   4.534
12787TIP3    H238284   7.837   4.432   4.408
12788TIP3   OH238285   7.467   4.438   5.312
12788TIP3    H138286   7.547   4.467   5.354
12788TIP3    H238287   7.494   4.408   5.225
12789TIP3   OH238288   7.381   4.407   4.812
12789TIP3    H138289   7.426   4.438   4.734
12789TIP3    H238290   7.318   4.475   4.833
12790TIP3   OH238291   8.552   5.114   5.401
12790TIP3    H138292   8.595   5.051   5.344
12790TIP3    H238293   8.524   5.063   5.477
12791TIP3   OH238294   8.286   4.571   5.080
12791TIP3    H138295   8.210   4.569   5.137
12791TIP3    H238296   8.360   4.552   5.138
12792TIP3   OH238297   7.688   4.637   5.083
12792TIP3    H138298   7.598   4.632   5.050
12792TIP3    H238299   7.723   4.549   5.069
12793TIP3   OH238300   7.939   4.656   4.773
12793TIP3    H138301   8.034   4.664   4.766
12793TIP3    H238302   7.906   4.673   4.684
12794TIP3   OH238303   8.695   4.648   5.281
12794TIP3    H138304   8.680   4.661   5.375
12794TIP3    H238305   8.627   4.585   5.255
12795TIP3   OH238306   7.822   4.687   4.525
12795TIP3    H138307   7.761   4.634   4.475
12795TIP3    H238308   7.877   4.730   4.459
12796TIP3   OH238309   0.021   6.356   5.485
12796TIP3    H138310   0.010   6.356   5.390
12796TIP3    H238311   0.079   6.430   5.503
12797TIP3   OH238312   7.875   5.477   5.919
12797TIP3    H138313   7.956   5.498   5.966
12797TIP3    H238314   7.806   5.481   5.985
12798TIP3   OH238315   8.328   4.939   5.172
12798TIP3    H138316   8.397   4.899   5.119
12798TIP3    H238317   8.333   4.893   5.256
12799TIP3   OH238318   7.834   4.397   5.068
12799TIP3    H138319   7.804   4.322   5.120
12799TIP3    H238320   7.864   4.358   4.985
12800TIP3   OH238321   8.309   4.834   5.435
12800TIP3    H138322   8.219   4.860   5.455
12800TIP3    H238323   8.363   4.884   5.496
12801TIP3   OH238324   8.026   5.207   4.548
12801TIP3    H138325   7.955   5.147   4.526
12801TIP3    H238326   8.004   5.240   4.636
12802TIP3   OH238327   8.905   5.470   5.155
12802TIP3    H138328   8.935   5.516   5.077
12802TIP3    H238329   8.819   5.434   5.130
12803TIP3   OH238330   8.470   4.518   4.459
12803TIP3    H138331   8.380   4.484   4.459
12803TIP3    H238332   8.459   4.612   4.475
12804TIP3   OH238333   8.456   5.528   5.584
12804TIP3    H138334   8.515   5.512   5.658
12804TIP3    H238335   8.421   5.616   5.600
12805TIP3   OH238336   8.498   4.783   4.523
12805TIP3    H138337   8.585   4.750   4.546
12805TIP3    H238338   8.514   4.861   4.470
12806TIP3   OH238339   7.725   5.204   5.221
12806TIP3    H138340   7.756   5.183   5.133
12806TIP3    H238341   7.795   5.175   5.279
12807TIP3   OH238342   8.196   5.352   4.392
12807TIP3    H138343   8.150   5.436   4.388
12807TIP3    H238344   8.139   5.297   4.446
12808TIP3   OH238345   7.622   5.157   5.871
12808TIP3    H138346   7.670   5.166   5.954
12808TIP3    H238347   7.578   5.073   5.878
12809TIP3   OH238348   8.373   5.288   5.840
12809TIP3    H138349   8.328   5.269   5.758
12809TIP3    H238350   8.457   5.242   5.833
12810TIP3   OH238351   8.591   5.803   5.453
12810TIP3    H138352   8.496   5.798   5.465
12810TIP3    H238353   8.623   5.848   5.531
12811TIP3   OH238354   0.108   4.852   4.384
12811TIP3    H138355   0.035   4.791   4.373
12811TIP3    H238356   0.073   4.937   4.357
12812TIP3   OH238357   8.721   5.669   4.293
12812TIP3    H138358   8.680   5.612   4.358
12812TIP3    H238359   8.700   5.629   4.209
12813TIP3   OH238360   8.671   5.337   5.074
12813TIP3    H138361   8.579   5.318   5.093
12813TIP3    H238362   8.708   5.253   5.047
12814TIP3   OH238363   7.872   5.551   4.872
12814TIP3    H138364   7.874   5.625   4.811
12814TIP3    H238365   7.784   5.553   4.910
12815TIP3   OH238366   7.409   4.831   4.572
12815TIP3    H138367   7.458   4.911   4.593
12815TIP3    H238368   7.333   4.834   4.630
12816TIP3   OH238369   7.939   5.297   4.786
12816TIP3    H138370   7.927   5.388   4.814
12816TIP3    H238371   7.911   5.246   4.862
12817TIP3   OH238372   8.143   5.871   5.330
12817TIP3    H138373   8.177   5.946   5.282
12817TIP3    H238374   8.218   5.841   5.383
12818TIP3   OH238375   7.779   5.775   4.723
12818TIP3    H138376   7.693   5.780   4.764
12818TIP3    H238377   7.814   5.864   4.728
12819TIP3   OH238378   8.490   5.530   5.308
12819TIP3    H138379   8.475   5.528   5.403
12819TIP3    H238380   8.579   5.497   5.297
12820TIP3   OH238381   8.484   5.395   4.166
12820TIP3    H138382   8.519   5.390   4.255
12820TIP3    H238383   8.403   5.344   4.169
12821TIP3   OH238384   8.703   6.058   5.356
12821TIP3    H138385   8.635   5.992   5.352
12821TIP3    H238386   8.692   6.110   5.276
12822TIP3   OH238387   8.673   5.857   3.933
12822TIP3    H138388   8.699   5.914   3.861
12822TIP3    H238389   8.626   5.915   3.993
12823TIP3   OH238390   7.852   4.638   5.853
12823TIP3    H138391   7.756   4.635   5.856
12823TIP3    H238392   7.880   4.583   5.926
12824TIP3   OH238393   8.600   5.389   4.423
12824TIP3    H138394   8.584   5.310   4.474
12824TIP3    H238395   8.695   5.402   4.427
12825TIP3   OH238396   7.574   5.768   5.489
12825TIP3    H138397   7.628   5.712   5.543
12825TIP3    H238398   7.586   5.856   5.525
12826TIP3   OH238399   7.837   5.383   4.186
12826TIP3    H138400   7.851   5.292   4.159
12826TIP3    H238401   7.826   5.378   4.281
12827TIP3   OH238402   7.787   5.394   4.459
12827TIP3    H138403   7.863   5.367   4.511
12827TIP3    H238404   7.786   5.489   4.466
12828TIP3   OH238405   7.514   5.077   4.665
12828TIP3    H138406   7.452   5.129   4.716
12828TIP3    H238407   7.541   5.134   4.593
12829TIP3   OH238408   8.646   4.712   5.545
12829TIP3    H138409   8.711   4.773   5.580
12829TIP3    H238410   8.646   4.638   5.606
12830TIP3   OH238411   8.537   4.444   4.724
12830TIP3    H138412   8.522   4.468   4.633
12830TIP3    H238413   8.569   4.523   4.766
12831TIP3   OH238414   8.050   5.579   4.390
12831TIP3    H138415   7.968   5.605   4.431
12831TIP3    H238416   8.077   5.655   4.339
12832TIP3   OH238417   8.217   4.661   4.828
12832TIP3    H138418   8.275   4.733   4.804
12832TIP3    H238419   8.241   4.640   4.918
12833TIP3   OH238420   8.485   4.953   5.613
12833TIP3    H138421   8.517   5.003   5.688
12833TIP3    H238422   8.538   4.874   5.611
12834TIP3   OH238423   8.371   4.354   4.920
12834TIP3    H138424   8.357   4.434   4.970
12834TIP3    H238425   8.434   4.378   4.853
12835TIP3   OH238426   7.802   5.667   4.472
12835TIP3    H138427   7.783   5.739   4.412
12835TIP3    H238428   7.794   5.706   4.559
12836TIP3   OH238429   7.895   4.381   4.718
12836TIP3    H138430   7.889   4.472   4.748
12836TIP3    H238431   7.988   4.360   4.725
12837TIP3   OH238432   0.083   4.787   5.493
12837TIP3    H138433   0.008   4.845   5.511
12837TIP3    H238434   0.160   4.844   5.504
12838TIP3   OH238435   8.766   5.080   5.012
12838TIP3    H138436   8.689   5.024   5.015
12838TIP3    H238437   8.832   5.033   5.064
12839TIP3   OH238438   7.544   5.261   4.454
12839TIP3    H138439   7.617   5.322   4.465
12839TIP3    H238440   7.575   5.200   4.386
12840TIP3   OH238441   7.436   4.550   4.587
12840TIP3    H138442   7.440   4.645   4.574
12840TIP3    H238443   7.379   4.519   4.517
12841TIP3   OH238444   8.761   6.027   4.905
12841TIP3    H138445   8.716   6.080   4.839
12841TIP3    H238446   8.853   6.052   4.896
12842TIP3   OH238447   7.831   4.279   5.460
12842TIP3    H138448   7.806   4.244   5.374
12842TIP3    H238449   7.826   4.204   5.518
12843TIP3   OH238450   7.361   5.539   4.838
12843TIP3    H138451   7.320   5.578   4.915
12843TIP3    H238452   7.320   5.583   4.764
12844TIP3   OH238453   7.574   6.071   5.927
12844TIP3    H138454   7.654   6.076   5.979
12844TIP3    H238455   7.558   5.978   5.916
12845TIP3   OH238456   8.028   5.987   5.950
12845TIP3    H138457   8.118   5.960   5.967
12845TIP3    H238458   7.997   5.927   5.882
12846TIP3   OH238459   7.992   5.584   4.077
12846TIP3    H138460   7.944   5.514   4.123
12846TIP3    H238461   8.064   5.539   4.034
12847TIP3   OH238462   8.663   5.915   5.689
12847TIP3    H138463   8.656   5.845   5.754
12847TIP3    H238464   8.734   5.971   5.722
12848TIP3   OH238465   8.416   5.611   4.009
12848TIP3    H138466   8.456   5.545   4.065
12848TIP3    H238467   8.472   5.615   3.931
12849TIP3   OH238468   7.669   5.466   6.105
12849TIP3    H138469   7.669   5.376   6.139
12849TIP3    H238470   7.584   5.476   6.062
12850TIP3   OH238471   7.659   5.072   4.294
12850TIP3    H138472   7.709   5.046   4.371
12850TIP3    H238473   7.725   5.087   4.226
12851TIP3   OH238474   8.292   5.555   5.884
12851TIP3    H138475   8.250   5.578   5.801
12851TIP3    H238476   8.334   5.470   5.867
12852TIP3   OH238477   8.219   5.285   4.128
12852TIP3    H138478   8.205   5.300   4.221
12852TIP3    H238479   8.195   5.193   4.114
12853TIP3   OH238480   8.748   5.570   5.480
12853TIP3    H138481   8.825   5.604   5.434
12853TIP3    H238482   8.684   5.641   5.476
12854TIP3   OH238483   7.789   5.184   6.093
12854TIP3    H138484   7.869   5.188   6.040
12854TIP3    H238485   7.816   5.214   6.179
12855TIP3   OH238486   7.832   5.015   4.505
12855TIP3    H138487   7.821   4.984   4.595
12855TIP3    H238488   7.882   4.946   4.461
12856TIP3   OH238489   8.107   5.057   5.735
12856TIP3    H138490   8.044   5.122   5.767
12856TIP3    H238491   8.170   5.108   5.684
12857TIP3   OH238492   7.969   4.834   4.345
12857TIP3    H138493   7.940   4.836   4.254
12857TIP3    H238494   8.064   4.842   4.339
12858TIP3   OH238495   8.647   5.465   5.872
12858TIP3    H138496   8.742   5.473   5.871
12858TIP3    H238497   8.628   5.411   5.948
12859TIP3   OH238498   8.730   5.057   4.027
12859TIP3    H138499   8.811   5.026   3.985
12859TIP3    H238500   8.760   5.124   4.089
12860TIP3   OH238501   8.245   4.863   5.873
12860TIP3    H138502   8.258   4.790   5.813
12860TIP3    H238503   8.206   4.932   5.819
12861TIP3   OH238504   8.264   4.667   5.670
12861TIP3    H138505   8.296   4.699   5.585
12861TIP3    H238506   8.175   4.638   5.653
12862TIP3   OH238507   8.274   5.220   5.587
12862TIP3    H138508   8.357   5.221   5.539
12862TIP3    H238509   8.214   5.271   5.531
12863TIP3   OH238510   8.837   5.125   5.965
12863TIP3    H138511   8.872   5.039   5.988
12863TIP3    H238512   8.889   5.152   5.889
12864TIP3   OH238513   0.026   5.422   5.625
12864TIP3    H138514  -0.041   5.480   5.590
12864TIP3    H238515   0.109   5.462   5.599
12865TIP3   OH238516   8.128   4.946   6.114
12865TIP3    H138517   8.068   4.874   6.133
12865TIP3    H238518   8.164   4.926   6.028
12866TIP3   OH238519   8.379   4.437   5.775
12866TIP3    H138520   8.340   4.517   5.740
12866TIP3    H238521   8.313   4.369   5.760
12867TIP3   OH238522   8.503   4.899   5.972
12867TIP3    H138523   8.498   4.889   6.067
12867TIP3    H238524   8.414   4.882   5.942
12868TIP3   OH238525   8.729   4.833   5.820
12868TIP3    H138526   8.651   4.841   5.875
12868TIP3    H238527   8.802   4.839   5.881
12869TIP3   OH238528   0.042   4.850   5.993
12869TIP3    H138529   0.045   4.755   6.000
12869TIP3    H238530   0.052   4.881   6.083
12870TIP3   OH238531   7.967   4.732   6.188
12870TIP3    H138532   7.973   4.646   6.147
12870TIP3    H238533   8.007   4.721   6.274
12871TIP3   OH238534   8.437   4.413   6.040
12871TIP3    H138535   8.501   4.343   6.037
12871TIP3    H238536   8.411   4.426   5.949
12872TIP3   OH238537   8.539   4.625   6.184
12872TIP3    H138538   8.509   4.553   6.128
12872TIP3    H238539   8.467   4.688   6.182
12873TIP3   OH238540   7.798   5.877   4.290
12873TIP3    H138541   7.888   5.856   4.266
12873TIP3    H238542   7.763   5.921   4.213
12874TIP3   OH238543   7.271   5.264   4.475
12874TIP3    H138544   7.366   5.274   4.467
12874TIP3    H238545   7.253   5.180   4.432
12875TIP3   OH238546   7.169   5.853   4.931
12875TIP3    H138547   7.105   5.797   4.887
12875TIP3    H238548   7.213   5.795   4.993
12876TIP3   OH238549   7.313   5.683   5.097
12876TIP3    H138550   7.302   5.615   5.163
12876TIP3    H238551   7.370   5.748   5.138
12877TIP3   OH238552   0.114   6.131   4.879
12877TIP3    H138553   0.126   6.134   4.974
12877TIP3    H238554   0.201   6.147   4.843
12878TIP3   OH238555   0.126   6.122   5.155
12878TIP3    H138556   0.099   6.031   5.166
12878TIP3    H238557   0.209   6.128   5.203
12879TIP3   OH238558  -0.030   5.398   4.437
12879TIP3    H138559   0.051   5.423   4.392
12879TIP3    H238560  -0.004   5.384   4.528
12880TIP3   OH238561   0.098   5.324   4.678
12880TIP3    H138562   0.100   5.237   4.639
12880TIP3    H238563   0.044   5.313   4.757
12881TIP3   OH238564   0.142   5.578   4.948
12881TIP3    H138565   0.211   5.518   4.922
12881TIP3    H238566   0.141   5.645   4.880
12882TIP3   OH238567   8.882   5.882   5.234
12882TIP3    H138568   8.815   5.934   5.278
12882TIP3    H238569   8.837   5.847   5.157
12883TIP3   OH238570   0.106   5.079   4.205
12883TIP3    H138571   0.133   5.057   4.116
12883TIP3    H238572   0.184   5.118   4.245
12884TIP3   OH238573   8.717   4.924   4.306
12884TIP3    H138574   8.717   5.020   4.299
12884TIP3    H238575   8.727   4.894   4.216
12885TIP3   OH238576   8.804   5.064   4.742
12885TIP3    H138577   8.848   4.979   4.733
12885TIP3    H238578   8.797   5.077   4.836
12886TIP3   OH238579   7.512   5.136   5.460
12886TIP3    H138580   7.535   5.141   5.368
12886TIP3    H238581   7.595   5.119   5.504
12887TIP3   OH238582   0.400   5.233   5.586
12887TIP3    H138583   0.377   5.247   5.677
12887TIP3    H238584   0.480   5.284   5.573
12888TIP3   OH238585   8.720   4.504   4.121
12888TIP3    H138586   8.765   4.481   4.202
12888TIP3    H238587   8.637   4.457   4.126
12889TIP3   OH238588   0.024   4.832   4.652
12889TIP3    H138589   0.077   4.769   4.702
12889TIP3    H238590   0.071   4.843   4.570
12890TIP3   OH238591   0.061   4.936   5.159
12890TIP3    H138592   0.151   4.904   5.172
12890TIP3    H238593   0.043   4.988   5.237
12891TIP3   OH238594   0.123   5.135   5.344
12891TIP3    H138595   0.044   5.169   5.386
12891TIP3    H238596   0.136   5.192   5.268
12892TIP3   OH238597   7.702   4.777   6.110
12892TIP3    H138598   7.794   4.782   6.135
12892TIP3    H238599   7.672   4.695   6.148
12893TIP3   OH238600   0.045   4.544   4.736
12893TIP3    H138601   0.118   4.525   4.677
12893TIP3    H238602   0.043   4.470   4.797
12894TIP3   OH238603   7.680   4.509   5.488
12894TIP3    H138604   7.730   4.428   5.488
12894TIP3    H238605   7.744   4.576   5.462
12895TIP3   OH238606   7.454   4.817   5.496
12895TIP3    H138607   7.537   4.795   5.454
12895TIP3    H238608   7.478   4.838   5.587
12896TIP3   OH238609   0.559   4.957   5.745
12896TIP3    H138610   0.478   4.907   5.738
12896TIP3    H238611   0.582   4.952   5.838
12897TIP3   OH238612   7.454   4.301   5.053
12897TIP3    H138613   7.368   4.273   5.084
12897TIP3    H238614   7.437   4.342   4.969
12898TIP3   OH238615   8.571   6.013   4.563
12898TIP3    H138616   8.621   5.995   4.484
12898TIP3    H238617   8.625   6.075   4.613
12899TIP3   OH238618   7.669   4.361   5.867
12899TIP3    H138619   7.616   4.330   5.941
12899TIP3    H238620   7.606   4.374   5.796
12900TIP3   OH238621   7.700   5.790   5.927
12900TIP3    H138622   7.607   5.773   5.917
12900TIP3    H238623   7.717   5.779   6.021
12901TIP3   OH238624   7.915   5.832   5.479
12901TIP3    H138625   7.866   5.908   5.448
12901TIP3    H238626   8.001   5.840   5.437
12902TIP3   OH238627   8.310   6.069   5.618
12902TIP3    H138628   8.350   6.054   5.703
12902TIP3    H238629   8.375   6.120   5.569
12903TIP3   OH238630   8.504   6.214   5.489
12903TIP3    H138631   8.572   6.160   5.448
12903TIP3    H238632   8.552   6.274   5.546
12904TIP3   OH238633   0.367   4.622   5.470
12904TIP3    H138634   0.283   4.576   5.466
12904TIP3    H238635   0.421   4.570   5.529
12905TIP3   OH238636   7.575   6.067   5.526
12905TIP3    H138637   7.484   6.085   5.501
12905TIP3    H238638   7.596   6.134   5.591
12906TIP3   OH238639   7.807   6.064   5.377
12906TIP3    H138640   7.724   6.069   5.423
12906TIP3    H238641   7.785   6.089   5.287
12907TIP3   OH238642   8.212   6.084   5.169
12907TIP3    H138643   8.142   6.100   5.105
12907TIP3    H238644   8.226   6.169   5.210
12908TIP3   OH238645   8.471   6.001   5.197
12908TIP3    H138646   8.380   6.029   5.186
12908TIP3    H238647   8.522   6.071   5.158
12909TIP3   OH238648   8.665   6.182   5.112
12909TIP3    H138649   8.672   6.273   5.081
12909TIP3    H238650   8.700   6.129   5.041
12910TIP3   OH238651   7.494   5.853   5.234
12910TIP3    H138652   7.513   5.831   5.325
12910TIP3    H238653   7.567   5.818   5.185
12911TIP3   OH238654   7.696   5.734   5.097
12911TIP3    H138655   7.706   5.650   5.142
12911TIP3    H238656   7.782   5.776   5.104
12912TIP3   OH238657   7.960   5.822   5.126
12912TIP3    H138658   7.982   5.730   5.112
12912TIP3    H238659   8.014   5.847   5.201
12913TIP3   OH238660   8.502   4.454   5.212
12913TIP3    H138661   8.463   4.380   5.257
12913TIP3    H238662   8.574   4.416   5.161
12914TIP3   OH238663   0.077   4.379   5.180
12914TIP3    H138664   0.103   4.469   5.198
12914TIP3    H238665  -0.014   4.385   5.152
12915TIP3   OH238666   7.754   4.175   5.216
12915TIP3    H138667   7.665   4.139   5.223
12915TIP3    H238668   7.810   4.097   5.205
12916TIP3   OH238669   7.583   4.095   4.878
12916TIP3    H138670   7.611   4.136   4.796
12916TIP3    H238671   7.554   4.167   4.933
12917TIP3   OH238672   8.212   4.224   5.109
12917TIP3    H138673   8.263   4.269   5.042
12917TIP3    H238674   8.257   4.244   5.191
12918TIP3   OH238675   8.726   4.353   5.069
12918TIP3    H138676   8.721   4.324   4.978
12918TIP3    H238677   8.701   4.276   5.120
12919TIP3   OH238678   8.764   4.306   4.642
12919TIP3    H138679   8.683   4.343   4.679
12919TIP3    H238680   8.761   4.214   4.667
12920TIP3   OH238681   7.247   5.665   4.619
12920TIP3    H138682   7.165   5.628   4.586
12920TIP3    H238683   7.250   5.754   4.584
12921TIP3   OH238684   7.690   4.209   4.637
12921TIP3    H138685   7.732   4.145   4.580
12921TIP3    H238686   7.762   4.263   4.670
12922TIP3   OH238687   8.170   4.409   4.730
12922TIP3    H138688   8.226   4.356   4.786
12922TIP3    H238689   8.187   4.500   4.757
12923TIP3   OH238690   8.055   5.806   4.222
12923TIP3    H138691   8.138   5.835   4.184
12923TIP3    H238692   8.025   5.735   4.165
12924TIP3   OH238693   8.700   5.942   4.333
12924TIP3    H138694   8.710   5.847   4.323
12924TIP3    H238695   8.678   5.973   4.246
12925TIP3   OH238696   7.981   4.466   6.086
12925TIP3    H138697   7.946   4.401   6.147
12925TIP3    H238698   8.074   4.474   6.110
12926TIP3   OH238699   8.226   4.467   6.213
12926TIP3    H138700   8.303   4.445   6.160
12926TIP3    H238701   8.223   4.399   6.280
12927TIP3   OH238702   7.369   5.648   4.282
12927TIP3    H138703   7.372   5.654   4.378
12927TIP3    H238704   7.449   5.601   4.258
12928TIP3   OH238705   0.070   4.578   6.027
12928TIP3    H138706   0.082   4.546   6.116
12928TIP3    H238707   0.158   4.584   5.991
12929TIP3   OH238708   0.043   6.080   5.505
12929TIP3    H138709  -0.042   6.061   5.465
12929TIP3    H238710   0.046   6.176   5.510
12930TIP3   OH238711   0.333   4.974   4.481
12930TIP3    H138712   0.288   5.058   4.475
12930TIP3    H238713   0.275   4.912   4.437
12931TIP3   OH238714   0.212   5.473   4.334
12931TIP3    H138715   0.242   5.443   4.248
12931TIP3    H238716   0.182   5.562   4.320
12932TIP3   OH238717   0.364   5.686   5.234
12932TIP3    H138718   0.425   5.663   5.164
12932TIP3    H238719   0.365   5.610   5.293
12933TIP3   OH238720   0.203   5.807   4.799
12933TIP3    H138721   0.282   5.784   4.751
12933TIP3    H238722   0.234   5.844   4.881
12934TIP3   OH238723   0.408   5.440   5.347
12934TIP3    H138724   0.483   5.413   5.399
12934TIP3    H238725   0.414   5.388   5.267
12935TIP3   OH238726   0.458   5.963   4.960
12935TIP3    H138727   0.501   5.901   5.020
12935TIP3    H238728   0.412   6.024   5.018
12936TIP3   OH238729   0.392   5.807   4.323
12936TIP3    H138730   0.393   5.874   4.392
12936TIP3    H238731   0.346   5.849   4.250
12937TIP3   OH238732   0.359   6.264   5.364
12937TIP3    H138733   0.452   6.280   5.382
12937TIP3    H238734   0.345   6.172   5.387
12938TIP3   OH238735   0.063   5.538   3.954
12938TIP3    H138736   0.137   5.587   3.989
12938TIP3    H238737   0.075   5.449   3.989
12939TIP3   OH238738   0.017   6.102   4.395
12939TIP3    H138739  -0.050   6.045   4.357
12939TIP3    H238740   0.042   6.060   4.477
12940TIP3   OH238741   0.086   5.999   4.637
12940TIP3    H138742   0.105   5.915   4.681
12940TIP3    H238743   0.077   6.062   4.709
12941TIP3   OH238744   0.338   5.383   4.892
12941TIP3    H138745   0.319   5.322   4.821
12941TIP3    H238746   0.409   5.438   4.858
12942TIP3   OH238747   0.317   5.048   4.997
12942TIP3    H138748   0.407   5.075   4.981
12942TIP3    H238749   0.279   5.120   5.047
12943TIP3   OH238750   0.657   6.049   5.536
12943TIP3    H138751   0.593   5.981   5.518
12943TIP3    H238752   0.670   6.045   5.631
12944TIP3   OH238753   0.400   6.230   5.062
12944TIP3    H138754   0.325   6.271   5.019
12944TIP3    H238755   0.437   6.299   5.117
12945TIP3   OH238756   0.369   6.141   4.775
12945TIP3    H138757   0.401   6.073   4.834
12945TIP3    H238758   0.441   6.154   4.713
12946TIP3   OH238759   0.244   5.954   4.152
12946TIP3    H138760   0.150   5.946   4.138
12946TIP3    H238761   0.269   6.033   4.103
12947TIP3   OH238762   0.119   5.906   3.836
12947TIP3    H138763   0.103   5.988   3.881
12947TIP3    H238764   0.183   5.860   3.890
12948TIP3   OH238765   0.876   6.032   6.436
12948TIP3    H138766   0.852   6.052   6.526
12948TIP3    H238767   0.807   5.973   6.405
12949TIP3   OH238768   0.932   5.973   6.848
12949TIP3    H138769   0.975   5.967   6.934
12949TIP3    H238770   0.886   5.889   6.839
12950TIP3   OH238771   0.824   6.777   6.554
12950TIP3    H138772   0.870   6.700   6.519
12950TIP3    H238773   0.842   6.775   6.648
12951TIP3   OH238774   0.763   6.162   6.968
12951TIP3    H138775   0.801   6.102   6.904
12951TIP3    H238776   0.819   6.239   6.965
12952TIP3   OH238777   1.751   5.536   6.891
12952TIP3    H138778   1.767   5.621   6.930
12952TIP3    H238779   1.780   5.545   6.800
12953TIP3   OH238780   1.141   5.713   6.919
12953TIP3    H138781   1.176   5.627   6.945
12953TIP3    H238782   1.091   5.695   6.840
12954TIP3   OH238783   1.182   5.467   6.507
12954TIP3    H138784   1.244   5.461   6.579
12954TIP3    H238785   1.234   5.498   6.433
12955TIP3   OH238786   1.806   5.756   7.057
12955TIP3    H138787   1.718   5.794   7.052
12955TIP3    H238788   1.843   5.791   7.138
12956TIP3   OH238789   0.847   6.223   6.225
12956TIP3    H138790   0.771   6.195   6.173
12956TIP3    H238791   0.818   6.302   6.269
12957TIP3   OH238792   1.334   5.494   6.730
12957TIP3    H138793   1.296   5.470   6.814
12957TIP3    H238794   1.395   5.565   6.751
12958TIP3   OH238795   1.238   6.555   6.685
12958TIP3    H138796   1.150   6.532   6.717
12958TIP3    H238797   1.228   6.644   6.651
12959TIP3   OH238798   1.553   5.428   7.063
12959TIP3    H138799   1.468   5.451   7.026
12959TIP3    H238800   1.616   5.453   6.995
12960TIP3   OH238801   0.844   5.054   7.049
12960TIP3    H138802   0.836   4.961   7.068
12960TIP3    H238803   0.767   5.094   7.091
12961TIP3   OH238804   0.966   6.568   6.430
12961TIP3    H138805   1.040   6.531   6.478
12961TIP3    H238806   1.006   6.618   6.359
12962TIP3   OH238807   1.467   6.426   7.031
12962TIP3    H138808   1.452   6.357   6.967
12962TIP3    H238809   1.451   6.507   6.982
12963TIP3   OH238810   0.729   5.846   6.296
12963TIP3    H138811   0.640   5.824   6.271
12963TIP3    H238812   0.780   5.837   6.215
12964TIP3   OH238813   0.739   5.632   5.990
12964TIP3    H138814   0.795   5.690   6.041
12964TIP3    H238815   0.799   5.568   5.951
12965TIP3   OH238816   1.636   6.099   6.896
12965TIP3    H138817   1.551   6.142   6.894
12965TIP3    H238818   1.671   6.111   6.808
12966TIP3   OH238819   1.088   5.914   6.309
12966TIP3    H138820   1.048   5.878   6.388
12966TIP3    H238821   1.181   5.893   6.318
12967TIP3   OH238822   1.324   5.959   7.187
12967TIP3    H138823   1.324   6.039   7.239
12967TIP3    H238824   1.241   5.962   7.139
12968TIP3   OH238825   0.985   6.518   6.781
12968TIP3    H138826   0.953   6.605   6.805
12968TIP3    H238827   0.963   6.463   6.856
12969TIP3   OH238828   0.930   5.804   6.107
12969TIP3    H138829   0.997   5.846   6.161
12969TIP3    H238830   0.956   5.823   6.017
12970TIP3   OH238831   0.738   6.447   6.344
12970TIP3    H138832   0.812   6.492   6.384
12970TIP3    H238833   0.663   6.471   6.399
12971TIP3   OH238834   1.439   5.017   6.152
12971TIP3    H138835   1.362   5.039   6.204
12971TIP3    H238836   1.450   5.092   6.094
12972TIP3   OH238837   1.266   6.399   5.702
12972TIP3    H138838   1.262   6.490   5.673
12972TIP3    H238839   1.356   6.372   5.680
12973TIP3   OH238840   1.696   6.814   7.089
12973TIP3    H138841   1.701   6.719   7.099
12973TIP3    H238842   1.609   6.837   7.123
12974TIP3   OH238843   0.791   6.629   5.807
12974TIP3    H138844   0.843   6.554   5.778
12974TIP3    H238845   0.806   6.634   5.901
12975TIP3   OH238846   0.838   6.668   6.083
12975TIP3    H138847   0.781   6.617   6.140
12975TIP3    H238848   0.917   6.683   6.135
12976TIP3   OH238849   7.492   1.722   0.112
12976TIP3    H138850   7.425   1.726   0.043
12976TIP3    H238851   7.521   1.631   0.111
12977TIP3   OH238852   7.044   1.080   0.115
12977TIP3    H138853   7.112   1.055   0.177
12977TIP3    H238854   6.962   1.061   0.161
12978TIP3   OH238855   7.269   1.501   0.007
12978TIP3    H138856   7.228   1.495   0.093
12978TIP3    H238857   7.248   1.590  -0.023
12979TIP3   OH238858   1.018   5.846   5.858
12979TIP3    H138859   0.967   5.816   5.783
12979TIP3    H238860   1.104   5.866   5.822
12980TIP3   OH238861   0.805   5.185   6.198
12980TIP3    H138862   0.730   5.232   6.235
12980TIP3    H238863   0.765   5.114   6.146
12981TIP3   OH238864   0.889   5.672   6.439
12981TIP3    H138865   0.824   5.727   6.396
12981TIP3    H238866   0.937   5.631   6.367
12982TIP3   OH238867   7.019   1.703   0.227
12982TIP3    H138868   6.981   1.640   0.289
12982TIP3    H238869   7.112   1.706   0.250
12983TIP3   OH238870   1.035   5.643   6.670
12983TIP3    H138871   0.974   5.668   6.601
12983TIP3    H238872   1.085   5.570   6.633
12984TIP3   OH238873   0.373   5.109   6.168
12984TIP3    H138874   0.323   5.038   6.210
12984TIP3    H238875   0.308   5.177   6.153
12985TIP3   OH238876   1.057   5.906   7.090
12985TIP3    H138877   1.092   5.843   7.026
12985TIP3    H238878   1.028   5.851   7.163
12986TIP3   OH238879   0.792   5.372   6.763
12986TIP3    H138880   0.717   5.377   6.822
12986TIP3    H238881   0.865   5.345   6.818
12987TIP3   OH238882   0.463   5.555   6.519
12987TIP3    H138883   0.552   5.520   6.510
12987TIP3    H238884   0.407   5.490   6.476
12988TIP3   OH238885   1.201   5.444   6.969
12988TIP3    H138886   1.182   5.460   7.062
12988TIP3    H238887   1.136   5.379   6.943
12989TIP3   OH238888   1.401   7.148   7.151
12989TIP3    H138889   1.404   7.167   7.057
12989TIP3    H238890   1.477   7.194   7.187
12990TIP3   OH238891   0.836   5.714   6.872
12990TIP3    H138892   0.877   5.655   6.808
12990TIP3    H238893   0.822   5.659   6.949
12991TIP3   OH238894   0.774   5.636   7.147
12991TIP3    H138895   0.721   5.714   7.132
12991TIP3    H238896   0.851   5.668   7.194
12992TIP3   OH238897   1.401   6.232   6.852
12992TIP3    H138898   1.427   6.283   6.775
12992TIP3    H238899   1.322   6.186   6.825
12993TIP3   OH238900   1.003   5.332   6.101
12993TIP3    H138901   0.927   5.286   6.136
12993TIP3    H238902   1.008   5.413   6.152
12994TIP3   OH238903   6.875   2.114   0.014
12994TIP3    H138904   6.918   2.072   0.089
12994TIP3    H238905   6.784   2.125   0.042
12995TIP3   OH238906   1.043   5.572   6.230
12995TIP3    H138907   1.139   5.569   6.238
12995TIP3    H238908   1.027   5.638   6.163
12996TIP3   OH238909   0.624   6.150   6.088
12996TIP3    H138910   0.572   6.208   6.032
12996TIP3    H238911   0.560   6.089   6.124
12997TIP3   OH238912   6.785   1.855   0.211
12997TIP3    H138913   6.749   1.851   0.122
12997TIP3    H238914   6.870   1.812   0.204
12998TIP3   OH238915   1.070   6.613   7.107
12998TIP3    H138916   1.019   6.535   7.085
12998TIP3    H238917   1.079   6.610   7.202
12999TIP3   OH238918   1.441   5.656   6.042
12999TIP3    H138919   1.378   5.614   5.982
12999TIP3    H238920   1.451   5.744   6.007
13000TIP3   OH238921   1.705   6.537   7.119
13000TIP3    H138922   1.613   6.512   7.127
13000TIP3    H238923   1.732   6.503   7.034
13001TIP3   OH238924   1.178   6.457   5.956
13001TIP3    H138925   1.184   6.375   6.006
13001TIP3    H238926   1.205   6.433   5.868
13002TIP3   OH238927   1.187   6.075   6.771
13002TIP3    H138928   1.095   6.057   6.790
13002TIP3    H238929   1.218   5.996   6.727
13003TIP3   OH238930   0.976   6.345   7.010
13003TIP3    H138931   0.957   6.328   7.103
13003TIP3    H238932   1.066   6.314   6.998
13004TIP3   OH238933   0.952   6.204   5.891
13004TIP3    H138934   0.909   6.269   5.947
13004TIP3    H238935   0.880   6.150   5.858
13005TIP3   OH238936   1.219   6.814   6.995
13005TIP3    H138937   1.155   6.749   7.025
13005TIP3    H238938   1.170   6.869   6.934
13006TIP3   OH238939   1.261   6.670   5.655
13006TIP3    H138940   1.275   6.728   5.580
13006TIP3    H238941   1.193   6.712   5.706
13007TIP3   OH238942   1.102   6.126   6.118
13007TIP3    H138943   1.064   6.140   6.032
13007TIP3    H238944   1.196   6.121   6.102
13008TIP3   OH238945   1.143   5.499   7.230
13008TIP3    H138946   1.222   5.543   7.261
13008TIP3    H238947   1.133   5.423   7.288
13009TIP3   OH238948   1.036   5.248   6.419
13009TIP3    H138949   1.000   5.270   6.333
13009TIP3    H238950   1.079   5.328   6.448
13010TIP3   OH238951   0.727   5.456   6.511
13010TIP3    H138952   0.781   5.532   6.488
13010TIP3    H238953   0.750   5.438   6.602
13011TIP3   OH238954   6.924   1.532   0.019
13011TIP3    H138955   6.953   1.576   0.100
13011TIP3    H238956   6.976   1.452   0.016
13012TIP3   OH238957   0.851   5.148   6.596
13012TIP3    H138958   0.831   5.229   6.642
13012TIP3    H238959   0.917   5.172   6.531
13013TIP3   OH238960   0.314   5.094   6.494
13013TIP3    H138961   0.342   5.177   6.455
13013TIP3    H238962   0.395   5.047   6.511
13014TIP3   OH238963   1.600   5.648   7.277
13014TIP3    H138964   1.505   5.656   7.280
13014TIP3    H238965   1.617   5.593   7.200
13015TIP3   OH238966   1.261   5.826   6.657
13015TIP3    H138967   1.187   5.769   6.678
13015TIP3    H238968   1.332   5.794   6.713
13016TIP3   OH238969   1.243   6.817   6.603
13016TIP3    H138970   1.203   6.855   6.524
13016TIP3    H238971   1.337   6.828   6.590
13017TIP3   OH238972   0.486   6.277   5.891
13017TIP3    H138973   0.396   6.298   5.867
13017TIP3    H238974   0.539   6.310   5.819
13018TIP3   OH238975   6.988   2.513   0.121
13018TIP3    H138976   6.993   2.423   0.155
13018TIP3    H238977   7.079   2.542   0.116
13019TIP3   OH238978   0.920   6.415   5.690
13019TIP3    H138979   0.966   6.345   5.738
13019TIP3    H238980   0.960   6.414   5.603
13020TIP3   OH238981   0.717   6.084   5.809
13020TIP3    H138982   0.650   6.109   5.872
13020TIP3    H238983   0.718   5.988   5.811
13021TIP3   OH238984   1.233   6.317   7.133
13021TIP3    H138985   1.310   6.356   7.092
13021TIP3    H238986   1.203   6.383   7.195
13022TIP3   OH238987   0.515   5.763   6.148
13022TIP3    H138988   0.423   5.751   6.127
13022TIP3    H238989   0.559   5.691   6.103
13023TIP3   OH238990   7.056   2.040   0.236
13023TIP3    H138991   7.127   1.999   0.187
13023TIP3    H238992   7.049   1.989   0.317
13024TIP3   OH238993   1.248   5.914   5.720
13024TIP3    H138994   1.238   5.870   5.636
13024TIP3    H238995   1.218   6.003   5.705
13025TIP3   OH238996   6.667   1.410   0.284
13025TIP3    H138997   6.662   1.341   0.218
13025TIP3    H238998   6.596   1.470   0.262
13026TIP3   OH238999   6.635   1.241   0.060
13026TIP3    H139000   6.671   1.301  -0.006
13026TIP3    H239001   6.545   1.225   0.031
13027TIP3   OH239002   0.807   6.027   7.205
13027TIP3    H139003   0.893   6.006   7.169
13027TIP3    H239004   0.763   6.076   7.136
13028TIP3   OH239005   7.286   1.714   0.325
13028TIP3    H139006   7.313   1.631   0.364
13028TIP3    H239007   7.360   1.740   0.270
13029TIP3   OH239008   7.284   1.991   0.076
13029TIP3    H139009   7.235   2.040   0.010
13029TIP3    H239010   7.376   2.004   0.052
13030TIP3   OH239011   6.768   1.017   0.159
13030TIP3    H139012   6.730   1.099   0.129
13030TIP3    H239013   6.699   0.952   0.146
13031TIP3   OH239014   6.919   1.487   0.368
13031TIP3    H139015   6.908   1.490   0.463
13031TIP3    H239016   6.834   1.457   0.335
13032TIP3   OH239017   7.156   1.435   0.240
13032TIP3    H139018   7.079   1.438   0.296
13032TIP3    H239019   7.228   1.411   0.300
13033TIP3   OH239020   7.389   1.400   0.389
13033TIP3    H139021   7.403   1.306   0.399
13033TIP3    H239022   7.381   1.433   0.478
13034TIP3   OH239023   6.854   1.007   0.419
13034TIP3    H139024   6.917   0.934   0.418
13034TIP3    H239025   6.818   1.008   0.331
13035TIP3   OH239026   6.952   1.206   0.581
13035TIP3    H139027   6.919   1.135   0.525
13035TIP3    H239028   6.879   1.269   0.584
13036TIP3   OH239029   1.511   6.864   6.584
13036TIP3    H139030   1.534   6.892   6.673
13036TIP3    H239031   1.569   6.915   6.527
13037TIP3   OH239032   1.537   6.896   6.858
13037TIP3    H139033   1.494   6.810   6.859
13037TIP3    H239034   1.609   6.887   6.921
13038TIP3   OH239035   7.467   2.307   0.128
13038TIP3    H139036   7.384   2.316   0.174
13038TIP3    H239037   7.499   2.397   0.117
13039TIP3   OH239038   1.380   6.124   6.069
13039TIP3    H139039   1.439   6.189   6.031
13039TIP3    H239040   1.432   6.082   6.138
13040TIP3   OH239041   1.526   5.979   6.256
13040TIP3    H139042   1.467   5.932   6.315
13040TIP3    H239043   1.596   6.011   6.312
13041TIP3   OH239044   1.579   6.378   6.690
13041TIP3    H139045   1.631   6.309   6.649
13041TIP3    H239046   1.580   6.449   6.627
13042TIP3   OH239047   1.408   6.650   6.879
13042TIP3    H139048   1.337   6.699   6.921
13042TIP3    H239049   1.366   6.607   6.805
13043TIP3   OH239050   1.441   5.898   5.912
13043TIP3    H139051   1.376   5.896   5.843
13043TIP3    H239052   1.419   5.976   5.964
13044TIP3   OH239053   1.268   5.553   5.860
13044TIP3    H139054   1.240   5.582   5.773
13044TIP3    H239055   1.269   5.458   5.855
13045TIP3   OH239056   1.335   5.821   6.391
13045TIP3    H139057   1.348   5.728   6.372
13045TIP3    H239058   1.321   5.825   6.486
13046TIP3   OH239059   1.601   6.229   7.249
13046TIP3    H139060   1.670   6.170   7.217
13046TIP3    H239061   1.598   6.299   7.183
13047TIP3   OH239062   1.781   6.024   7.239
13047TIP3    H139063   1.709   5.987   7.291
13047TIP3    H239064   1.857   5.971   7.264
13048TIP3   OH239065   1.253   5.285   5.825
13048TIP3    H139066   1.326   5.248   5.876
13048TIP3    H239067   1.179   5.226   5.843
13049TIP3   OH239068   1.325   5.554   6.277
13049TIP3    H139069   1.368   5.469   6.291
13049TIP3    H239070   1.368   5.590   6.199
13050TIP3   OH239071   1.476   5.722   6.803
13050TIP3    H139072   1.557   5.740   6.756
13050TIP3    H239073   1.490   5.761   6.889
13051TIP3   OH239074   1.548   5.873   7.030
13051TIP3    H139075   1.469   5.901   7.076
13051TIP3    H239076   1.580   5.951   6.987
13052TIP3   OH239077   7.943   1.274   0.297
13052TIP3    H139078   8.007   1.217   0.254
13052TIP3    H239079   7.903   1.322   0.225
13053TIP3   OH239080   1.432   5.304   6.334
13053TIP3    H139081   1.477   5.289   6.417
13053TIP3    H239082   1.372   5.230   6.325
13054TIP3   OH239083   7.789   1.384   0.102
13054TIP3    H139084   7.705   1.426   0.120
13054TIP3    H239085   7.766   1.307   0.050
13055TIP3   OH239086   1.484   5.215   5.966
13055TIP3    H139087   1.534   5.154   5.912
13055TIP3    H239088   1.539   5.293   5.970
13056TIP3   OH239089   1.067   6.725   6.231
13056TIP3    H139090   1.127   6.728   6.156
13056TIP3    H239091   1.091   6.801   6.284
13057TIP3   OH239092   0.929   6.903   7.075
13057TIP3    H139093   1.010   6.904   7.126
13057TIP3    H239094   0.885   6.985   7.097
13058TIP3   OH239095   1.768   5.336   7.264
13058TIP3    H139096   1.682   5.330   7.223
13058TIP3    H239097   1.804   5.247   7.258
13059TIP3   OH239098   0.928   6.790   6.823
13059TIP3    H139099   0.904   6.811   6.913
13059TIP3    H239100   0.986   6.861   6.796
13060TIP3   OH239101   1.135   6.987   6.788
13060TIP3    H139102   1.132   7.073   6.747
13060TIP3    H239103   1.174   6.930   6.721
13061TIP3   OH239104   0.997   5.255   6.904
13061TIP3    H139105   0.960   5.182   6.954
13061TIP3    H239106   1.063   5.214   6.848
13062TIP3   OH239107   1.477   5.182   6.800
13062TIP3    H139108   1.514   5.228   6.724
13062TIP3    H239109   1.382   5.195   6.792
13063TIP3   OH239110   1.587   5.253   6.558
13063TIP3    H139111   1.656   5.192   6.531
13063TIP3    H239112   1.626   5.340   6.545
13064TIP3   OH239113   0.725   5.003   6.797
13064TIP3    H139114   0.759   5.050   6.721
13064TIP3    H239115   0.784   5.027   6.868
13065TIP3   OH239116   1.198   5.131   6.764
13065TIP3    H139117   1.222   5.094   6.679
13065TIP3    H239118   1.201   5.056   6.824
13066TIP3   OH239119   1.249   5.092   6.338
13066TIP3    H139120   1.171   5.140   6.364
13066TIP3    H239121   1.239   5.005   6.377
13067TIP3   OH239122   0.617   5.225   6.415
13067TIP3    H139123   0.673   5.154   6.448
13067TIP3    H239124   0.659   5.305   6.447
13068TIP3   OH239125   1.219   6.724   6.002
13068TIP3    H139126   1.208   6.630   5.987
13068TIP3    H239127   1.177   6.765   5.926
13069TIP3   OH239128   6.673   1.014   0.630
13069TIP3    H139129   6.727   1.020   0.552
13069TIP3    H239130   6.709   0.939   0.678
13070TIP3   OH239131   7.449   1.134   0.417
13070TIP3    H139132   7.462   1.109   0.509
13070TIP3    H239133   7.537   1.129   0.379
13071TIP3   OH239134   1.436   6.879   7.147
13071TIP3    H139135   1.365   6.852   7.088
13071TIP3    H239136   1.426   6.974   7.154
13072TIP3   OH239137   2.705   6.259   5.935
13072TIP3    H139138   2.666   6.345   5.919
13072TIP3    H239139   2.637   6.197   5.909
13073TIP3   OH239140   2.702   6.254   6.364
13073TIP3    H139141   2.758   6.233   6.439
13073TIP3    H239142   2.658   6.171   6.343
13074TIP3   OH239143   2.001   6.110   6.707
13074TIP3    H139144   2.041   6.058   6.777
13074TIP3    H239145   2.074   6.135   6.651
13075TIP3   OH239146   2.972   6.560   6.034
13075TIP3    H139147   2.958   6.492   6.101
13075TIP3    H239148   2.993   6.639   6.084
13076TIP3   OH239149   1.995   6.540   6.392
13076TIP3    H139150   1.976   6.446   6.397
13076TIP3    H239151   2.089   6.545   6.380
13077TIP3   OH239152   1.678   5.748   6.178
13077TIP3    H139153   1.640   5.833   6.196
13077TIP3    H239154   1.607   5.698   6.136
13078TIP3   OH239155   1.759   6.055   6.395
13078TIP3    H139156   1.809   5.978   6.421
13078TIP3    H239157   1.825   6.120   6.371
13079TIP3   OH239158   2.637   6.978   6.053
13079TIP3    H139159   2.657   6.919   5.980
13079TIP3    H239160   2.653   6.927   6.132
13080TIP3   OH239161   2.508   6.474   6.365
13080TIP3    H139162   2.553   6.395   6.337
13080TIP3    H239163   2.578   6.533   6.393
13081TIP3   OH239164   3.546   5.794   6.376
13081TIP3    H139165   3.560   5.881   6.412
13081TIP3    H239166   3.574   5.801   6.284
13082TIP3   OH239167   2.918   5.959   6.400
13082TIP3    H139168   2.953   5.874   6.426
13082TIP3    H239169   2.881   5.944   6.313
13083TIP3   OH239170   2.273   5.619   6.360
13083TIP3    H139171   2.253   5.691   6.301
13083TIP3    H239172   2.220   5.546   6.328
13084TIP3   OH239173   2.969   5.725   5.994
13084TIP3    H139174   3.033   5.719   6.064
13084TIP3    H239175   3.018   5.757   5.918
13085TIP3   OH239176   1.898   5.834   6.488
13085TIP3    H139177   1.981   5.815   6.531
13085TIP3    H239178   1.900   5.782   6.407
13086TIP3   OH239179   2.314   6.034   6.309
13086TIP3    H139180   2.409   6.020   6.313
13086TIP3    H239181   2.279   5.952   6.274
13087TIP3   OH239182   3.599   6.016   6.545
13087TIP3    H139183   3.509   6.049   6.538
13087TIP3    H239184   3.630   6.049   6.630
13088TIP3   OH239185   2.254   5.623   6.810
13088TIP3    H139186   2.204   5.657   6.736
13088TIP3    H239187   2.198   5.639   6.886
13089TIP3   OH239188   2.554   6.466   5.831
13089TIP3    H139189   2.540   6.451   5.738
13089TIP3    H239190   2.517   6.552   5.848
13090TIP3   OH239191   2.344   6.400   6.575
13090TIP3    H139192   2.292   6.473   6.609
13090TIP3    H239193   2.393   6.438   6.502
13091TIP3   OH239194   3.125   5.752   6.216
13091TIP3    H139195   3.090   5.725   6.301
13091TIP3    H239196   3.185   5.823   6.236
13092TIP3   OH239197   2.143   5.730   6.580
13092TIP3    H139198   2.199   5.805   6.602
13092TIP3    H239199   2.189   5.687   6.508
13093TIP3   OH239200   2.193   6.607   6.683
13093TIP3    H139201   2.178   6.696   6.651
13093TIP3    H239202   2.115   6.587   6.734
13094TIP3   OH239203   1.557   6.301   5.939
13094TIP3    H139204   1.534   6.317   5.847
13094TIP3    H239205   1.584   6.387   5.972
13095TIP3   OH239206   3.008   6.806   6.182
13095TIP3    H139207   2.918   6.802   6.217
13095TIP3    H239208   3.010   6.887   6.132
13096TIP3   OH239209   3.339   5.699   6.548
13096TIP3    H139210   3.254   5.712   6.505
13096TIP3    H239211   3.403   5.720   6.480
13097TIP3   OH239212   2.599   5.316   6.543
13097TIP3    H139213   2.592   5.223   6.566
13097TIP3    H239214   2.521   5.357   6.580
13098TIP3   OH239215   2.713   6.838   5.825
13098TIP3    H139216   2.764   6.758   5.814
13098TIP3    H239217   2.772   6.908   5.799
13099TIP3   OH239218   2.864   6.617   5.785
13099TIP3    H139219   2.884   6.547   5.723
13099TIP3    H239220   2.903   6.588   5.867
13100TIP3   OH239221   3.248   6.691   6.523
13100TIP3    H139222   3.225   6.618   6.465
13100TIP3    H239223   3.236   6.769   6.469
13101TIP3   OH239224   2.530   6.096   5.788
13101TIP3    H139225   2.450   6.144   5.768
13101TIP3    H239226   2.579   6.095   5.706
13102TIP3   OH239227   2.502   5.908   5.474
13102TIP3    H139228   2.567   5.956   5.526
13102TIP3    H239229   2.552   5.841   5.429
13103TIP3   OH239230   3.418   6.361   6.395
13103TIP3    H139231   3.333   6.406   6.389
13103TIP3    H239232   3.454   6.366   6.307
13104TIP3   OH239233   2.892   6.201   5.743
13104TIP3    H139234   2.836   6.225   5.817
13104TIP3    H239235   2.973   6.169   5.784
13105TIP3   OH239236   3.119   6.217   6.697
13105TIP3    H139237   3.112   6.300   6.744
13105TIP3    H239238   3.038   6.212   6.645
13106TIP3   OH239239   2.117   6.167   6.154
13106TIP3    H139240   2.082   6.106   6.089
13106TIP3    H239241   2.190   6.120   6.194
13107TIP3   OH239242   2.256   6.591   6.295
13107TIP3    H139243   2.232   6.578   6.203
13107TIP3    H239244   2.343   6.552   6.303
13108TIP3   OH239245   2.212   6.164   6.531
13108TIP3    H139246   2.251   6.126   6.452
13108TIP3    H239247   2.261   6.245   6.546
13109TIP3   OH239248   2.761   6.812   6.303
13109TIP3    H139249   2.752   6.888   6.360
13109TIP3    H239250   2.749   6.737   6.361
13110TIP3   OH239251   2.391   6.707   6.851
13110TIP3    H139252   2.329   6.763   6.898
13110TIP3    H239253   2.336   6.655   6.792
13111TIP3   OH239254   2.721   6.053   5.583
13111TIP3    H139255   2.781   6.111   5.629
13111TIP3    H239256   2.749   6.057   5.492
13112TIP3   OH239257   2.147   6.241   6.993
13112TIP3    H139258   2.154   6.336   7.007
13112TIP3    H239259   2.053   6.225   6.985
13113TIP3   OH239260   2.459   6.729   5.841
13113TIP3    H139261   2.547   6.767   5.842
13113TIP3    H239262   2.407   6.790   5.789
13114TIP3   OH239263   2.183   6.868   6.940
13114TIP3    H139264   2.154   6.873   6.849
13114TIP3    H239265   2.104   6.847   6.989
13115TIP3   OH239266   3.233   5.273   5.641
13115TIP3    H139267   3.155   5.292   5.693
13115TIP3    H239268   3.243   5.349   5.583
13116TIP3   OH239269   1.995   6.008   5.953
13116TIP3    H139270   1.915   6.053   5.924
13116TIP3    H239271   1.968   5.917   5.963
13117TIP3   OH239272   3.067   6.664   5.191
13117TIP3    H139273   3.066   6.758   5.175
13117TIP3    H239274   3.151   6.634   5.156
13118TIP3   OH239275   1.778   6.418   6.885
13118TIP3    H139276   1.708   6.401   6.822
13118TIP3    H239277   1.811   6.332   6.910
13119TIP3   OH239278   1.620   6.609   6.533
13119TIP3    H139279   1.711   6.631   6.551
13119TIP3    H239280   1.571   6.686   6.562
13120TIP3   OH239281   3.483   7.068   6.657
13120TIP3    H139282   3.487   6.973   6.646
13120TIP3    H239283   3.390   7.087   6.658
13121TIP3   OH239284   2.575   6.868   6.724
13121TIP3    H139285   2.560   6.957   6.757
13121TIP3    H239286   2.510   6.814   6.770
13122TIP3   OH239287   2.358   6.940   5.667
13122TIP3    H139288   2.316   6.920   5.584
13122TIP3    H239289   2.321   7.024   5.693
13123TIP3   OH239290   1.792   6.798   6.044
13123TIP3    H139291   1.839   6.789   6.127
13123TIP3    H239292   1.745   6.715   6.034
13124TIP3   OH239293   2.560   6.873   5.292
13124TIP3    H139294   2.610   6.800   5.257
13124TIP3    H239295   2.597   6.889   5.379
13125TIP3   OH239296   2.613   6.920   5.561
13125TIP3    H139297   2.527   6.923   5.605
13125TIP3    H239298   2.671   6.880   5.625
13126TIP3   OH239299   3.360   6.172   6.854
13126TIP3    H139300   3.281   6.181   6.801
13126TIP3    H239301   3.380   6.078   6.851
13127TIP3   OH239302   1.975   6.609   6.854
13127TIP3    H139303   2.028   6.592   6.932
13127TIP3    H239304   1.904   6.545   6.860
13128TIP3   OH239305   2.358   5.405   6.668
13128TIP3    H139306   2.275   5.371   6.634
13128TIP3    H239307   2.335   5.486   6.713
13129TIP3   OH239308   2.895   5.535   6.868
13129TIP3    H139309   2.964   5.507   6.928
13129TIP3    H239310   2.813   5.516   6.914
13130TIP3   OH239311   3.122   5.952   6.791
13130TIP3    H139312   3.084   5.951   6.879
13130TIP3    H239313   3.106   6.040   6.758
13131TIP3   OH239314   2.798   6.048   5.323
13131TIP3    H139315   2.754   6.040   5.238
13131TIP3    H239316   2.882   6.089   5.302
13132TIP3   OH239317   2.505   5.455   5.635
13132TIP3    H139318   2.469   5.461   5.723
13132TIP3    H239319   2.473   5.371   5.601
13133TIP3   OH239320   2.296   5.941   6.676
13133TIP3    H139321   2.251   5.947   6.760
13133TIP3    H239322   2.274   6.023   6.631
13134TIP3   OH239323   2.176   5.819   6.199
13134TIP3    H139324   2.087   5.793   6.223
13134TIP3    H239325   2.187   5.789   6.109
13135TIP3   OH239326   2.655   5.894   5.926
13135TIP3    H139327   2.607   5.965   5.884
13135TIP3    H239328   2.713   5.861   5.857
13136TIP3   OH239329   2.837   6.160   6.996
13136TIP3    H139330   2.813   6.092   7.058
13136TIP3    H239331   2.929   6.179   7.015
13137TIP3   OH239332   2.824   5.910   6.147
13137TIP3    H139333   2.756   5.930   6.083
13137TIP3    H239334   2.872   5.837   6.109
13138TIP3   OH239335   2.135   5.954   6.899
13138TIP3    H139336   2.151   6.017   6.969
13138TIP3    H239337   2.118   5.871   6.944
13139TIP3   OH239338   2.173   5.436   5.614
13139TIP3    H139339   2.164   5.437   5.710
13139TIP3    H239340   2.094   5.478   5.582
13140TIP3   OH239341   1.717   5.477   6.481
13140TIP3    H139342   1.793   5.511   6.529
13140TIP3    H239343   1.752   5.454   6.395
13141TIP3   OH239344   1.626   5.454   5.985
13141TIP3    H139345   1.673   5.488   5.909
13141TIP3    H239346   1.561   5.521   6.006
13142TIP3   OH239347   2.870   6.161   6.573
13142TIP3    H139348   2.894   6.095   6.509
13142TIP3    H239349   2.824   6.112   6.642
13143TIP3   OH239350   2.546   5.611   6.251
13143TIP3    H139351   2.469   5.608   6.308
13143TIP3    H239352   2.620   5.599   6.311
13144TIP3   OH239353   1.938   5.692   6.257
13144TIP3    H139354   1.850   5.696   6.219
13144TIP3    H239355   1.967   5.602   6.241
13145TIP3   OH239356   2.188   5.702   5.950
13145TIP3    H139357   2.284   5.708   5.941
13145TIP3    H239358   2.155   5.718   5.862
13146TIP3   OH239359   2.994   5.698   6.462
13146TIP3    H139360   2.970   5.717   6.552
13146TIP3    H239361   2.929   5.634   6.433
13147TIP3   OH239362   2.075   5.727   5.701
13147TIP3    H139363   2.013   5.675   5.649
13147TIP3    H239364   2.131   5.770   5.635
13148TIP3   OH239365   3.165   7.391   6.671
13148TIP3    H139366   3.162   7.405   6.576
13148TIP3    H239367   3.246   7.433   6.700
13149TIP3   OH239368   2.138   6.510   7.077
13149TIP3    H139369   2.217   6.529   7.127
13149TIP3    H239370   2.069   6.504   7.142
13150TIP3   OH239371   2.589   5.984   6.354
13150TIP3    H139372   2.653   5.935   6.302
13150TIP3    H239373   2.588   5.940   6.439
13151TIP3   OH239374   2.081   5.444   6.242
13151TIP3    H139375   2.052   5.369   6.294
13151TIP3    H239376   2.106   5.407   6.158
13152TIP3   OH239377   2.561   5.882   6.617
13152TIP3    H139378   2.474   5.913   6.641
13152TIP3    H239379   2.620   5.934   6.670
13153TIP3   OH239380   2.295   6.237   5.727
13153TIP3    H139381   2.221   6.181   5.704
13153TIP3    H239382   2.270   6.277   5.810
13154TIP3   OH239383   3.180   6.492   6.345
13154TIP3    H139384   3.219   6.538   6.271
13154TIP3    H239385   3.102   6.450   6.309
13155TIP3   OH239386   2.761   5.552   5.646
13155TIP3    H139387   2.668   5.531   5.638
13155TIP3    H239388   2.763   5.647   5.654
13156TIP3   OH239389   2.707   6.585   6.747
13156TIP3    H139390   2.761   6.568   6.825
13156TIP3    H239391   2.669   6.671   6.764
13157TIP3   OH239392   2.818   5.820   5.709
13157TIP3    H139393   2.914   5.821   5.717
13157TIP3    H239394   2.797   5.896   5.656
13158TIP3   OH239395   1.982   6.249   6.381
13158TIP3    H139396   2.021   6.231   6.295
13158TIP3    H239397   2.049   6.221   6.444
13159TIP3   OH239398   2.453   6.396   5.571
13159TIP3    H139399   2.405   6.478   5.569
13159TIP3    H239400   2.399   6.337   5.624
13160TIP3   OH239401   1.871   6.186   7.020
13160TIP3    H139402   1.882   6.152   7.108
13160TIP3    H239403   1.798   6.136   6.983
13161TIP3   OH239404   2.610   6.317   7.035
13161TIP3    H139405   2.540   6.257   7.008
13161TIP3    H239406   2.690   6.275   7.005
13162TIP3   OH239407   2.846   6.869   6.643
13162TIP3    H139408   2.751   6.862   6.645
13162TIP3    H239409   2.870   6.905   6.728
13163TIP3   OH239410   3.234   5.909   5.525
13163TIP3    H139411   3.177   5.865   5.462
13163TIP3    H239412   3.240   5.999   5.492
13164TIP3   OH239413   3.491   6.795   6.609
13164TIP3    H139414   3.399   6.768   6.604
13164TIP3    H239415   3.530   6.761   6.529
13165TIP3   OH239416   2.963   6.717   5.447
13165TIP3    H139417   2.946   6.636   5.495
13165TIP3    H239418   2.996   6.688   5.362
13166TIP3   OH239419   2.956   6.355   6.236
13166TIP3    H139420   2.865   6.332   6.258
13166TIP3    H239421   2.992   6.275   6.198
13167TIP3   OH239422   2.118   6.595   6.051
13167TIP3    H139423   2.119   6.671   5.993
13167TIP3    H239424   2.026   6.581   6.071
13168TIP3   OH239425   1.674   5.877   5.761
13168TIP3    H139426   1.718   5.959   5.782
13168TIP3    H239427   1.595   5.878   5.816
13169TIP3   OH239428   2.190   6.347   5.951
13169TIP3    H139429   2.182   6.436   5.984
13169TIP3    H239430   2.167   6.292   6.026
13170TIP3   OH239431   2.396   6.918   6.507
13170TIP3    H139432   2.430   6.990   6.455
13170TIP3    H239433   2.470   6.889   6.560
13171TIP3   OH239434   2.028   6.818   5.901
13171TIP3    H139435   1.941   6.824   5.940
13171TIP3    H239436   2.063   6.907   5.906
13172TIP3   OH239437   2.741   6.586   6.472
13172TIP3    H139438   2.731   6.583   6.567
13172TIP3    H239439   2.812   6.525   6.453
13173TIP3   OH239440   2.748   6.462   5.365
13173TIP3    H139441   2.797   6.449   5.447
13173TIP3    H239442   2.663   6.421   5.381
13174TIP3   OH239443   3.006   7.067   6.514
13174TIP3    H139444   2.933   7.009   6.535
13174TIP3    H239445   2.973   7.124   6.445
13175TIP3   OH239446   3.074   6.937   5.157
13175TIP3    H139447   3.133   7.011   5.140
13175TIP3    H239448   2.994   6.978   5.190
13176TIP3   OH239449   2.082   5.701   7.016
13176TIP3    H139450   1.987   5.708   7.020
13176TIP3    H239451   2.105   5.644   7.090
13177TIP3   OH239452   2.929   6.423   5.579
13177TIP3    H139453   2.910   6.346   5.632
13177TIP3    H239454   3.023   6.415   5.559
13178TIP3   OH239455   1.824   6.814   6.665
13178TIP3    H139456   1.876   6.756   6.720
13178TIP3    H239457   1.839   6.901   6.702
13179TIP3   OH239458   2.088   6.423   5.364
13179TIP3    H139459   2.101   6.333   5.337
13179TIP3    H239460   2.076   6.419   5.459
13180TIP3   OH239461   2.034   6.440   5.637
13180TIP3    H139462   2.103   6.413   5.699
13180TIP3    H239463   2.035   6.535   5.642
13181TIP3   OH239464   1.765   6.128   5.847
13181TIP3    H139465   1.699   6.175   5.898
13181TIP3    H239466   1.787   6.188   5.775
13182TIP3   OH239467   2.926   5.767   6.722
13182TIP3    H139468   3.007   5.808   6.753
13182TIP3    H239469   2.917   5.688   6.776
13183TIP3   OH239470   2.821   5.503   5.912
13183TIP3    H139471   2.800   5.518   5.820
13183TIP3    H239472   2.865   5.583   5.940
13184TIP3   OH239473   2.303   6.621   5.571
13184TIP3    H139474   2.220   6.647   5.610
13184TIP3    H239475   2.329   6.696   5.516
13185TIP3   OH239476   2.469   5.705   6.001
13185TIP3    H139477   2.531   5.771   5.973
13185TIP3    H239478   2.495   5.683   6.090
13186TIP3   OH239479   2.765   5.998   6.769
13186TIP3    H139480   2.790   6.038   6.851
13186TIP3    H239481   2.815   5.916   6.765
13187TIP3   OH239482   2.630   5.399   6.083
13187TIP3    H139483   2.609   5.477   6.134
13187TIP3    H239484   2.701   5.426   6.025
13188TIP3   OH239485   2.055   6.713   5.649
13188TIP3    H139486   2.036   6.785   5.589
13188TIP3    H239487   2.045   6.751   5.736
13189TIP3   OH239488   2.144   5.427   5.894
13189TIP3    H139489   2.135   5.518   5.923
13189TIP3    H239490   2.238   5.410   5.898
13190TIP3   OH239491   3.386   5.892   6.765
13190TIP3    H139492   3.292   5.903   6.779
13190TIP3    H239493   3.392   5.834   6.689
13191TIP3   OH239494   3.049   6.098   6.147
13191TIP3    H139495   2.974   6.040   6.156
13191TIP3    H239496   3.117   6.058   6.201
13192TIP3   OH239497   1.792   6.305   5.630
13192TIP3    H139498   1.864   6.368   5.640
13192TIP3    H239499   1.823   6.242   5.566
13193TIP3   OH239500   1.703   5.599   5.769
13193TIP3    H139501   1.708   5.695   5.769
13193TIP3    H239502   1.691   5.576   5.676
13194TIP3   OH239503   3.025   7.069   6.090
13194TIP3    H139504   2.981   7.125   6.026
13194TIP3    H239505   3.119   7.081   6.071
13195TIP3   OH239506   2.093   5.321   6.630
13195TIP3    H139507   2.065   5.289   6.544
13195TIP3    H239508   2.084   5.246   6.688
13196TIP3   OH239509   1.614   6.573   6.019
13196TIP3    H139510   1.576   6.613   6.097
13196TIP3    H239511   1.572   6.618   5.946
13197TIP3   OH239512   1.827   7.104   7.086
13197TIP3    H139513   1.909   7.101   7.136
13197TIP3    H239514   1.800   7.013   7.077
13198TIP3   OH239515   2.312   7.031   7.119
13198TIP3    H139516   2.397   6.989   7.131
13198TIP3    H239517   2.269   6.979   7.051
13199TIP3   OH239518   2.245   6.623   5.254
13199TIP3    H139519   2.198   6.553   5.299
13199TIP3    H239520   2.320   6.581   5.213
13200TIP3   OH239521   2.900   6.966   6.894
13200TIP3    H139522   2.916   6.894   6.954
13200TIP3    H239523   2.973   7.026   6.908
13201TIP3   OH239524   2.688   6.659   5.178
13201TIP3    H139525   2.724   6.598   5.243
13201TIP3    H239526   2.748   6.655   5.104
13202TIP3   OH239527   1.935   6.472   7.259
13202TIP3    H139528   1.945   6.378   7.267
13202TIP3    H239529   1.848   6.485   7.222
13203TIP3   OH239530   1.911   6.116   5.474
13203TIP3    H139531   1.962   6.090   5.550
13203TIP3    H239532   1.976   6.130   5.405
13204TIP3   OH239533   2.549   6.592   7.047
13204TIP3    H139534   2.503   6.614   6.966
13204TIP3    H239535   2.583   6.504   7.033
13205TIP3   OH239536   2.471   6.339   5.303
13205TIP3    H139537   2.456   6.348   5.397
13205TIP3    H239538   2.461   6.245   5.285
13206TIP3   OH239539   3.022   6.648   6.682
13206TIP3    H139540   3.097   6.671   6.628
13206TIP3    H239541   2.956   6.714   6.661
13207TIP3   OH239542   7.977   2.020   0.006
13207TIP3    H139543   8.053   2.013  -0.052
13207TIP3    H239544   8.014   2.047   0.090
13208TIP3   OH239545   2.086   6.058   5.683
13208TIP3    H139546   2.069   6.026   5.772
13208TIP3    H239547   2.135   5.987   5.642
13209TIP3   OH239548   2.404   6.140   6.945
13209TIP3    H139549   2.318   6.179   6.954
13209TIP3    H239550   2.434   6.168   6.858
13210TIP3   OH239551   2.227   5.876   5.524
13210TIP3    H139552   2.198   5.878   5.433
13210TIP3    H239553   2.322   5.883   5.520
13211TIP3   OH239554   2.904   6.513   7.024
13211TIP3    H139555   2.974   6.477   6.969
13211TIP3    H239556   2.902   6.456   7.101
13212TIP3   OH239557   3.022   6.171   5.214
13212TIP3    H139558   3.009   6.129   5.129
13212TIP3    H239559   2.999   6.262   5.199
13213TIP3   OH239560   2.505   5.907   7.051
13213TIP3    H139561   2.507   5.837   6.986
13213TIP3    H239562   2.472   5.983   7.003
13214TIP3   OH239563   2.512   5.711   6.847
13214TIP3    H139564   2.540   5.746   6.762
13214TIP3    H239565   2.422   5.682   6.832
13215TIP3   OH239566   2.513   6.237   6.717
13215TIP3    H139567   2.603   6.262   6.696
13215TIP3    H239568   2.458   6.298   6.668
13216TIP3   OH239569   3.107   6.194   7.089
13216TIP3    H139570   3.121   6.100   7.088
13216TIP3    H239571   3.192   6.232   7.068
13217TIP3   OH239572   3.137   6.462   6.843
13217TIP3    H139573   3.086   6.526   6.793
13217TIP3    H239574   3.227   6.472   6.812
13218TIP3   OH239575   8.323   1.797   0.027
13218TIP3    H139576   8.254   1.733   0.048
13218TIP3    H239577   8.352   1.772  -0.061
13219TIP3   OH239578   2.633   5.482   6.952
13219TIP3    H139579   2.592   5.561   6.918
13219TIP3    H239580   2.568   5.413   6.937
13220TIP3   OH239581   2.761   5.948   7.153
13220TIP3    H139582   2.749   5.935   7.247
13220TIP3    H239583   2.675   5.926   7.116
13221TIP3   OH239584   3.018   5.923   7.038
13221TIP3    H139585   2.936   5.911   7.087
13221TIP3    H239586   3.084   5.882   7.094
13222TIP3   OH239587   3.246   5.860   7.181
13222TIP3    H139588   3.259   5.766   7.187
13222TIP3    H239589   3.242   5.889   7.273
13223TIP3   OH239590   8.157   1.576   0.088
13223TIP3    H139591   8.165   1.488   0.051
13223TIP3    H239592   8.195   1.569   0.176
13224TIP3   OH239593   2.700   5.455   7.216
13224TIP3    H139594   2.768   5.387   7.210
13224TIP3    H239595   2.670   5.468   7.126
13225TIP3   OH239596   8.729   1.474   0.094
13225TIP3    H139597   8.699   1.402   0.039
13225TIP3    H239598   8.656   1.536   0.094
13226TIP3   OH239599   2.053   6.925   5.468
13226TIP3    H139600   2.142   6.901   5.441
13226TIP3    H239601   2.016   6.970   5.392
13227TIP3   OH239602   1.519   6.302   5.651
13227TIP3    H139603   1.614   6.313   5.644
13227TIP3    H239604   1.502   6.217   5.609
13228TIP3   OH239605   1.419   6.884   6.102
13228TIP3    H139606   1.357   6.829   6.055
13228TIP3    H239607   1.464   6.824   6.161
13229TIP3   OH239608   1.566   6.716   6.268
13229TIP3    H139609   1.561   6.649   6.336
13229TIP3    H239610   1.618   6.786   6.308
13230TIP3   OH239611   3.289   7.127   6.060
13230TIP3    H139612   3.314   7.168   6.143
13230TIP3    H239613   3.357   7.155   5.999
13231TIP3   OH239614   3.316   7.168   6.344
13231TIP3    H139615   3.276   7.081   6.352
13231TIP3    H239616   3.410   7.151   6.337
13232TIP3   OH239617   3.404   6.874   6.958
13232TIP3    H139618   3.326   6.874   7.014
13232TIP3    H239619   3.447   6.958   6.978
13233TIP3   OH239620   3.206   6.389   5.542
13233TIP3    H139621   3.266   6.459   5.520
13233TIP3    H239622   3.248   6.343   5.615
13234TIP3   OH239623   3.321   6.232   5.741
13234TIP3    H139624   3.254   6.193   5.797
13234TIP3    H239625   3.386   6.266   5.803
13235TIP3   OH239626   3.380   6.621   6.194
13235TIP3    H139627   3.426   6.553   6.145
13235TIP3    H239628   3.391   6.700   6.142
13236TIP3   OH239629   3.186   6.915   6.372
13236TIP3    H139630   3.118   6.962   6.420
13236TIP3    H239631   3.140   6.875   6.298
13237TIP3   OH239632   3.229   6.153   5.394
13237TIP3    H139633   3.158   6.152   5.330
13237TIP3    H239634   3.217   6.235   5.443
13238TIP3   OH239635   3.078   5.800   5.329
13238TIP3    H139636   3.038   5.832   5.248
13238TIP3    H239637   3.069   5.705   5.324
13239TIP3   OH239638   3.115   6.092   5.876
13239TIP3    H139639   3.120   5.998   5.860
13239TIP3    H239640   3.097   6.099   5.969
13240TIP3   OH239641   1.740   6.155   6.650
13240TIP3    H139642   1.731   6.121   6.561
13240TIP3    H239643   1.834   6.149   6.668
13241TIP3   OH239644   3.391   6.504   6.739
13241TIP3    H139645   3.461   6.441   6.725
13241TIP3    H239646   3.384   6.551   6.655
13242TIP3   OH239647   3.577   6.297   6.740
13242TIP3    H139648   3.500   6.255   6.780
13242TIP3    H239649   3.650   6.239   6.762
13243TIP3   OH239650   3.040   5.531   5.307
13243TIP3    H139651   3.108   5.498   5.365
13243TIP3    H239652   2.960   5.485   5.335
13244TIP3   OH239653   3.111   5.815   5.764
13244TIP3    H139654   3.155   5.731   5.777
13244TIP3    H239655   3.153   5.852   5.686
13245TIP3   OH239656   3.268   5.981   6.288
13245TIP3    H139657   3.347   6.001   6.238
13245TIP3    H239658   3.283   6.019   6.374
13246TIP3   OH239659   3.339   6.128   6.519
13246TIP3    H139660   3.263   6.155   6.571
13246TIP3    H239661   3.369   6.208   6.476
13247TIP3   OH239662   7.894   1.629   0.028
13247TIP3    H139663   7.988   1.626   0.044
13247TIP3    H239664   7.860   1.547   0.065
13248TIP3   OH239665   3.799   5.727   7.053
13248TIP3    H139666   3.864   5.671   7.010
13248TIP3    H239667   3.759   5.776   6.981
13249TIP3   OH239668   3.224   5.565   5.818
13249TIP3    H139669   3.269   5.548   5.900
13249TIP3    H239670   3.163   5.491   5.809
13250TIP3   OH239671   1.932   5.546   6.650
13250TIP3    H139672   1.985   5.467   6.653
13250TIP3    H239673   1.994   5.616   6.628
13251TIP3   OH239674   1.716   5.814   6.704
13251TIP3    H139675   1.766   5.802   6.623
13251TIP3    H239676   1.752   5.894   6.742
13252TIP3   OH239677   3.646   5.836   6.853
13252TIP3    H139678   3.559   5.875   6.862
13252TIP3    H239679   3.632   5.757   6.801
13253TIP3   OH239680   3.273   5.474   5.455
13253TIP3    H139681   3.320   5.413   5.398
13253TIP3    H239682   3.328   5.552   5.457
13254TIP3   OH239683   1.705   5.336   6.219
13254TIP3    H139684   1.619   5.313   6.254
13254TIP3    H239685   1.686   5.384   6.138
13255TIP3   OH239686   2.853   7.049   5.727
13255TIP3    H139687   2.901   7.028   5.647
13255TIP3    H239688   2.908   7.113   5.772
13256TIP3   OH239689   1.934   5.389   7.040
13256TIP3    H139690   1.879   5.375   7.116
13256TIP3    H239691   1.876   5.430   6.975
13257TIP3   OH239692   1.971   6.824   7.114
13257TIP3    H139693   1.877   6.812   7.098
13257TIP3    H239694   1.984   6.793   7.204
13258TIP3   OH239695   2.168   6.884   6.657
13258TIP3    H139696   2.120   6.962   6.628
13258TIP3    H239697   2.252   6.889   6.612
13259TIP3   OH239698   2.552   7.149   6.820
13259TIP3    H139699   2.596   7.126   6.902
13259TIP3    H239700   2.622   7.184   6.765
13260TIP3   OH239701   2.745   7.265   6.664
13260TIP3    H139702   2.799   7.210   6.607
13260TIP3    H239703   2.807   7.318   6.714
13261TIP3   OH239704   3.565   5.584   6.754
13261TIP3    H139705   3.476   5.567   6.724
13261TIP3    H239706   3.609   5.500   6.747
13262TIP3   OH239707   1.832   7.110   6.704
13262TIP3    H139708   1.742   7.129   6.676
13262TIP3    H239709   1.852   7.177   6.769
13263TIP3   OH239710   2.069   7.124   6.564
13263TIP3    H139711   1.983   7.121   6.606
13263TIP3    H239712   2.050   7.143   6.472
13264TIP3   OH239713   2.470   7.131   6.347
13264TIP3    H139714   2.402   7.139   6.279
13264TIP3    H239715   2.478   7.219   6.383
13265TIP3   OH239716   2.732   7.070   6.408
13265TIP3    H139717   2.642   7.087   6.380
13265TIP3    H239718   2.785   7.128   6.354
13266TIP3   OH239719   2.932   7.227   6.294
13266TIP3    H139720   2.938   7.315   6.257
13266TIP3    H239721   2.963   7.169   6.224
13267TIP3   OH239722   1.740   6.897   6.414
13267TIP3    H139723   1.766   6.874   6.503
13267TIP3    H239724   1.811   6.864   6.358
13268TIP3   OH239725   1.942   6.781   6.275
13268TIP3    H139726   1.954   6.697   6.319
13268TIP3    H239727   2.029   6.822   6.279
13269TIP3   OH239728   2.210   6.868   6.304
13269TIP3    H139729   2.229   6.776   6.287
13269TIP3    H239730   2.265   6.891   6.378
13270TIP3   OH239731   2.774   5.513   6.392
13270TIP3    H139732   2.730   5.443   6.440
13270TIP3    H239733   2.841   5.468   6.340
13271TIP3   OH239734   3.265   5.434   6.277
13271TIP3    H139735   3.297   5.480   6.200
13271TIP3    H239736   3.170   5.441   6.272
13272TIP3   OH239737   3.379   5.511   6.040
13272TIP3    H139738   3.448   5.449   6.014
13272TIP3    H239739   3.419   5.597   6.029
13273TIP3   OH239740   2.005   5.219   6.389
13273TIP3    H139741   1.916   5.184   6.396
13273TIP3    H239742   2.060   5.141   6.379
13274TIP3   OH239743   1.834   5.137   6.050
13274TIP3    H139744   1.860   5.180   5.969
13274TIP3    H239745   1.801   5.207   6.106
13275TIP3   OH239746   2.484   5.262   6.283
13275TIP3    H139747   2.533   5.302   6.211
13275TIP3    H239748   2.532   5.287   6.362
13276TIP3   OH239749   2.982   5.383   6.262
13276TIP3    H139750   2.983   5.351   6.171
13276TIP3    H239751   2.995   5.304   6.315
13277TIP3   OH239752   3.042   5.350   5.827
13277TIP3    H139753   2.961   5.394   5.852
13277TIP3    H239754   3.034   5.262   5.863
13278TIP3   OH239755   1.498   6.700   5.804
13278TIP3    H139756   1.417   6.669   5.763
13278TIP3    H239757   1.507   6.790   5.774
13279TIP3   OH239758   1.936   5.257   5.807
13279TIP3    H139759   1.980   5.194   5.750
13279TIP3    H239760   2.007   5.312   5.841
13280TIP3   OH239761   2.418   5.455   5.898
13280TIP3    H139762   2.477   5.398   5.948
13280TIP3    H239763   2.438   5.543   5.930
13281TIP3   OH239764   2.307   6.846   5.398
13281TIP3    H139765   2.391   6.873   5.360
13281TIP3    H239766   2.276   6.775   5.342
13282TIP3   OH239767   2.990   6.986   5.495
13282TIP3    H139768   2.988   6.891   5.486
13282TIP3    H239769   2.957   7.020   5.412
13283TIP3   OH239770   8.173   1.306   0.001
13283TIP3    H139771   8.138   1.240   0.060
13283TIP3    H239772   8.265   1.315   0.025
13284TIP3   OH239773   8.420   1.313   0.124
13284TIP3    H139774   8.496   1.290   0.071
13284TIP3    H239775   8.414   1.243   0.189
13285TIP3   OH239776   1.616   6.695   5.448
13285TIP3    H139777   1.618   6.708   5.543
13285TIP3    H239778   1.697   6.648   5.428
13286TIP3   OH239779   3.305   5.589   7.177
13286TIP3    H139780   3.324   5.561   7.267
13286TIP3    H239781   3.390   5.587   7.133
13287TIP3   OH239782   3.215   7.121   6.689
13287TIP3    H139783   3.149   7.084   6.630
13287TIP3    H239784   3.196   7.215   6.691
13288TIP3   OH239785   4.503   6.517   5.429
13288TIP3    H139786   4.475   6.604   5.400
13288TIP3    H239787   4.434   6.458   5.400
13289TIP3   OH239788   4.494   6.511   5.845
13289TIP3    H139789   4.546   6.489   5.923
13289TIP3    H239790   4.452   6.428   5.822
13290TIP3   OH239791   3.799   6.371   6.195
13290TIP3    H139792   3.840   6.316   6.262
13290TIP3    H239793   3.871   6.395   6.136
13291TIP3   OH239794   4.763   6.821   5.522
13291TIP3    H139795   4.758   6.753   5.588
13291TIP3    H239796   4.788   6.900   5.570
13292TIP3   OH239797   3.783   6.790   5.932
13292TIP3    H139798   3.767   6.699   5.906
13292TIP3    H239799   3.861   6.816   5.884
13293TIP3   OH239800   3.472   6.004   5.662
13293TIP3    H139801   3.432   6.088   5.685
13293TIP3    H239802   3.402   5.954   5.621
13294TIP3   OH239803   3.551   6.314   5.885
13294TIP3    H139804   3.603   6.236   5.906
13294TIP3    H239805   3.616   6.379   5.859
13295TIP3   OH239806   4.433   7.241   5.538
13295TIP3    H139807   4.455   7.180   5.467
13295TIP3    H239808   4.442   7.188   5.617
13296TIP3   OH239809   4.305   6.730   5.847
13296TIP3    H139810   4.351   6.651   5.822
13296TIP3    H239811   4.374   6.793   5.868
13297TIP3   OH239812   5.340   6.043   5.886
13297TIP3    H139813   5.353   6.129   5.927
13297TIP3    H239814   5.386   6.049   5.802
13298TIP3   OH239815   4.708   6.220   5.891
13298TIP3    H139816   4.743   6.134   5.914
13298TIP3    H239817   4.674   6.209   5.802
13299TIP3   OH239818   4.070   5.874   5.843
13299TIP3    H139819   4.047   5.947   5.785
13299TIP3    H239820   4.015   5.801   5.812
13300TIP3   OH239821   4.768   5.981   5.492
13300TIP3    H139822   4.835   5.970   5.560
13300TIP3    H239823   4.816   6.015   5.416
13301TIP3   OH239824   3.695   6.092   5.973
13301TIP3    H139825   3.778   6.072   6.016
13301TIP3    H239826   3.697   6.040   5.892
13302TIP3   OH239827   4.111   6.287   5.796
13302TIP3    H139828   4.206   6.273   5.799
13302TIP3    H239829   4.075   6.206   5.760
13303TIP3   OH239830   5.392   6.268   6.043
13303TIP3    H139831   5.314   6.320   6.025
13303TIP3    H239832   5.433   6.311   6.118
13304TIP3   OH239833   4.048   5.883   6.298
13304TIP3    H139834   3.999   5.916   6.223
13304TIP3    H239835   3.991   5.900   6.373
13305TIP3   OH239836   4.405   6.732   5.284
13305TIP3    H139837   4.363   6.702   5.203
13305TIP3    H239838   4.351   6.806   5.312
13306TIP3   OH239839   4.146   6.653   6.059
13306TIP3    H139840   4.091   6.724   6.092
13306TIP3    H239841   4.192   6.692   5.984
13307TIP3   OH239842   4.937   5.989   5.711
13307TIP3    H139843   4.885   5.974   5.791
13307TIP3    H239844   4.987   6.068   5.730
13308TIP3   OH239845   3.942   5.986   6.064
13308TIP3    H139846   3.998   6.061   6.086
13308TIP3    H239847   3.987   5.942   5.992
13309TIP3   OH239848   3.996   6.857   6.169
13309TIP3    H139849   3.968   6.934   6.118
13309TIP3    H239850   3.920   6.837   6.224
13310TIP3   OH239851   3.392   6.591   5.453
13310TIP3    H139852   3.345   6.636   5.382
13310TIP3    H239853   3.441   6.660   5.497
13311TIP3   OH239854   4.800   7.069   5.660
13311TIP3    H139855   4.711   7.064   5.694
13311TIP3    H239856   4.803   7.152   5.612
13312TIP3   OH239857   5.143   5.915   6.038
13312TIP3    H139858   5.059   5.948   6.008
13312TIP3    H239859   5.207   5.952   5.977
13313TIP3   OH239860   4.393   5.576   6.031
13313TIP3    H139861   4.385   5.484   6.055
13313TIP3    H239862   4.315   5.618   6.068
13314TIP3   OH239863   4.511   7.100   5.310
13314TIP3    H139864   4.563   7.020   5.301
13314TIP3    H239865   4.569   7.170   5.283
13315TIP3   OH239866   4.650   6.870   5.274
13315TIP3    H139867   4.580   6.805   5.270
13315TIP3    H239868   4.700   6.846   5.352
13316TIP3   OH239869   5.018   6.964   6.012
13316TIP3    H139870   5.015   6.885   5.959
13316TIP3    H239871   5.021   7.036   5.948
13317TIP3   OH239872   4.331   6.357   5.279
13317TIP3    H139873   4.247   6.400   5.262
13317TIP3    H239874   4.375   6.356   5.194
13318TIP3   OH239875   4.291   6.170   4.967
13318TIP3    H139876   4.358   6.216   5.017
13318TIP3    H239877   4.338   6.102   4.920
13319TIP3   OH239878   5.219   6.607   5.872
13319TIP3    H139879   5.139   6.659   5.876
13319TIP3    H239880   5.252   6.620   5.784
13320TIP3   OH239881   4.684   6.448   5.234
13320TIP3    H139882   4.633   6.476   5.310
13320TIP3    H239883   4.769   6.422   5.271
13321TIP3   OH239884   4.909   6.452   6.163
13321TIP3    H139885   4.913   6.539   6.204
13321TIP3    H239886   4.824   6.451   6.118
13322TIP3   OH239887   3.910   6.418   5.641
13322TIP3    H139888   3.874   6.358   5.576
13322TIP3    H239889   3.983   6.369   5.680
13323TIP3   OH239890   4.029   6.846   5.781
13323TIP3    H139891   3.991   6.830   5.695
13323TIP3    H239892   4.115   6.804   5.778
13324TIP3   OH239893   4.010   6.419   6.017
13324TIP3    H139894   4.047   6.381   5.937
13324TIP3    H239895   4.058   6.500   6.030
13325TIP3   OH239896   4.555   7.073   5.781
13325TIP3    H139897   4.547   7.147   5.841
13325TIP3    H239898   4.547   6.996   5.837
13326TIP3   OH239899   4.179   6.953   6.347
13326TIP3    H139900   4.118   7.013   6.389
13326TIP3    H239901   4.127   6.906   6.282
13327TIP3   OH239902   4.517   6.304   5.068
13327TIP3    H139903   4.577   6.363   5.115
13327TIP3    H239904   4.548   6.307   4.978
13328TIP3   OH239905   3.938   6.493   6.495
13328TIP3    H139906   3.942   6.587   6.511
13328TIP3    H239907   3.845   6.474   6.484
13329TIP3   OH239908   4.267   6.969   5.329
13329TIP3    H139909   4.346   7.023   5.329
13329TIP3    H239910   4.203   7.020   5.279
13330TIP3   OH239911   3.980   7.127   6.427
13330TIP3    H139912   3.961   7.136   6.334
13330TIP3    H239913   3.896   7.107   6.467
13331TIP3   OH239914   5.019   5.527   5.124
13331TIP3    H139915   4.944   5.552   5.178
13331TIP3    H239916   5.035   5.603   5.067
13332TIP3   OH239917   3.783   6.266   5.438
13332TIP3    H139918   3.706   6.316   5.411
13332TIP3    H239919   3.751   6.176   5.449
13333TIP3   OH239920   4.854   6.909   4.681
13333TIP3    H139921   4.846   7.002   4.662
13333TIP3    H239922   4.943   6.886   4.652
13334TIP3   OH239923   3.581   6.669   6.385
13334TIP3    H139924   3.512   6.653   6.320
13334TIP3    H239925   3.613   6.582   6.407
13335TIP3   OH239926   3.444   6.852   6.049
13335TIP3    H139927   3.497   6.843   5.971
13335TIP3    H239928   3.378   6.917   6.026
13336TIP3   OH239929   5.264   7.331   6.072
13336TIP3    H139930   5.268   7.235   6.077
13336TIP3    H239931   5.184   7.354   6.119
13337TIP3   OH239932   4.369   7.102   6.212
13337TIP3    H139933   4.359   7.194   6.237
13337TIP3    H239934   4.299   7.057   6.259
13338TIP3   OH239935   4.156   7.203   5.151
13338TIP3    H139936   4.105   7.179   5.073
13338TIP3    H239937   4.116   7.283   5.182
13339TIP3   OH239938   4.356   7.133   4.778
13339TIP3    H139939   4.406   7.060   4.743
13339TIP3    H239940   4.390   7.146   4.867
13340TIP3   OH239941   4.408   7.175   5.048
13340TIP3    H139942   4.321   7.180   5.087
13340TIP3    H239943   4.463   7.135   5.116
13341TIP3   OH239944   5.141   6.436   6.362
13341TIP3    H139945   5.076   6.447   6.293
13341TIP3    H239946   5.170   6.345   6.353
13342TIP3   OH239947   3.794   6.842   6.353
13342TIP3    H139948   3.839   6.822   6.435
13342TIP3    H239949   3.715   6.788   6.355
13343TIP3   OH239950   4.154   5.665   6.155
13343TIP3    H139951   4.071   5.630   6.122
13343TIP3    H239952   4.129   5.746   6.201
13344TIP3   OH239953   4.692   5.788   6.356
13344TIP3    H139954   4.761   5.761   6.418
13344TIP3    H239955   4.610   5.770   6.403
13345TIP3   OH239956   4.921   6.194   6.265
13345TIP3    H139957   4.885   6.201   6.354
13345TIP3    H239958   4.910   6.281   6.228
13346TIP3   OH239959   4.598   6.276   4.806
13346TIP3    H139960   4.551   6.283   4.722
13346TIP3    H239961   4.679   6.325   4.792
13347TIP3   OH239962   4.309   5.706   5.123
13347TIP3    H139963   4.270   5.715   5.209
13347TIP3    H239964   4.273   5.624   5.089
13348TIP3   OH239965   4.095   6.197   6.163
13348TIP3    H139966   4.049   6.203   6.246
13348TIP3    H239967   4.071   6.277   6.116
13349TIP3   OH239968   3.971   6.075   5.685
13349TIP3    H139969   3.882   6.051   5.708
13349TIP3    H239970   3.982   6.044   5.595
13350TIP3   OH239971   4.455   6.152   5.413
13350TIP3    H139972   4.408   6.224   5.373
13350TIP3    H239973   4.513   6.119   5.343
13351TIP3   OH239974   4.644   6.462   6.564
13351TIP3    H139975   4.630   6.370   6.587
13351TIP3    H239976   4.739   6.472   6.558
13352TIP3   OH239977   4.623   6.169   5.636
13352TIP3    H139978   4.555   6.191   5.571
13352TIP3    H239979   4.669   6.095   5.597
13353TIP3   OH239980   3.935   6.213   6.385
13353TIP3    H139981   3.939   6.278   6.455
13353TIP3    H239982   3.913   6.132   6.430
13354TIP3   OH239983   3.974   5.688   5.101
13354TIP3    H139984   3.963   5.691   5.196
13354TIP3    H239985   3.894   5.729   5.067
13355TIP3   OH239986   3.514   5.732   5.969
13355TIP3    H139987   3.592   5.766   6.014
13355TIP3    H239988   3.545   5.710   5.881
13356TIP3   OH239989   3.423   5.710   5.468
13356TIP3    H139990   3.469   5.746   5.392
13356TIP3    H239991   3.357   5.777   5.490
13357TIP3   OH239992   4.640   6.414   6.066
13357TIP3    H139993   4.668   6.348   6.002
13357TIP3    H239994   4.609   6.362   6.140
13358TIP3   OH239995   4.339   5.870   5.737
13358TIP3    H139996   4.260   5.866   5.791
13358TIP3    H239997   4.411   5.858   5.799
13359TIP3   OH239998   3.732   5.950   5.742
13359TIP3    H139999   3.644   5.955   5.705
13359TIP3    H240000   3.760   5.860   5.726
13360TIP3   OH240001   3.988   5.957   5.438
13360TIP3    H140002   4.082   5.965   5.426
13360TIP3    H240003   3.951   5.973   5.351
13361TIP3   OH240004   4.779   5.957   5.941
13361TIP3    H140005   4.759   5.972   6.033
13361TIP3    H240006   4.713   5.894   5.912
13362TIP3   OH240007   3.871   5.978   5.192
13362TIP3    H140008   3.809   5.926   5.140
13362TIP3    H240009   3.924   6.024   5.127
13363TIP3   OH240010   4.980   7.670   6.161
13363TIP3    H140011   4.975   7.684   6.066
13363TIP3    H240012   5.059   7.716   6.188
13364TIP3   OH240013   3.927   6.761   6.588
13364TIP3    H140014   4.007   6.782   6.637
13364TIP3    H240015   3.857   6.774   6.652
13365TIP3   OH240016   4.386   6.237   5.839
13365TIP3    H140017   4.450   6.188   5.788
13365TIP3    H240018   4.385   6.195   5.925
13366TIP3   OH240019   3.877   5.701   5.727
13366TIP3    H140020   3.847   5.627   5.780
13366TIP3    H240021   3.894   5.665   5.641
13367TIP3   OH240022   4.360   6.139   6.105
13367TIP3    H140023   4.271   6.168   6.126
13367TIP3    H240024   4.417   6.190   6.162
13368TIP3   OH240025   4.092   6.491   5.228
13368TIP3    H140026   4.017   6.437   5.200
13368TIP3    H240027   4.062   6.534   5.308
13369TIP3   OH240028   4.985   6.752   5.832
13369TIP3    H140029   5.025   6.799   5.759
13369TIP3    H240030   4.908   6.711   5.794
13370TIP3   OH240031   4.563   5.807   5.127
13370TIP3    H140032   4.470   5.785   5.122
13370TIP3    H240033   4.564   5.902   5.137
13371TIP3   OH240034   4.478   6.836   6.204
13371TIP3    H140035   4.459   6.792   6.287
13371TIP3    H240036   4.440   6.924   6.215
13372TIP3   OH240037   4.618   6.074   5.197
13372TIP3    H140038   4.713   6.079   5.209
13372TIP3    H240039   4.596   6.151   5.145
13373TIP3   OH240040   3.776   6.504   5.868
13373TIP3    H140041   3.814   6.488   5.781
13373TIP3    H240042   3.845   6.479   5.929
13374TIP3   OH240043   4.242   6.653   5.067
13374TIP3    H140044   4.196   6.737   5.065
13374TIP3    H240045   4.186   6.596   5.121
13375TIP3   OH240046   3.665   6.427   6.507
13375TIP3    H140047   3.660   6.400   6.599
13375TIP3    H240048   3.590   6.386   6.465
13376TIP3   OH240049   4.399   6.582   6.518
13376TIP3    H140050   4.339   6.515   6.484
13376TIP3    H240051   4.485   6.542   6.513
13377TIP3   OH240052   4.638   7.142   6.134
13377TIP3    H140053   4.545   7.122   6.144
13377TIP3    H240054   4.666   7.170   6.222
13378TIP3   OH240055   4.982   6.156   5.012
13378TIP3    H140056   4.956   6.111   4.932
13378TIP3    H240057   5.013   6.242   4.984
13379TIP3   OH240058   5.282   7.056   6.095
13379TIP3    H140059   5.202   7.008   6.116
13379TIP3    H240060   5.313   7.017   6.013
13380TIP3   OH240061   4.774   6.979   4.949
13380TIP3    H140062   4.747   6.911   5.012
13380TIP3    H240063   4.792   6.931   4.869
13381TIP3   OH240064   4.756   6.615   5.722
13381TIP3    H140065   4.664   6.592   5.740
13381TIP3    H240066   4.793   6.536   5.684
13382TIP3   OH240067   3.881   6.841   5.545
13382TIP3    H140068   3.894   6.914   5.484
13382TIP3    H240069   3.787   6.837   5.559
13383TIP3   OH240070   3.468   6.140   5.254
13383TIP3    H140071   3.508   6.224   5.275
13383TIP3    H240072   3.386   6.139   5.304
13384TIP3   OH240073   3.978   6.604   5.446
13384TIP3    H140074   3.951   6.690   5.477
13384TIP3    H240075   3.956   6.544   5.517
13385TIP3   OH240076   4.189   7.171   5.996
13385TIP3    H140077   4.222   7.245   5.945
13385TIP3    H240078   4.265   7.137   6.042
13386TIP3   OH240079   3.815   7.062   5.382
13386TIP3    H140080   3.733   7.038   5.426
13386TIP3    H240081   3.825   7.156   5.401
13387TIP3   OH240082   4.548   6.844   5.940
13387TIP3    H140083   4.530   6.836   6.034
13387TIP3    H240084   4.617   6.780   5.924
13388TIP3   OH240085   4.535   6.716   4.830
13388TIP3    H140086   4.585   6.689   4.907
13388TIP3    H240087   4.451   6.670   4.839
13389TIP3   OH240088   4.800   7.334   6.003
13389TIP3    H140089   4.729   7.274   6.026
13389TIP3    H240090   4.765   7.386   5.931
13390TIP3   OH240091   4.846   7.182   4.640
13390TIP3    H140092   4.859   7.242   4.566
13390TIP3    H240093   4.776   7.222   4.691
13391TIP3   OH240094   3.871   5.961   6.501
13391TIP3    H140095   3.776   5.974   6.502
13391TIP3    H240096   3.887   5.895   6.569
13392TIP3   OH240097   4.707   6.632   5.025
13392TIP3    H140098   4.693   6.578   5.103
13392TIP3    H240099   4.802   6.638   5.016
13393TIP3   OH240100   3.599   7.067   6.182
13393TIP3    H140101   3.573   6.978   6.159
13393TIP3    H240102   3.692   7.060   6.204
13394TIP3   OH240103   3.888   6.678   4.852
13394TIP3    H140104   3.898   6.587   4.825
13394TIP3    H240105   3.873   6.674   4.946
13395TIP3   OH240106   3.827   6.698   5.123
13395TIP3    H140107   3.880   6.672   5.199
13395TIP3    H240108   3.827   6.793   5.125
13396TIP3   OH240109   3.556   6.393   5.336
13396TIP3    H140110   3.500   6.447   5.392
13396TIP3    H240111   3.574   6.449   5.260
13397TIP3   OH240112   4.722   6.014   6.204
13397TIP3    H140113   4.803   6.056   6.232
13397TIP3    H240114   4.715   5.936   6.259
13398TIP3   OH240115   4.619   5.764   5.397
13398TIP3    H140116   4.599   5.781   5.305
13398TIP3    H240117   4.662   5.844   5.428
13399TIP3   OH240118   4.104   6.887   5.062
13399TIP3    H140119   4.017   6.907   5.096
13399TIP3    H240120   4.125   6.959   5.003
13400TIP3   OH240121   4.270   5.960   5.483
13400TIP3    H140122   4.331   6.028   5.457
13400TIP3    H240123   4.292   5.941   5.575
13401TIP3   OH240124   4.569   6.237   6.266
13401TIP3    H140125   4.595   6.251   6.357
13401TIP3    H240126   4.613   6.156   6.241
13402TIP3   OH240127   4.430   5.660   5.571
13402TIP3    H140128   4.406   5.738   5.622
13402TIP3    H240129   4.499   5.690   5.512
13403TIP3   OH240130   3.852   6.971   5.130
13403TIP3    H140131   3.831   7.045   5.073
13403TIP3    H240132   3.836   7.003   5.218
13404TIP3   OH240133   3.941   5.682   5.381
13404TIP3    H140134   3.929   5.773   5.408
13404TIP3    H240135   4.036   5.669   5.386
13405TIP3   OH240136   5.195   6.179   6.260
13405TIP3    H140137   5.101   6.163   6.259
13405TIP3    H240138   5.220   6.180   6.168
13406TIP3   OH240139   4.847   6.356   5.634
13406TIP3    H140140   4.771   6.299   5.643
13406TIP3    H240141   4.914   6.315   5.689
13407TIP3   OH240142   3.582   6.563   5.117
13407TIP3    H140143   3.652   6.628   5.126
13407TIP3    H240144   3.616   6.502   5.052
13408TIP3   OH240145   3.494   5.861   5.251
13408TIP3    H140146   3.503   5.956   5.258
13408TIP3    H240147   3.445   5.848   5.169
13409TIP3   OH240148   4.826   7.334   5.575
13409TIP3    H140149   4.783   7.387   5.507
13409TIP3    H240150   4.920   7.349   5.561
13410TIP3   OH240151   3.892   5.578   6.116
13410TIP3    H140152   3.863   5.546   6.031
13410TIP3    H240153   3.882   5.503   6.175
13411TIP3   OH240154   3.621   7.362   6.573
13411TIP3    H140155   3.695   7.369   6.632
13411TIP3    H240156   3.625   7.272   6.541
13412TIP3   OH240157   4.057   7.319   6.611
13412TIP3    H140158   4.153   7.324   6.613
13412TIP3    H240159   4.039   7.252   6.546
13413TIP3   OH240160   4.041   6.878   4.737
13413TIP3    H140161   3.994   6.809   4.783
13413TIP3    H240162   4.116   6.833   4.697
13414TIP3   OH240163   4.745   7.196   6.390
13414TIP3    H140164   4.783   7.109   6.385
13414TIP3    H240165   4.820   7.254   6.407
13415TIP3   OH240166   4.485   6.923   4.660
13415TIP3    H140167   4.516   6.858   4.723
13415TIP3    H240168   4.544   6.914   4.585
13416TIP3   OH240169   3.714   6.787   6.773
13416TIP3    H140170   3.734   6.694   6.786
13416TIP3    H240171   3.630   6.787   6.728
13417TIP3   OH240172   3.709   6.378   4.961
13417TIP3    H140173   3.760   6.354   5.039
13417TIP3    H240174   3.775   6.390   4.892
13418TIP3   OH240175   4.342   6.847   6.539
13418TIP3    H140176   4.286   6.871   6.465
13418TIP3    H240177   4.361   6.754   6.527
13419TIP3   OH240178   4.283   6.596   4.802
13419TIP3    H140179   4.259   6.606   4.894
13419TIP3    H240180   4.263   6.504   4.782
13420TIP3   OH240181   4.818   6.930   6.193
13420TIP3    H140182   4.893   6.944   6.136
13420TIP3    H240183   4.747   6.981   6.154
13421TIP3   OH240184   3.827   6.533   6.777
13421TIP3    H140185   3.895   6.503   6.717
13421TIP3    H240186   3.872   6.540   6.862
13422TIP3   OH240187   3.881   6.318   5.174
13422TIP3    H140188   3.859   6.288   5.262
13422TIP3    H240189   3.928   6.245   5.134
13423TIP3   OH240190   4.202   6.400   6.427
13423TIP3    H140191   4.114   6.436   6.437
13423TIP3    H240192   4.230   6.429   6.340
13424TIP3   OH240193   4.020   6.133   5.021
13424TIP3    H140194   3.990   6.136   4.930
13424TIP3    H240195   4.115   6.142   5.015
13425TIP3   OH240196   4.812   6.420   4.702
13425TIP3    H140197   4.800   6.380   4.615
13425TIP3    H240198   4.790   6.512   4.689
13426TIP3   OH240199   4.304   6.169   6.535
13426TIP3    H140200   4.303   6.098   6.472
13426TIP3    H240201   4.268   6.244   6.488
13427TIP3   OH240202   4.307   5.968   6.335
13427TIP3    H140203   4.334   6.002   6.250
13427TIP3    H240204   4.216   5.940   6.322
13428TIP3   OH240205   4.320   6.496   6.201
13428TIP3    H140206   4.405   6.505   6.159
13428TIP3    H240207   4.262   6.554   6.150
13429TIP3   OH240208   4.928   6.460   6.566
13429TIP3    H140209   4.939   6.365   6.567
13429TIP3    H240210   5.000   6.492   6.511
13430TIP3   OH240211   4.937   6.698   6.277
13430TIP3    H140212   4.884   6.772   6.247
13430TIP3    H240213   5.027   6.722   6.256
13431TIP3   OH240214   4.186   6.244   6.782
13431TIP3    H140215   4.117   6.180   6.800
13431TIP3    H240216   4.214   6.225   6.692
13432TIP3   OH240217   4.429   5.738   6.439
13432TIP3    H140218   4.388   5.818   6.405
13432TIP3    H240219   4.364   5.669   6.425
13433TIP3   OH240220   4.561   6.206   6.635
13433TIP3    H140221   4.548   6.188   6.729
13433TIP3    H240222   4.475   6.188   6.596
13434TIP3   OH240223   4.813   6.187   6.515
13434TIP3    H140224   4.733   6.176   6.566
13434TIP3    H240225   4.882   6.151   6.570
13435TIP3   OH240226   5.039   6.123   6.665
13435TIP3    H140227   5.053   6.029   6.669
13435TIP3    H240228   5.036   6.151   6.756
13436TIP3   OH240229   4.016   6.028   6.846
13436TIP3    H140230   4.020   5.941   6.807
13436TIP3    H240231   4.056   6.018   6.932
13437TIP3   OH240232   4.495   5.711   6.704
13437TIP3    H140233   4.563   5.643   6.696
13437TIP3    H240234   4.464   5.724   6.614
13438TIP3   OH240235   4.591   5.924   6.849
13438TIP3    H140236   4.561   5.852   6.794
13438TIP3    H240237   4.519   5.987   6.848
13439TIP3   OH240238   3.852   7.188   4.954
13439TIP3    H140239   3.938   7.161   4.925
13439TIP3    H240240   3.812   7.230   4.878
13440TIP3   OH240241   3.308   6.569   5.091
13440TIP3    H140242   3.402   6.575   5.109
13440TIP3    H240243   3.295   6.478   5.066
13441TIP3   OH240244   3.194   7.148   5.591
13441TIP3    H140245   3.135   7.086   5.549
13441TIP3    H240246   3.247   7.094   5.650
13442TIP3   OH240247   3.370   7.012   5.753
13442TIP3    H140248   3.426   6.972   5.687
13442TIP3    H240249   3.430   7.065   5.806
13443TIP3   OH240250   5.093   7.397   5.562
13443TIP3    H140251   5.120   7.420   5.651
13443TIP3    H240252   5.163   7.432   5.506
13444TIP3   OH240253   5.118   7.417   5.845
13444TIP3    H140254   5.070   7.335   5.835
13444TIP3    H240255   5.186   7.398   5.910
13445TIP3   OH240256   4.985   6.636   5.015
13445TIP3    H140257   5.045   6.705   4.987
13445TIP3    H240258   5.020   6.606   5.099
13446TIP3   OH240259   5.089   6.530   5.243
13446TIP3    H140260   5.033   6.467   5.288
13446TIP3    H240261   5.170   6.530   5.294
13447TIP3   OH240262   5.168   6.880   5.665
13447TIP3    H140263   5.218   6.808   5.627
13447TIP3    H240264   5.171   6.949   5.599
13448TIP3   OH240265   4.975   7.182   5.845
13448TIP3    H140266   4.907   7.221   5.900
13448TIP3    H240267   4.926   7.137   5.776
13449TIP3   OH240268   5.025   6.400   4.875
13449TIP3    H140269   4.951   6.400   4.815
13449TIP3    H240270   5.012   6.477   4.929
13450TIP3   OH240271   4.901   6.034   4.775
13450TIP3    H140272   4.840   6.060   4.706
13450TIP3    H240273   4.887   5.939   4.785
13451TIP3   OH240274   4.910   6.348   5.362
13451TIP3    H140275   4.918   6.254   5.345
13451TIP3    H240276   4.895   6.354   5.456
13452TIP3   OH240277   3.532   6.382   6.149
13452TIP3    H140278   3.524   6.363   6.055
13452TIP3    H240279   3.627   6.387   6.164
13453TIP3   OH240280   5.196   6.771   6.215
13453TIP3    H140281   5.261   6.702   6.205
13453TIP3    H240282   5.210   6.805   6.303
13454TIP3   OH240283   5.363   6.548   6.227
13454TIP3    H140284   5.294   6.517   6.286
13454TIP3    H240285   5.441   6.498   6.252
13455TIP3   OH240286   4.853   5.761   4.803
13455TIP3    H140287   4.901   5.743   4.884
13455TIP3    H240288   4.763   5.731   4.822
13456TIP3   OH240289   4.903   6.072   5.261
13456TIP3    H140290   4.952   5.991   5.273
13456TIP3    H240291   4.935   6.107   5.178
13457TIP3   OH240292   5.060   6.232   5.777
13457TIP3    H140293   5.139   6.253   5.727
13457TIP3    H240294   5.076   6.272   5.863
13458TIP3   OH240295   5.137   6.381   6.006
13458TIP3    H140296   5.058   6.408   6.054
13458TIP3    H240297   5.167   6.460   5.962
13459TIP3   OH240298   3.750   6.088   6.791
13459TIP3    H140299   3.845   6.081   6.804
13459TIP3    H240300   3.715   6.006   6.825
13460TIP3   OH240301   5.599   5.978   6.546
13460TIP3    H140302   5.663   5.923   6.501
13460TIP3    H240303   5.557   6.028   6.477
13461TIP3   OH240304   5.022   5.828   5.323
13461TIP3    H140305   5.078   5.814   5.400
13461TIP3    H240306   4.963   5.752   5.322
13462TIP3   OH240307   3.730   5.804   6.135
13462TIP3    H140308   3.783   5.724   6.138
13462TIP3    H240309   3.793   5.873   6.113
13463TIP3   OH240310   3.505   6.082   6.185
13463TIP3    H140311   3.561   6.058   6.111
13463TIP3    H240312   3.516   6.177   6.194
13464TIP3   OH240313   5.445   6.093   6.355
13464TIP3    H140314   5.364   6.140   6.374
13464TIP3    H240315   5.419   6.023   6.296
13465TIP3   OH240316   5.100   5.735   4.962
13465TIP3    H140317   5.132   5.780   4.884
13465TIP3    H240318   5.151   5.772   5.034
13466TIP3   OH240319   3.498   5.596   5.704
13466TIP3    H140320   3.412   5.573   5.739
13466TIP3    H240321   3.479   5.642   5.623
13467TIP3   OH240322   4.657   7.301   5.211
13467TIP3    H140323   4.713   7.287   5.134
13467TIP3    H240324   4.702   7.370   5.260
13468TIP3   OH240325   3.727   5.651   6.529
13468TIP3    H140326   3.669   5.631   6.603
13468TIP3    H240327   3.670   5.692   6.464
13469TIP3   OH240328   3.752   7.097   6.590
13469TIP3    H140329   3.660   7.073   6.598
13469TIP3    H240330   3.789   7.081   6.677
13470TIP3   OH240331   3.959   7.146   6.149
13470TIP3    H140332   3.910   7.219   6.113
13470TIP3    H240333   4.042   7.147   6.101
13471TIP3   OH240334   4.363   7.368   6.293
13471TIP3    H140335   4.412   7.356   6.374
13471TIP3    H240336   4.420   7.422   6.238
13472TIP3   OH240337   4.544   7.520   6.153
13472TIP3    H140338   4.599   7.471   6.091
13472TIP3    H240339   4.606   7.574   6.203
13473TIP3   OH240340   5.352   5.858   6.234
13473TIP3    H140341   5.272   5.867   6.182
13473TIP3    H240342   5.375   5.765   6.225
13474TIP3   OH240343   3.635   7.434   6.172
13474TIP3    H140344   3.541   7.431   6.158
13474TIP3    H240345   3.646   7.487   6.251
13475TIP3   OH240346   3.860   7.374   6.034
13475TIP3    H140347   3.779   7.392   6.081
13475TIP3    H240348   3.837   7.387   5.942
13476TIP3   OH240349   4.264   7.383   5.833
13476TIP3    H140350   4.195   7.390   5.767
13476TIP3    H240351   4.272   7.471   5.868
13477TIP3   OH240352   4.530   7.331   5.887
13477TIP3    H140353   4.438   7.345   5.863
13477TIP3    H240354   4.579   7.391   5.832
13478TIP3   OH240355   4.734   7.494   5.779
13478TIP3    H140356   4.732   7.580   5.738
13478TIP3    H240357   4.765   7.435   5.710
13479TIP3   OH240358   3.533   7.170   5.929
13479TIP3    H140359   3.560   7.153   6.019
13479TIP3    H240360   3.608   7.144   5.876
13480TIP3   OH240361   3.735   7.094   5.774
13480TIP3    H140362   3.706   7.033   5.706
13480TIP3    H240363   3.830   7.098   5.764
13481TIP3   OH240364   4.018   7.126   5.778
13481TIP3    H140365   4.025   7.031   5.766
13481TIP3    H240366   4.068   7.144   5.857
13482TIP3   OH240367   4.564   5.774   5.879
13482TIP3    H140368   4.524   5.702   5.927
13482TIP3    H240369   4.632   5.733   5.826
13483TIP3   OH240370   5.087   5.698   5.730
13483TIP3    H140371   5.133   5.753   5.667
13483TIP3    H240372   5.003   5.740   5.743
13484TIP3   OH240373   5.227   5.803   5.510
13484TIP3    H140374   5.286   5.733   5.480
13484TIP3    H240375   5.280   5.882   5.506
13485TIP3   OH240376   3.803   5.478   5.875
13485TIP3    H140377   3.714   5.444   5.884
13485TIP3    H240378   3.857   5.399   5.865
13486TIP3   OH240379   3.628   5.396   5.537
13486TIP3    H140380   3.651   5.441   5.455
13486TIP3    H240381   3.592   5.465   5.593
13487TIP3   OH240382   4.287   5.515   5.769
13487TIP3    H140383   4.334   5.562   5.700
13487TIP3    H240384   4.329   5.545   5.850
13488TIP3   OH240385   4.780   5.666   5.746
13488TIP3    H140386   4.792   5.632   5.657
13488TIP3    H240387   4.791   5.589   5.802
13489TIP3   OH240388   4.842   5.611   5.322
13489TIP3    H140389   4.761   5.658   5.341
13489TIP3    H240390   4.828   5.523   5.355
13490TIP3   OH240391   3.732   5.515   5.291
13490TIP3    H140392   3.777   5.450   5.236
13490TIP3    H240393   3.802   5.570   5.326
13491TIP3   OH240394   4.216   5.710   5.385
13491TIP3    H140395   4.275   5.654   5.436
13491TIP3    H240396   4.235   5.798   5.415
13492TIP3   OH240397   4.101   7.102   4.880
13492TIP3    H140398   4.185   7.130   4.842
13492TIP3    H240399   4.072   7.030   4.824
13493TIP3   OH240400   4.807   7.248   4.982
13493TIP3    H140401   4.800   7.153   4.976
13493TIP3    H240402   4.762   7.281   4.905
13494TIP3   OH240403   4.034   5.757   6.763
13494TIP3    H140404   4.000   5.688   6.819
13494TIP3    H240405   4.126   5.765   6.787
13495TIP3   OH240406   4.283   5.765   6.883
13495TIP3    H140407   4.358   5.742   6.829
13495TIP3    H240408   4.275   5.694   6.946
13496TIP3   OH240409   3.411   6.956   4.930
13496TIP3    H140410   3.407   6.963   5.025
13496TIP3    H240411   3.491   6.905   4.913
13497TIP3   OH240412   5.102   5.852   6.665
13497TIP3    H140413   5.121   5.822   6.754
13497TIP3    H240414   5.187   5.847   6.620
13498TIP3   OH240415   5.010   7.397   6.171
13498TIP3    H140416   4.942   7.365   6.113
13498TIP3    H240417   5.000   7.492   6.169
13499TIP3   OH240418   6.304   6.773   4.902
13499TIP3    H140419   6.271   6.860   4.881
13499TIP3    H240420   6.230   6.715   4.884
13500TIP3   OH240421   6.312   6.774   5.336
13500TIP3    H140422   6.358   6.754   5.417
13500TIP3    H240423   6.256   6.697   5.321
13501TIP3   OH240424   5.592   6.631   5.677
13501TIP3    H140425   5.629   6.578   5.746
13501TIP3    H240426   5.666   6.653   5.620
13502TIP3   OH240427   6.567   7.072   5.009
13502TIP3    H140428   6.554   7.006   5.077
13502TIP3    H240429   6.585   7.153   5.057
13503TIP3   OH240430   5.587   7.057   5.372
13503TIP3    H140431   5.571   6.963   5.373
13503TIP3    H240432   5.682   7.065   5.364
13504TIP3   OH240433   5.341   6.538   5.376
13504TIP3    H140434   5.382   6.452   5.389
13504TIP3    H240435   5.410   6.590   5.334
13505TIP3   OH240436   6.229   7.500   5.030
13505TIP3    H140437   6.251   7.437   4.962
13505TIP3    H240438   6.240   7.451   5.112
13506TIP3   OH240439   6.103   7.006   5.307
13506TIP3    H140440   6.137   6.916   5.304
13506TIP3    H240441   6.175   7.057   5.344
13507TIP3   OH240442   7.138   6.309   5.359
13507TIP3    H140443   7.153   6.391   5.407
13507TIP3    H240444   7.157   6.331   5.268
13508TIP3   OH240445   6.493   6.472   5.384
13508TIP3    H140446   6.527   6.386   5.405
13508TIP3    H240447   6.464   6.466   5.293
13509TIP3   OH240448   5.879   6.139   5.337
13509TIP3    H140449   5.831   6.201   5.282
13509TIP3    H240450   5.844   6.053   5.312
13510TIP3   OH240451   6.556   6.236   4.974
13510TIP3    H140452   6.621   6.226   5.043
13510TIP3    H240453   6.603   6.273   4.900
13511TIP3   OH240454   5.461   6.294   5.443
13511TIP3    H140455   5.551   6.282   5.473
13511TIP3    H240456   5.449   6.226   5.376
13512TIP3   OH240457   5.898   6.531   5.264
13512TIP3    H140458   5.991   6.513   5.278
13512TIP3    H240459   5.860   6.445   5.243
13513TIP3   OH240460   7.190   6.529   5.519
13513TIP3    H140461   7.102   6.567   5.515
13513TIP3    H240462   7.228   6.567   5.598
13514TIP3   OH240463   5.840   6.144   5.781
13514TIP3    H140464   5.787   6.172   5.707
13514TIP3    H240465   5.785   6.160   5.858
13515TIP3   OH240466   6.196   6.993   4.770
13515TIP3    H140467   6.155   6.962   4.689
13515TIP3    H240468   6.143   7.067   4.797
13516TIP3   OH240469   5.926   6.882   5.597
13516TIP3    H140470   5.883   6.965   5.617
13516TIP3    H240471   6.001   6.880   5.657
13517TIP3   OH240472   6.734   6.253   5.181
13517TIP3    H140473   6.681   6.231   5.257
13517TIP3    H240474   6.783   6.331   5.207
13518TIP3   OH240475   5.720   6.237   5.548
13518TIP3    H140476   5.770   6.315   5.570
13518TIP3    H240477   5.771   6.194   5.479
13519TIP3   OH240478   5.781   7.117   5.667
13519TIP3    H140479   5.765   7.203   5.629
13519TIP3    H240480   5.701   7.097   5.715
13520TIP3   OH240481   5.161   6.827   4.904
13520TIP3    H140482   5.123   6.850   4.820
13520TIP3    H240483   5.185   6.911   4.944
13521TIP3   OH240484   6.595   7.323   5.143
13521TIP3    H140485   6.508   7.318   5.182
13521TIP3    H240486   6.597   7.407   5.098
13522TIP3   OH240487   6.946   6.190   5.536
13522TIP3    H140488   6.856   6.218   5.517
13522TIP3    H240489   6.997   6.223   5.462
13523TIP3   OH240490   6.205   5.854   5.529
13523TIP3    H140491   6.179   5.767   5.501
13523TIP3    H240492   6.125   5.893   5.565
13524TIP3   OH240493   6.308   7.358   4.803
13524TIP3    H140494   6.361   7.279   4.794
13524TIP3    H240495   6.366   7.429   4.774
13525TIP3   OH240496   6.443   7.124   4.768
13525TIP3    H140497   6.369   7.064   4.768
13525TIP3    H240498   6.494   7.099   4.845
13526TIP3   OH240499   6.832   7.206   5.496
13526TIP3    H140500   6.805   7.130   5.444
13526TIP3    H240501   6.813   7.281   5.440
13527TIP3   OH240502   6.124   6.610   4.763
13527TIP3    H140503   6.040   6.653   4.746
13527TIP3    H240504   6.170   6.613   4.679
13528TIP3   OH240505   6.086   6.429   4.451
13528TIP3    H140506   6.152   6.474   4.503
13528TIP3    H240507   6.135   6.359   4.407
13529TIP3   OH240508   7.012   6.867   5.360
13529TIP3    H140509   6.927   6.912   5.357
13529TIP3    H240510   7.052   6.886   5.275
13530TIP3   OH240511   6.490   6.697   4.719
13530TIP3    H140512   6.432   6.727   4.789
13530TIP3    H240513   6.573   6.679   4.762
13531TIP3   OH240514   6.720   6.726   5.664
13531TIP3    H140515   6.723   6.808   5.713
13531TIP3    H240516   6.636   6.728   5.618
13532TIP3   OH240517   5.712   6.682   5.121
13532TIP3    H140518   5.673   6.622   5.057
13532TIP3    H240519   5.781   6.630   5.163
13533TIP3   OH240520   5.847   7.111   5.268
13533TIP3    H140521   5.831   7.087   5.177
13533TIP3    H240522   5.933   7.073   5.288
13534TIP3   OH240523   5.803   6.666   5.493
13534TIP3    H140524   5.846   6.638   5.412
13534TIP3    H240525   5.852   6.743   5.521
13535TIP3   OH240526   6.356   7.332   5.272
13535TIP3    H140527   6.349   7.404   5.335
13535TIP3    H240528   6.347   7.253   5.325
13536TIP3   OH240529   5.976   7.236   5.821
13536TIP3    H140530   5.911   7.291   5.865
13536TIP3    H240531   5.923   7.176   5.768
13537TIP3   OH240532   6.315   6.561   4.553
13537TIP3    H140533   6.375   6.620   4.599
13537TIP3    H240534   6.342   6.566   4.461
13538TIP3   OH240535   5.726   6.759   5.991
13538TIP3    H140536   5.727   6.855   5.992
13538TIP3    H240537   5.634   6.737   5.977
13539TIP3   OH240538   6.062   7.233   4.806
13539TIP3    H140539   6.143   7.284   4.815
13539TIP3    H240540   6.002   7.292   4.761
13540TIP3   OH240541   5.762   7.386   5.910
13540TIP3    H140542   5.738   7.389   5.817
13540TIP3    H240543   5.681   7.365   5.956
13541TIP3   OH240544   6.837   5.799   4.619
13541TIP3    H140545   6.759   5.821   4.669
13541TIP3    H240546   6.866   5.882   4.582
13542TIP3   OH240547   5.583   6.525   4.924
13542TIP3    H140548   5.503   6.569   4.897
13542TIP3    H240549   5.554   6.438   4.951
13543TIP3   OH240550   6.635   7.168   4.168
13543TIP3    H140551   6.641   7.261   4.146
13543TIP3    H240552   6.724   7.135   4.159
13544TIP3   OH240553   5.363   6.929   5.866
13544TIP3    H140554   5.295   6.907   5.802
13544TIP3    H240555   5.394   6.845   5.899
13545TIP3   OH240556   5.231   7.104   5.500
13545TIP3    H140557   5.327   7.101   5.491
13545TIP3    H240558   5.214   7.180   5.555
13546TIP3   OH240559   7.066   7.592   5.554
13546TIP3    H140560   7.076   7.497   5.558
13546TIP3    H240561   6.988   7.611   5.606
13547TIP3   OH240562   6.168   7.365   5.679
13547TIP3    H140563   6.160   7.455   5.711
13547TIP3    H240564   6.102   7.316   5.729
13548TIP3   OH240565   5.950   7.456   4.640
13548TIP3    H140566   5.900   7.434   4.561
13548TIP3    H240567   5.911   7.538   4.671
13549TIP3   OH240568   5.387   7.313   5.021
13549TIP3    H140569   5.430   7.303   5.106
13549TIP3    H240570   5.336   7.232   5.011
13550TIP3   OH240571   6.151   7.389   4.267
13550TIP3    H140572   6.202   7.316   4.232
13550TIP3    H240573   6.186   7.404   4.355
13551TIP3   OH240574   6.203   7.436   4.536
13551TIP3    H140575   6.117   7.437   4.577
13551TIP3    H240576   6.261   7.397   4.602
13552TIP3   OH240577   6.961   6.683   5.835
13552TIP3    H140578   6.875   6.701   5.797
13552TIP3    H240579   6.972   6.588   5.823
13553TIP3   OH240580   5.555   7.123   5.831
13553TIP3    H140581   5.607   7.109   5.910
13553TIP3    H240582   5.486   7.057   5.836
13554TIP3   OH240583   5.954   5.928   5.646
13554TIP3    H140584   5.871   5.893   5.613
13554TIP3    H240585   5.931   6.010   5.688
13555TIP3   OH240586   6.486   6.043   5.846
13555TIP3    H140587   6.550   6.026   5.914
13555TIP3    H240588   6.401   6.036   5.890
13556TIP3   OH240589   6.699   6.460   5.745
13556TIP3    H140590   6.656   6.458   5.831
13556TIP3    H240591   6.691   6.551   5.716
13557TIP3   OH240592   6.389   6.526   4.287
13557TIP3    H140593   6.345   6.534   4.202
13557TIP3    H240594   6.470   6.576   4.276
13558TIP3   OH240595   6.108   5.963   4.616
13558TIP3    H140596   6.069   5.972   4.703
13558TIP3    H240597   6.070   5.883   4.580
13559TIP3   OH240598   5.882   6.446   5.640
13559TIP3    H140599   5.840   6.457   5.726
13559TIP3    H240600   5.859   6.525   5.592
13560TIP3   OH240601   5.720   6.296   5.181
13560TIP3    H140602   5.638   6.251   5.201
13560TIP3    H240603   5.740   6.271   5.091
13561TIP3   OH240604   6.246   6.409   4.904
13561TIP3    H140605   6.197   6.481   4.864
13561TIP3    H240606   6.301   6.375   4.834
13562TIP3   OH240607   6.455   6.717   6.039
13562TIP3    H140608   6.418   6.635   6.071
13562TIP3    H240609   6.550   6.704   6.043
13563TIP3   OH240610   6.419   6.430   5.123
13563TIP3    H140611   6.346   6.450   5.064
13563TIP3    H240612   6.460   6.352   5.086
13564TIP3   OH240613   5.720   6.467   5.865
13564TIP3    H140614   5.756   6.528   5.929
13564TIP3    H240615   5.703   6.387   5.914
13565TIP3   OH240616   5.762   5.940   4.576
13565TIP3    H140617   5.752   5.939   4.671
13565TIP3    H240618   5.688   5.992   4.545
13566TIP3   OH240619   5.330   5.901   4.877
13566TIP3    H140620   5.317   5.989   4.841
13566TIP3    H240621   5.330   5.913   4.972
13567TIP3   OH240622   6.468   6.684   5.553
13567TIP3    H140623   6.480   6.606   5.498
13567TIP3    H240624   6.409   6.656   5.623
13568TIP3   OH240625   6.134   6.122   5.220
13568TIP3    H140626   6.056   6.132   5.275
13568TIP3    H240627   6.206   6.112   5.283
13569TIP3   OH240628   5.779   6.205   4.930
13569TIP3    H140629   5.873   6.216   4.921
13569TIP3    H240630   5.744   6.217   4.842
13570TIP3   OH240631   6.573   6.209   5.399
13570TIP3    H140632   6.590   6.201   5.493
13570TIP3    H240633   6.497   6.153   5.384
13571TIP3   OH240634   5.674   6.230   4.677
13571TIP3    H140635   5.610   6.186   4.620
13571TIP3    H240636   5.729   6.281   4.617
13572TIP3   OH240637   6.770   7.916   5.654
13572TIP3    H140638   6.772   7.928   5.559
13572TIP3    H240639   6.852   7.956   5.685
13573TIP3   OH240640   5.705   7.032   6.065
13573TIP3    H140641   5.788   7.048   6.110
13573TIP3    H240642   5.639   7.029   6.135
13574TIP3   OH240643   6.171   6.490   5.338
13574TIP3    H140644   6.245   6.446   5.297
13574TIP3    H240645   6.171   6.458   5.428
13575TIP3   OH240646   5.760   5.915   5.233
13575TIP3    H140647   5.720   5.841   5.278
13575TIP3    H240648   5.686   5.969   5.206
13576TIP3   OH240649   6.156   6.410   5.610
13576TIP3    H140650   6.064   6.432   5.624
13576TIP3    H240651   6.204   6.474   5.662
13577TIP3   OH240652   5.889   6.744   4.705
13577TIP3    H140653   5.813   6.691   4.680
13577TIP3    H240654   5.862   6.789   4.785
13578TIP3   OH240655   6.776   7.004   5.316
13578TIP3    H140656   6.812   7.055   5.243
13578TIP3    H240657   6.697   6.964   5.281
13579TIP3   OH240658   6.358   6.069   4.603
13579TIP3    H140659   6.265   6.044   4.607
13579TIP3    H240660   6.359   6.163   4.622
13580TIP3   OH240661   6.325   7.103   5.695
13580TIP3    H140662   6.282   7.024   5.728
13580TIP3    H240663   6.264   7.174   5.717
13581TIP3   OH240664   6.404   6.332   4.683
13581TIP3    H140665   6.498   6.343   4.700
13581TIP3    H240666   6.379   6.410   4.635
13582TIP3   OH240667   5.585   6.777   5.350
13582TIP3    H140668   5.620   6.753   5.264
13582TIP3    H240669   5.647   6.739   5.412
13583TIP3   OH240670   6.041   6.909   4.550
13583TIP3    H140671   5.993   6.992   4.548
13583TIP3    H240672   5.986   6.851   4.602
13584TIP3   OH240673   5.453   6.696   6.000
13584TIP3    H140674   5.453   6.666   6.091
13584TIP3    H240675   5.378   6.652   5.960
13585TIP3   OH240676   6.437   7.404   5.609
13585TIP3    H140677   6.345   7.377   5.612
13585TIP3    H240678   6.462   7.416   5.701
13586TIP3   OH240679   6.807   6.414   4.474
13586TIP3    H140680   6.758   6.358   4.414
13586TIP3    H240681   6.782   6.503   4.449
13587TIP3   OH240682   7.073   7.319   5.564
13587TIP3    H140683   6.982   7.289   5.571
13587TIP3    H240684   7.106   7.277   5.484
13588TIP3   OH240685   6.564   7.237   4.434
13588TIP3    H140686   6.537   7.164   4.489
13588TIP3    H240687   6.580   7.198   4.348
13589TIP3   OH240688   6.551   6.869   5.208
13589TIP3    H140689   6.464   6.846   5.238
13589TIP3    H240690   6.586   6.788   5.170
13590TIP3   OH240691   5.699   7.107   5.019
13590TIP3    H140692   5.691   7.184   4.962
13590TIP3    H240693   5.613   7.100   5.060
13591TIP3   OH240694   5.265   6.395   4.740
13591TIP3    H140695   5.306   6.478   4.762
13591TIP3    H240696   5.185   6.394   4.793
13592TIP3   OH240697   5.786   6.865   4.923
13592TIP3    H140698   5.768   6.953   4.955
13592TIP3    H240699   5.764   6.808   4.996
13593TIP3   OH240700   5.983   7.436   5.478
13593TIP3    H140701   6.022   7.507   5.426
13593TIP3    H240702   6.055   7.399   5.528
13594TIP3   OH240703   5.615   7.332   4.869
13594TIP3    H140704   5.530   7.336   4.912
13594TIP3    H240705   5.650   7.421   4.877
13595TIP3   OH240706   6.347   7.095   5.421
13595TIP3    H140707   6.339   7.097   5.516
13595TIP3    H240708   6.390   7.012   5.402
13596TIP3   OH240709   6.329   6.973   4.328
13596TIP3    H140710   6.384   6.942   4.400
13596TIP3    H240711   6.244   6.931   4.342
13597TIP3   OH240712   6.602   7.587   5.490
13597TIP3    H140713   6.536   7.525   5.521
13597TIP3    H240714   6.557   7.637   5.422
13598TIP3   OH240715   6.655   7.443   4.137
13598TIP3    H140716   6.708   7.514   4.102
13598TIP3    H240717   6.576   7.485   4.171
13599TIP3   OH240718   5.671   6.216   5.992
13599TIP3    H140719   5.576   6.224   5.996
13599TIP3    H240720   5.694   6.164   6.070
13600TIP3   OH240721   6.514   6.877   4.508
13600TIP3    H140722   6.498   6.827   4.587
13600TIP3    H240723   6.610   6.887   4.505
13601TIP3   OH240724   5.408   7.319   5.650
13601TIP3    H140725   5.457   7.254   5.701
13601TIP3    H240726   5.428   7.402   5.692
13602TIP3   OH240727   5.683   6.937   4.339
13602TIP3    H140728   5.693   6.845   4.312
13602TIP3    H240729   5.669   6.933   4.433
13603TIP3   OH240730   5.625   6.956   4.611
13603TIP3    H140731   5.681   6.930   4.685
13603TIP3    H240732   5.625   7.052   4.614
13604TIP3   OH240733   5.357   6.647   4.818
13604TIP3    H140734   5.291   6.695   4.869
13604TIP3    H240735   5.376   6.705   4.744
13605TIP3   OH240736   6.624   6.205   5.663
13605TIP3    H140737   6.640   6.292   5.700
13605TIP3    H240738   6.571   6.160   5.729
13606TIP3   OH240739   6.414   6.015   4.878
13606TIP3    H140740   6.391   6.038   4.788
13606TIP3    H240741   6.454   6.095   4.914
13607TIP3   OH240742   5.896   7.137   4.541
13607TIP3    H140743   5.811   7.161   4.580
13607TIP3    H240744   5.919   7.212   4.486
13608TIP3   OH240745   6.061   6.214   4.969
13608TIP3    H140746   6.121   6.285   4.947
13608TIP3    H240747   6.082   6.193   5.060
13609TIP3   OH240748   6.304   6.598   5.761
13609TIP3    H140749   6.256   6.680   5.771
13609TIP3    H240750   6.354   6.589   5.842
13610TIP3   OH240751   6.225   5.913   5.058
13610TIP3    H140752   6.204   5.989   5.112
13610TIP3    H240753   6.293   5.944   4.998
13611TIP3   OH240754   5.647   7.230   4.617
13611TIP3    H140755   5.626   7.302   4.558
13611TIP3    H240756   5.634   7.266   4.705
13612TIP3   OH240757   5.731   5.916   4.847
13612TIP3    H140758   5.701   5.991   4.899
13612TIP3    H240759   5.825   5.911   4.865
13613TIP3   OH240760   6.967   6.414   5.740
13613TIP3    H140761   6.872   6.420   5.749
13613TIP3    H240762   6.981   6.359   5.664
13614TIP3   OH240763   6.642   6.611   5.119
13614TIP3    H140764   6.563   6.557   5.131
13614TIP3    H240765   6.706   6.571   5.178
13615TIP3   OH240766   5.382   6.821   4.600
13615TIP3    H140767   5.454   6.884   4.609
13615TIP3    H240768   5.413   6.758   4.535
13616TIP3   OH240769   5.276   6.117   4.715
13616TIP3    H140770   5.303   6.207   4.730
13616TIP3    H240771   5.181   6.122   4.703
13617TIP3   OH240772   6.620   7.589   5.064
13617TIP3    H140773   6.578   7.643   4.996
13617TIP3    H240774   6.714   7.600   5.048
13618TIP3   OH240775   5.693   5.839   5.607
13618TIP3    H140776   5.668   5.811   5.519
13618TIP3    H240777   5.682   5.761   5.661
13619TIP3   OH240778   5.210   7.095   4.991
13619TIP3    H140779   5.162   7.127   5.067
13619TIP3    H240780   5.166   7.137   4.916
13620TIP3   OH240781   5.411   7.622   6.066
13620TIP3    H140782   5.496   7.621   6.111
13620TIP3    H240783   5.389   7.530   6.055
13621TIP3   OH240784   5.885   7.533   6.106
13621TIP3    H140785   5.973   7.497   6.111
13621TIP3    H240786   5.844   7.486   6.033
13622TIP3   OH240787   5.837   7.135   4.223
13622TIP3    H140788   5.791   7.066   4.270
13622TIP3    H240789   5.913   7.091   4.184
13623TIP3   OH240790   6.496   7.460   5.874
13623TIP3    H140791   6.514   7.388   5.934
13623TIP3    H240792   6.571   7.519   5.883
13624TIP3   OH240793   6.280   7.178   4.152
13624TIP3    H140794   6.313   7.114   4.215
13624TIP3    H240795   6.342   7.172   4.079
13625TIP3   OH240796   5.502   7.018   6.260
13625TIP3    H140797   5.486   6.937   6.308
13625TIP3    H240798   5.423   7.032   6.209
13626TIP3   OH240799   5.505   6.631   4.447
13626TIP3    H140800   5.554   6.607   4.525
13626TIP3    H240801   5.572   6.645   4.380
13627TIP3   OH240802   6.120   7.103   6.009
13627TIP3    H140803   6.071   7.145   5.938
13627TIP3    H240804   6.151   7.021   5.970
13628TIP3   OH240805   6.067   6.855   4.282
13628TIP3    H140806   6.046   6.866   4.375
13628TIP3    H240807   6.048   6.763   4.263
13629TIP3   OH240808   6.601   7.117   5.687
13629TIP3    H140809   6.630   7.182   5.624
13629TIP3    H240810   6.505   7.121   5.684
13630TIP3   OH240811   5.653   6.709   6.268
13630TIP3    H140812   5.699   6.735   6.187
13630TIP3    H240813   5.685   6.771   6.334
13631TIP3   OH240814   5.675   6.573   4.660
13631TIP3    H140815   5.653   6.546   4.750
13631TIP3    H240816   5.722   6.499   4.624
13632TIP3   OH240817   5.966   6.641   5.907
13632TIP3    H140818   5.889   6.692   5.933
13632TIP3    H240819   6.027   6.706   5.874
13633TIP3   OH240820   5.817   6.389   4.507
13633TIP3    H140821   5.787   6.394   4.417
13633TIP3    H240822   5.912   6.401   4.501
13634TIP3   OH240823   6.497   7.010   6.020
13634TIP3    H140824   6.483   7.008   5.926
13634TIP3    H240825   6.477   6.922   6.050
13635TIP3   OH240826   6.605   6.673   4.197
13635TIP3    H140827   6.600   6.635   4.110
13635TIP3    H240828   6.583   6.765   4.185
13636TIP3   OH240829   6.097   6.428   6.018
13636TIP3    H140830   6.099   6.355   5.955
13636TIP3    H240831   6.055   6.499   5.969
13637TIP3   OH240832   6.102   6.223   5.821
13637TIP3    H140833   6.131   6.267   5.741
13637TIP3    H240834   6.010   6.201   5.803
13638TIP3   OH240835   6.727   6.715   6.106
13638TIP3    H140836   6.784   6.639   6.104
13638TIP3    H240837   6.783   6.789   6.085
13639TIP3   OH240838   6.769   6.952   5.815
13639TIP3    H140839   6.706   7.013   5.778
13639TIP3    H240840   6.854   6.982   5.781
13640TIP3   OH240841   5.986   6.501   6.266
13640TIP3    H140842   5.910   6.444   6.281
13640TIP3    H240843   6.010   6.486   6.175
13641TIP3   OH240844   6.220   5.995   5.928
13641TIP3    H140845   6.181   6.075   5.892
13641TIP3    H240846   6.156   5.926   5.910
13642TIP3   OH240847   6.349   6.473   6.126
13642TIP3    H140848   6.333   6.454   6.218
13642TIP3    H240849   6.266   6.455   6.082
13643TIP3   OH240850   6.592   6.433   5.991
13643TIP3    H140851   6.514   6.433   6.046
13643TIP3    H240852   6.664   6.410   6.050
13644TIP3   OH240853   6.834   6.382   6.132
13644TIP3    H140854   6.845   6.288   6.145
13644TIP3    H240855   6.824   6.418   6.220
13645TIP3   OH240856   5.810   6.285   6.330
13645TIP3    H140857   5.816   6.197   6.293
13645TIP3    H240858   5.852   6.278   6.416
13646TIP3   OH240859   6.288   5.964   6.191
13646TIP3    H140860   6.358   5.900   6.179
13646TIP3    H240861   6.256   5.980   6.102
13647TIP3   OH240862   6.386   6.181   6.333
13647TIP3    H140863   6.354   6.111   6.276
13647TIP3    H240864   6.316   6.246   6.333
13648TIP3   OH240865   5.646   7.445   4.437
13648TIP3    H140866   5.733   7.418   4.409
13648TIP3    H240867   5.609   7.490   4.361
13649TIP3   OH240868   5.108   6.827   4.601
13649TIP3    H140869   5.203   6.834   4.606
13649TIP3    H240870   5.092   6.739   4.568
13650TIP3   OH240871   5.011   7.401   5.082
13650TIP3    H140872   4.947   7.347   5.036
13650TIP3    H240873   5.054   7.341   5.142
13651TIP3   OH240874   5.154   7.234   5.249
13651TIP3    H140875   5.145   7.162   5.312
13651TIP3    H240876   5.205   7.300   5.295
13652TIP3   OH240877   6.890   7.634   5.050
13652TIP3    H140878   6.914   7.658   5.140
13652TIP3    H240879   6.952   7.683   4.995
13653TIP3   OH240880   6.913   7.660   5.329
13653TIP3    H140881   6.862   7.580   5.324
13653TIP3    H240882   6.981   7.641   5.394
13654TIP3   OH240883   6.975   7.373   5.912
13654TIP3    H140884   6.900   7.383   5.971
13654TIP3    H240885   7.022   7.456   5.918
13655TIP3   OH240886   6.797   6.875   4.524
13655TIP3    H140887   6.850   6.949   4.494
13655TIP3    H240888   6.845   6.840   4.599
13656TIP3   OH240889   6.939   6.715   4.718
13656TIP3    H140890   6.865   6.696   4.775
13656TIP3    H240891   6.998   6.768   4.771
13657TIP3   OH240892   6.956   7.142   5.153
13657TIP3    H140893   7.010   7.075   5.111
13657TIP3    H240894   6.960   7.216   5.092
13658TIP3   OH240895   6.767   7.425   5.337
13658TIP3    H140896   6.701   7.471   5.389
13658TIP3    H240897   6.717   7.384   5.266
13659TIP3   OH240898   6.824   6.660   4.359
13659TIP3    H140899   6.752   6.665   4.296
13659TIP3    H240900   6.813   6.738   4.413
13660TIP3   OH240901   6.680   6.271   4.285
13660TIP3    H140902   6.627   6.292   4.208
13660TIP3    H240903   6.667   6.177   4.297
13661TIP3   OH240904   6.721   6.607   4.854
13661TIP3    H140905   6.708   6.513   4.838
13661TIP3    H240906   6.698   6.619   4.946
13662TIP3   OH240907   5.326   6.655   5.624
13662TIP3    H140908   5.319   6.619   5.536
13662TIP3    H240909   5.421   6.658   5.641
13663TIP3   OH240910   7.011   7.029   5.704
13663TIP3    H140911   7.068   6.955   5.682
13663TIP3    H240912   6.988   7.067   5.619
13664TIP3   OH240913   7.160   6.799   5.687
13664TIP3    H140914   7.092   6.758   5.742
13664TIP3    H240915   7.241   6.756   5.714
13665TIP3   OH240916   6.642   6.003   4.327
13665TIP3    H140917   6.659   5.953   4.407
13665TIP3    H240918   6.550   5.985   4.307
13666TIP3   OH240919   6.689   6.339   4.736
13666TIP3    H140920   6.726   6.252   4.753
13666TIP3    H240921   6.729   6.367   4.654
13667TIP3   OH240922   6.856   6.491   5.262
13667TIP3    H140923   6.938   6.511   5.216
13667TIP3    H240924   6.867   6.530   5.348
13668TIP3   OH240925   6.930   6.637   5.489
13668TIP3    H140926   6.860   6.663   5.549
13668TIP3    H240927   6.960   6.719   5.451
13669TIP3   OH240928   5.544   6.340   6.271
13669TIP3    H140929   5.638   6.343   6.289
13669TIP3    H240930   5.514   6.259   6.312
13670TIP3   OH240931   7.394   6.251   6.031
13670TIP3    H140932   7.457   6.186   5.999
13670TIP3    H240933   7.359   6.291   5.951
13671TIP3   OH240934   6.783   6.090   4.799
13671TIP3    H140935   6.847   6.077   4.869
13671TIP3    H240936   6.730   6.010   4.799
13672TIP3   OH240937   5.529   6.051   5.684
13672TIP3    H140938   5.585   5.977   5.660
13672TIP3    H240939   5.563   6.124   5.631
13673TIP3   OH240940   5.297   6.326   5.669
13673TIP3    H140941   5.345   6.304   5.590
13673TIP3    H240942   5.326   6.415   5.690
13674TIP3   OH240943   7.241   6.360   5.834
13674TIP3    H140944   7.168   6.400   5.881
13674TIP3    H240945   7.200   6.292   5.780
13675TIP3   OH240946   6.933   5.990   4.431
13675TIP3    H140947   6.937   5.916   4.371
13675TIP3    H240948   6.873   6.052   4.390
13676TIP3   OH240949   5.258   5.853   5.157
13676TIP3    H140950   5.188   5.861   5.221
13676TIP3    H240951   5.325   5.914   5.187
13677TIP3   OH240952   6.445   7.565   4.697
13677TIP3    H140953   6.497   7.548   4.619
13677TIP3    H240954   6.494   7.631   4.745
13678TIP3   OH240955   5.523   5.871   6.006
13678TIP3    H140956   5.474   5.874   6.088
13678TIP3    H240957   5.473   5.925   5.946
13679TIP3   OH240958   5.542   7.346   6.077
13679TIP3    H140959   5.449   7.326   6.067
13679TIP3    H240960   5.562   7.321   6.167
13680TIP3   OH240961   5.754   7.395   5.627
13680TIP3    H140962   5.706   7.471   5.595
13680TIP3    H240963   5.839   7.401   5.584
13681TIP3   OH240964   6.152   7.627   5.774
13681TIP3    H140965   6.193   7.614   5.860
13681TIP3    H240966   6.216   7.679   5.725
13682TIP3   OH240967   6.340   7.774   5.639
13682TIP3    H140968   6.393   7.716   5.585
13682TIP3    H240969   6.404   7.825   5.689
13683TIP3   OH240970   7.149   6.114   5.722
13683TIP3    H140971   7.069   6.123   5.671
13683TIP3    H240972   7.171   6.021   5.716
13684TIP3   OH240973   5.420   7.639   5.675
13684TIP3    H140974   5.329   7.658   5.653
13684TIP3    H240975   5.442   7.703   5.743
13685TIP3   OH240976   5.650   7.629   5.525
13685TIP3    H140977   5.567   7.633   5.572
13685TIP3    H240978   5.627   7.650   5.435
13686TIP3   OH240979   6.064   7.645   5.313
13686TIP3    H140980   5.990   7.653   5.252
13686TIP3    H240981   6.070   7.731   5.355
13687TIP3   OH240982   6.330   7.597   5.372
13687TIP3    H140983   6.239   7.608   5.345
13687TIP3    H240984   6.378   7.659   5.317
13688TIP3   OH240985   6.537   7.758   5.266
13688TIP3    H140986   6.532   7.843   5.223
13688TIP3    H240987   6.564   7.697   5.197
13689TIP3   OH240988   5.331   7.408   5.398
13689TIP3    H140989   5.357   7.382   5.487
13689TIP3    H240990   5.402   7.376   5.342
13690TIP3   OH240991   5.534   7.296   5.254
13690TIP3    H140992   5.546   7.212   5.298
13690TIP3    H240993   5.621   7.337   5.256
13691TIP3   OH240994   5.801   7.385   5.273
13691TIP3    H140995   5.820   7.292   5.257
13691TIP3    H240996   5.855   7.407   5.349
13692TIP3   OH240997   6.357   6.032   5.362
13692TIP3    H140998   6.314   5.968   5.418
13692TIP3    H240999   6.424   5.982   5.315
13693TIP3   OH241000   6.868   5.946   5.224
13693TIP3    H141001   6.900   6.009   5.159
13693TIP3    H241002   6.776   5.972   5.239
13694TIP3   OH241003   6.984   6.054   4.988
13694TIP3    H141004   7.049   5.985   4.973
13694TIP3    H241005   7.029   6.135   4.966
13695TIP3   OH241006   5.624   5.717   5.371
13695TIP3    H141007   5.531   5.695   5.367
13695TIP3    H241008   5.668   5.633   5.361
13696TIP3   OH241009   6.039   5.782   5.240
13696TIP3    H141010   6.104   5.827   5.186
13696TIP3    H241011   5.961   5.836   5.235
13697TIP3   OH241012   6.575   5.916   5.228
13697TIP3    H141013   6.576   5.879   5.139
13697TIP3    H241014   6.581   5.840   5.286
13698TIP3   OH241015   6.629   5.859   4.792
13698TIP3    H141016   6.549   5.906   4.816
13698TIP3    H241017   6.618   5.772   4.829
13699TIP3   OH241018   5.093   7.212   4.770
13699TIP3    H141019   5.008   7.180   4.739
13699TIP3    H241020   5.097   7.303   4.739
13700TIP3   OH241021   5.510   5.726   4.769
13700TIP3    H141022   5.593   5.769   4.793
13700TIP3    H241023   5.443   5.778   4.814
13701TIP3   OH241024   6.010   5.962   4.874
13701TIP3    H141025   6.068   5.911   4.930
13701TIP3    H241026   6.020   6.052   4.903
13702TIP3   OH241027   5.896   7.359   4.367
13702TIP3    H141028   5.981   7.385   4.330
13702TIP3    H241029   5.867   7.287   4.311
13703TIP3   OH241030   6.592   7.507   4.470
13703TIP3    H141031   6.589   7.411   4.463
13703TIP3    H241032   6.553   7.538   4.389
13704TIP3   OH241033   5.827   6.013   6.243
13704TIP3    H141034   5.792   5.946   6.302
13704TIP3    H241035   5.919   6.022   6.268
13705TIP3   OH241036   6.074   6.021   6.368
13705TIP3    H141037   6.150   5.998   6.315
13705TIP3    H241038   6.067   5.950   6.432
13706TIP3   OH241039   5.206   7.203   4.427
13706TIP3    H141040   5.204   7.206   4.523
13706TIP3    H241041   5.287   7.156   4.407
13707TIP3   OH241042   6.900   6.110   6.151
13707TIP3    H141043   6.918   6.083   6.241
13707TIP3    H241044   6.985   6.108   6.108
13708TIP3   OH241045   6.817   7.644   5.657
13708TIP3    H141046   6.745   7.611   5.602
13708TIP3    H241047   6.798   7.737   5.668
13709TIP3   OH241048   8.093   7.026   4.401
13709TIP3    H141049   8.062   7.113   4.375
13709TIP3    H241050   8.024   6.967   4.373
13710TIP3   OH241051   8.083   7.010   4.815
13710TIP3    H141052   8.137   6.999   4.894
13710TIP3    H241053   8.041   6.926   4.802
13711TIP3   OH241054   7.387   6.878   5.165
13711TIP3    H141055   7.424   6.832   5.240
13711TIP3    H241056   7.463   6.912   5.118
13712TIP3   OH241057   8.361   7.295   4.476
13712TIP3    H141058   8.349   7.229   4.545
13712TIP3    H241059   8.385   7.375   4.523
13713TIP3   OH241060   7.384   7.295   4.846
13713TIP3    H141061   7.360   7.203   4.857
13713TIP3    H241062   7.479   7.294   4.835
13714TIP3   OH241063   7.055   6.474   4.652
13714TIP3    H141064   7.025   6.562   4.677
13714TIP3    H241065   7.054   6.424   4.734
13715TIP3   OH241066   7.153   6.830   4.856
13715TIP3    H141067   7.204   6.756   4.887
13715TIP3    H241068   7.217   6.899   4.838
13716TIP3   OH241069   8.105   7.764   4.477
13716TIP3    H141070   8.116   7.688   4.420
13716TIP3    H241071   8.035   7.738   4.537
13717TIP3   OH241072   7.906   7.231   4.826
13717TIP3    H141073   7.946   7.149   4.798
13717TIP3    H241074   7.978   7.284   4.860
13718TIP3   OH241075   0.007   6.559   4.853
13718TIP3    H141076   0.022   6.647   4.888
13718TIP3    H241077   0.040   6.563   4.763
13719TIP3   OH241078   8.297   6.720   4.863
13719TIP3    H141079   8.337   6.637   4.889
13719TIP3    H241080   8.266   6.705   4.774
13720TIP3   OH241081   7.663   6.393   4.828
13720TIP3    H141082   7.646   6.465   4.767
13720TIP3    H241083   7.610   6.320   4.795
13721TIP3   OH241084   8.352   6.491   4.456
13721TIP3    H141085   8.417   6.480   4.526
13721TIP3    H241086   8.402   6.527   4.383
13722TIP3   OH241087   7.287   6.608   4.951
13722TIP3    H141088   7.368   6.599   5.001
13722TIP3    H241089   7.302   6.556   4.872
13723TIP3   OH241090   7.710   6.807   4.762
13723TIP3    H141091   7.804   6.792   4.773
13723TIP3    H241092   7.676   6.724   4.727
13724TIP3   OH241093   0.060   6.781   5.014
13724TIP3    H141094  -0.012   6.837   4.986
13724TIP3    H241095   0.038   6.758   5.105
13725TIP3   OH241096   7.641   6.392   5.274
13725TIP3    H141097   7.592   6.433   5.202
13725TIP3    H241098   7.587   6.409   5.351
13726TIP3   OH241099   7.991   7.240   4.258
13726TIP3    H141100   7.949   7.212   4.177
13726TIP3    H241101   7.939   7.315   4.287
13727TIP3   OH241102   7.736   7.166   5.038
13727TIP3    H141103   7.683   7.237   5.074
13727TIP3    H241104   7.785   7.207   4.966
13728TIP3   OH241105   8.519   6.499   4.672
13728TIP3    H141106   8.472   6.480   4.753
13728TIP3    H241107   8.572   6.576   4.692
13729TIP3   OH241108   7.532   6.505   5.047
13729TIP3    H141109   7.586   6.581   5.071
13729TIP3    H241110   7.581   6.463   4.976
13730TIP3   OH241111   7.577   7.362   5.152
13730TIP3    H141112   7.553   7.448   5.117
13730TIP3    H241113   7.503   7.338   5.208
13731TIP3   OH241114   6.965   7.066   4.414
13731TIP3    H141115   6.926   7.078   4.327
13731TIP3    H241116   6.984   7.155   4.444
13732TIP3   OH241117   8.384   7.525   4.629
13732TIP3    H141118   8.303   7.507   4.676
13732TIP3    H241119   8.373   7.614   4.596
13733TIP3   OH241120   8.722   6.449   5.024
13733TIP3    H141121   8.635   6.478   4.996
13733TIP3    H241122   8.780   6.478   4.954
13734TIP3   OH241123   7.978   6.083   5.001
13734TIP3    H141124   7.975   5.991   5.029
13734TIP3    H241125   7.902   6.124   5.043
13735TIP3   OH241126   8.131   7.587   4.250
13735TIP3    H141127   8.164   7.497   4.239
13735TIP3    H241128   8.209   7.640   4.264
13736TIP3   OH241129   8.248   7.341   4.230
13736TIP3    H141130   8.169   7.288   4.237
13736TIP3    H241131   8.298   7.320   4.309
13737TIP3   OH241132   7.926   6.864   4.248
13737TIP3    H141133   7.844   6.911   4.231
13737TIP3    H241134   7.972   6.865   4.165
13738TIP3   OH241135   7.885   6.678   3.937
13738TIP3    H141136   7.951   6.727   3.987
13738TIP3    H241137   7.935   6.610   3.892
13739TIP3   OH241138   8.792   7.097   4.783
13739TIP3    H141139   8.718   7.154   4.802
13739TIP3    H241140   8.844   7.145   4.720
13740TIP3   OH241141   8.275   6.955   4.209
13740TIP3    H141142   8.221   6.985   4.282
13740TIP3    H241143   8.358   6.930   4.250
13741TIP3   OH241144   8.490   7.014   5.117
13741TIP3    H141145   8.487   7.109   5.119
13741TIP3    H241146   8.405   6.988   5.081
13742TIP3   OH241147   7.510   6.941   4.616
13742TIP3    H141148   7.475   6.883   4.548
13742TIP3    H241149   7.584   6.893   4.652
13743TIP3   OH241150   7.648   7.321   4.753
13743TIP3    H141151   7.627   7.313   4.660
13743TIP3    H241152   7.737   7.289   4.761
13744TIP3   OH241153   7.603   6.934   4.986
13744TIP3    H141154   7.644   6.897   4.907
13744TIP3    H241155   7.651   7.014   5.003
13745TIP3   OH241156   8.155   7.520   4.774
13745TIP3    H141157   8.160   7.594   4.835
13745TIP3    H241158   8.148   7.443   4.831
13746TIP3   OH241159   7.770   7.475   5.322
13746TIP3    H141160   7.707   7.532   5.366
13746TIP3    H241161   7.717   7.420   5.265
13747TIP3   OH241162   8.110   6.817   4.036
13747TIP3    H141163   8.169   6.876   4.083
13747TIP3    H241164   8.138   6.822   3.945
13748TIP3   OH241165   7.544   7.029   5.421
13748TIP3    H141166   7.548   7.117   5.457
13748TIP3    H241167   7.451   7.006   5.422
13749TIP3   OH241168   7.868   7.483   4.306
13749TIP3    H141169   7.947   7.535   4.296
13749TIP3    H241170   7.800   7.532   4.260
13750TIP3   OH241171   7.562   7.633   5.403
13750TIP3    H141172   7.520   7.629   5.317
13750TIP3    H241173   7.490   7.625   5.465
13751TIP3   OH241174   8.590   6.056   4.098
13751TIP3    H141175   8.522   6.083   4.159
13751TIP3    H241176   8.607   6.135   4.046
13752TIP3   OH241177   7.380   6.796   4.408
13752TIP3    H141178   7.311   6.851   4.370
13752TIP3    H241179   7.340   6.710   4.417
13753TIP3   OH241180   8.447   7.409   3.664
13753TIP3    H141181   8.449   7.503   3.644
13753TIP3    H241182   8.536   7.378   3.646
13754TIP3   OH241183   7.161   7.182   5.346
13754TIP3    H141184   7.090   7.160   5.285
13754TIP3    H241185   7.196   7.098   5.373
13755TIP3   OH241186   7.002   7.379   5.004
13755TIP3    H141187   7.090   7.406   5.032
13755TIP3    H241188   6.946   7.452   5.029
13756TIP3   OH241189   7.977   7.606   5.197
13756TIP3    H141190   7.978   7.701   5.204
13756TIP3    H241191   7.906   7.578   5.254
13757TIP3   OH241192   7.710   7.657   4.150
13757TIP3    H141193   7.633   7.638   4.097
13757TIP3    H241194   7.705   7.751   4.169
13758TIP3   OH241195   7.174   7.559   4.513
13758TIP3    H141196   7.222   7.551   4.595
13758TIP3    H241197   7.125   7.477   4.505
13759TIP3   OH241198   7.956   7.631   3.750
13759TIP3    H141199   8.003   7.556   3.713
13759TIP3    H241200   7.976   7.628   3.843
13760TIP3   OH241201   7.967   7.657   4.029
13760TIP3    H141202   7.883   7.622   4.058
13760TIP3    H241203   8.031   7.622   4.091
13761TIP3   OH241204   8.761   6.968   5.269
13761TIP3    H141205   8.673   6.983   5.234
13761TIP3    H241206   8.773   6.873   5.263
13762TIP3   OH241207   7.360   7.372   5.325
13762TIP3    H141208   7.412   7.354   5.404
13762TIP3    H241209   7.288   7.309   5.329
13763TIP3   OH241210   7.744   6.175   5.131
13763TIP3    H141211   7.659   6.144   5.100
13763TIP3    H241212   7.724   6.257   5.177
13764TIP3   OH241213   8.286   6.295   5.331
13764TIP3    H141214   8.357   6.271   5.391
13764TIP3    H241215   8.206   6.282   5.383
13765TIP3   OH241216   8.522   6.758   5.238
13765TIP3    H141217   8.463   6.747   5.312
13765TIP3    H241218   8.500   6.843   5.201
13766TIP3   OH241219   8.185   6.787   3.770
13766TIP3    H141220   8.142   6.792   3.685
13766TIP3    H241221   8.266   6.836   3.760
13767TIP3   OH241222   7.892   6.223   4.098
13767TIP3    H141223   7.859   6.227   4.188
13767TIP3    H241224   7.860   6.139   4.065
13768TIP3   OH241225   7.683   6.715   5.138
13768TIP3    H141226   7.640   6.725   5.223
13768TIP3    H241227   7.665   6.796   5.092
13769TIP3   OH241228   7.576   6.589   4.656
13769TIP3    H141229   7.486   6.568   4.682
13769TIP3    H241230   7.583   6.557   4.566
13770TIP3   OH241231   8.041   6.658   4.385
13770TIP3    H141232   7.997   6.733   4.345
13770TIP3    H241233   8.101   6.627   4.317
13771TIP3   OH241234   8.204   6.950   5.472
13771TIP3    H141235   8.186   6.878   5.532
13771TIP3    H241236   8.292   6.979   5.494
13772TIP3   OH241237   8.208   6.674   4.609
13772TIP3    H141238   8.139   6.696   4.547
13772TIP3    H241239   8.256   6.601   4.568
13773TIP3   OH241240   7.522   6.726   5.361
13773TIP3    H141241   7.541   6.787   5.433
13773TIP3    H241242   7.502   6.643   5.405
13774TIP3   OH241243   7.562   6.195   4.074
13774TIP3    H141244   7.556   6.204   4.169
13774TIP3    H241245   7.483   6.237   4.041
13775TIP3   OH241246   7.155   6.258   4.887
13775TIP3    H141247   7.195   6.294   4.966
13775TIP3    H241248   7.220   6.197   4.852
13776TIP3   OH241249   8.238   6.922   5.032
13776TIP3    H141250   8.265   6.854   4.971
13776TIP3    H241251   8.205   6.875   5.108
13777TIP3   OH241252   7.927   6.379   4.709
13777TIP3    H141253   7.853   6.381   4.770
13777TIP3    H241254   8.003   6.368   4.766
13778TIP3   OH241255   7.340   6.462   4.722
13778TIP3    H141256   7.254   6.449   4.681
13778TIP3    H241257   7.381   6.375   4.717
13779TIP3   OH241258   7.574   6.464   4.410
13779TIP3    H141259   7.669   6.476   4.402
13779TIP3    H241260   7.541   6.483   4.322
13780TIP3   OH241261   8.377   6.456   4.903
13780TIP3    H141262   8.375   6.468   4.998
13780TIP3    H241263   8.304   6.398   4.884
13781TIP3   OH241264   7.461   6.486   4.161
13781TIP3    H141265   7.403   6.437   4.102
13781TIP3    H241266   7.516   6.538   4.102
13782TIP3   OH241267   7.515   7.278   5.549
13782TIP3    H141268   7.590   7.297   5.606
13782TIP3    H241269   7.440   7.271   5.609
13783TIP3   OH241270   7.977   6.745   4.819
13783TIP3    H141271   8.048   6.698   4.774
13783TIP3    H241272   7.978   6.709   4.908
13784TIP3   OH241273   7.473   6.216   4.706
13784TIP3    H141274   7.450   6.138   4.756
13784TIP3    H241275   7.506   6.184   4.623
13785TIP3   OH241276   7.956   6.661   5.089
13785TIP3    H141277   7.870   6.698   5.108
13785TIP3    H241278   8.016   6.712   5.143
13786TIP3   OH241279   7.695   7.004   4.197
13786TIP3    H141280   7.618   6.955   4.168
13786TIP3    H241281   7.667   7.048   4.277
13787TIP3   OH241282   8.552   7.254   4.819
13787TIP3    H141283   8.595   7.307   4.751
13787TIP3    H241284   8.479   7.212   4.773
13788TIP3   OH241285   8.145   6.326   4.098
13788TIP3    H141286   8.052   6.307   4.096
13788TIP3    H241287   8.150   6.421   4.112
13789TIP3   OH241288   8.068   7.335   5.209
13789TIP3    H141289   8.052   7.283   5.288
13789TIP3    H241290   8.028   7.420   5.228
13790TIP3   OH241291   8.205   6.589   4.169
13790TIP3    H141292   8.300   6.594   4.182
13790TIP3    H241293   8.184   6.667   4.118
13791TIP3   OH241294   7.370   7.008   4.843
13791TIP3    H141295   7.411   6.996   4.757
13791TIP3    H241296   7.438   6.982   4.906
13792TIP3   OH241297   7.842   7.163   4.033
13792TIP3    H141298   7.794   7.244   4.023
13792TIP3    H241299   7.785   7.107   4.086
13793TIP3   OH241300   7.276   6.963   5.478
13793TIP3    H141301   7.316   6.956   5.565
13793TIP3    H241302   7.206   6.898   5.479
13794TIP3   OH241303   7.985   7.113   5.428
13794TIP3    H141304   7.918   7.045   5.429
13794TIP3    H241305   8.067   7.066   5.445
13795TIP3   OH241306   8.297   7.545   5.093
13795TIP3    H141307   8.208   7.516   5.115
13795TIP3    H241308   8.312   7.622   5.147
13796TIP3   OH241309   8.616   6.679   3.993
13796TIP3    H141310   8.563   6.631   3.929
13796TIP3    H241311   8.620   6.768   3.957
13797TIP3   OH241312   8.348   7.452   3.934
13797TIP3    H141313   8.325   7.382   3.996
13797TIP3    H241314   8.373   7.407   3.854
13798TIP3   OH241315   8.338   7.118   4.696
13798TIP3    H141316   8.248   7.098   4.721
13798TIP3    H241317   8.372   7.034   4.663
13799TIP3   OH241318   7.497   7.356   4.515
13799TIP3    H141319   7.486   7.428   4.452
13799TIP3    H241320   7.409   7.343   4.552
13800TIP3   OH241321   7.063   6.665   4.214
13800TIP3    H141322   7.106   6.751   4.221
13800TIP3    H241323   6.976   6.679   4.250
13801TIP3   OH241324   7.592   7.118   4.418
13801TIP3    H141325   7.569   7.208   4.444
13801TIP3    H241326   7.566   7.064   4.492
13802TIP3   OH241327   7.766   7.617   5.004
13802TIP3    H141328   7.798   7.703   4.974
13802TIP3    H241329   7.840   7.579   5.051
13803TIP3   OH241330   7.397   7.559   4.352
13803TIP3    H141331   7.311   7.561   4.395
13803TIP3    H241332   7.417   7.651   4.336
13804TIP3   OH241333   8.145   7.310   4.950
13804TIP3    H141334   8.116   7.313   5.041
13804TIP3    H241335   8.232   7.272   4.954
13805TIP3   OH241336   8.131   7.218   3.800
13805TIP3    H141337   8.180   7.186   3.876
13805TIP3    H241338   8.046   7.174   3.805
13806TIP3   OH241339   8.463   7.688   3.642
13806TIP3    H141340   8.485   7.710   3.732
13806TIP3    H241341   8.378   7.729   3.627
13807TIP3   OH241342   7.467   6.472   5.477
13807TIP3    H141343   7.372   6.484   5.483
13807TIP3    H241344   7.492   6.437   5.562
13808TIP3   OH241345   8.301   7.124   3.990
13808TIP3    H141346   8.285   7.078   4.073
13808TIP3    H241347   8.396   7.135   3.987
13809TIP3   OH241348   7.201   7.568   5.127
13809TIP3    H141349   7.262   7.516   5.180
13809TIP3    H241350   7.209   7.656   5.162
13810TIP3   OH241351   7.543   7.161   3.809
13810TIP3    H141352   7.525   7.069   3.787
13810TIP3    H241353   7.508   7.172   3.897
13811TIP3   OH241354   7.450   7.192   4.066
13811TIP3    H141355   7.475   7.169   4.155
13811TIP3    H241356   7.429   7.286   4.070
13812TIP3   OH241357   7.163   6.920   4.279
13812TIP3    H141358   7.101   6.964   4.338
13812TIP3    H241359   7.169   6.978   4.204
13813TIP3   OH241360   8.368   6.500   5.167
13813TIP3    H141361   8.406   6.567   5.224
13813TIP3    H241362   8.336   6.433   5.228
13814TIP3   OH241363   8.198   6.278   4.368
13814TIP3    H141364   8.182   6.296   4.275
13814TIP3    H241365   8.244   6.355   4.400
13815TIP3   OH241366   7.702   7.392   4.012
13815TIP3    H141367   7.616   7.401   4.052
13815TIP3    H241368   7.708   7.464   3.950
13816TIP3   OH241369   7.851   6.474   4.459
13816TIP3    H141370   7.914   6.540   4.431
13816TIP3    H241371   7.877   6.453   4.549
13817TIP3   OH241372   8.152   6.783   5.253
13817TIP3    H141373   8.156   6.849   5.322
13817TIP3    H241374   8.209   6.712   5.284
13818TIP3   OH241375   8.021   6.167   4.546
13818TIP3    H141376   7.999   6.243   4.600
13818TIP3    H241377   8.091   6.197   4.488
13819TIP3   OH241378   7.449   7.468   4.097
13819TIP3    H141379   7.421   7.539   4.040
13819TIP3    H241380   7.425   7.496   4.185
13820TIP3   OH241381   7.538   6.192   4.355
13820TIP3    H141382   7.529   6.284   4.381
13820TIP3    H241383   7.632   6.174   4.360
13821TIP3   OH241384   8.781   6.674   5.214
13821TIP3    H141385   8.690   6.698   5.232
13821TIP3    H241386   8.774   6.597   5.157
13822TIP3   OH241387   8.428   6.863   4.610
13822TIP3    H141388   8.351   6.807   4.622
13822TIP3    H241389   8.496   6.823   4.665
13823TIP3   OH241390   7.132   7.110   4.056
13823TIP3    H141391   7.113   7.189   4.006
13823TIP3    H241392   7.205   7.069   4.010
13824TIP3   OH241393   7.090   6.410   4.307
13824TIP3    H141394   7.095   6.492   4.258
13824TIP3    H241395   7.124   6.344   4.246
13825TIP3   OH241396   8.377   7.800   4.597
13825TIP3    H141397   8.383   7.790   4.502
13825TIP3    H241398   8.468   7.806   4.625
13826TIP3   OH241399   7.481   6.092   5.090
13826TIP3    H141400   7.454   6.057   5.005
13826TIP3    H241401   7.477   6.017   5.149
13827TIP3   OH241402   7.006   7.334   4.498
13827TIP3    H141403   6.966   7.371   4.577
13827TIP3    H241404   6.962   7.378   4.426
13828TIP3   OH241405   7.192   7.850   5.522
13828TIP3    H141406   7.274   7.809   5.552
13828TIP3    H241407   7.129   7.778   5.521
13829TIP3   OH241408   7.643   7.383   3.692
13829TIP3    H141409   7.604   7.310   3.741
13829TIP3    H241410   7.720   7.345   3.650
13830TIP3   OH241411   8.082   7.426   3.632
13830TIP3    H141412   8.118   7.360   3.690
13830TIP3    H241413   8.136   7.420   3.553
13831TIP3   OH241414   7.297   7.260   5.715
13831TIP3    H141415   7.292   7.180   5.767
13831TIP3    H241416   7.210   7.269   5.677
13832TIP3   OH241417   7.304   6.912   3.949
13832TIP3    H141418   7.360   6.896   4.025
13832TIP3    H241419   7.365   6.917   3.875
13833TIP3   OH241420   7.884   7.343   5.539
13833TIP3    H141421   7.851   7.390   5.462
13833TIP3    H241422   7.924   7.264   5.503
13834TIP3   OH241423   7.882   7.101   3.768
13834TIP3    H141424   7.853   7.117   3.858
13834TIP3    H241425   7.853   7.012   3.750
13835TIP3   OH241426   8.422   7.285   5.060
13835TIP3    H141427   8.477   7.288   4.982
13835TIP3    H241428   8.396   7.376   5.075
13836TIP3   OH241429   7.443   6.960   5.708
13836TIP3    H141430   7.536   6.957   5.685
13836TIP3    H241431   7.439   7.010   5.790
13837TIP3   OH241432   7.484   6.836   4.147
13837TIP3    H141433   7.463   6.806   4.235
13837TIP3    H241434   7.527   6.762   4.105
13838TIP3   OH241435   7.789   6.903   5.387
13838TIP3    H141436   7.706   6.949   5.396
13838TIP3    H241437   7.818   6.923   5.298
13839TIP3   OH241438   7.615   6.642   3.997
13839TIP3    H141439   7.585   6.645   3.906
13839TIP3    H241440   7.710   6.652   3.990
13840TIP3   OH241441   8.401   6.927   3.670
13840TIP3    H141442   8.390   6.888   3.583
13840TIP3    H241443   8.380   7.019   3.657
13841TIP3   OH241444   7.891   6.671   5.497
13841TIP3    H141445   7.898   6.602   5.431
13841TIP3    H241446   7.858   6.747   5.449
13842TIP3   OH241447   7.904   6.473   5.298
13842TIP3    H141448   7.929   6.517   5.217
13842TIP3    H241449   7.812   6.449   5.285
13843TIP3   OH241450   7.897   6.974   5.148
13843TIP3    H141451   7.988   7.004   5.142
13843TIP3    H241452   7.846   7.046   5.111
13844TIP3   OH241453   7.744   6.759   5.715
13844TIP3    H141454   7.688   6.686   5.742
13844TIP3    H241455   7.790   6.727   5.638
13845TIP3   OH241456   8.020   6.248   5.414
13845TIP3    H141457   7.982   6.326   5.375
13845TIP3    H241458   7.954   6.180   5.401
13846TIP3   OH241459   8.137   6.722   5.609
13846TIP3    H141460   8.128   6.704   5.703
13846TIP3    H241461   8.052   6.699   5.572
13847TIP3   OH241462   8.345   6.666   5.429
13847TIP3    H141463   8.276   6.675   5.495
13847TIP3    H241464   8.420   6.632   5.478
13848TIP3   OH241465   8.542   6.581   5.591
13848TIP3    H141466   8.600   6.506   5.607
13848TIP3    H241467   8.503   6.599   5.676
13849TIP3   OH241468   7.609   6.531   5.808
13849TIP3    H141469   7.614   6.440   5.781
13849TIP3    H241470   7.662   6.535   5.888
13850TIP3   OH241471   8.095   6.237   5.677
13850TIP3    H141472   8.163   6.170   5.673
13850TIP3    H241473   8.063   6.245   5.587
13851TIP3   OH241474   8.172   6.455   5.832
13851TIP3    H141475   8.148   6.384   5.773
13851TIP3    H241476   8.099   6.516   5.828
13852TIP3   OH241477   7.451   7.692   3.931
13852TIP3    H141478   7.535   7.669   3.892
13852TIP3    H241479   7.404   7.738   3.860
13853TIP3   OH241480   6.881   7.049   4.149
13853TIP3    H141481   6.964   7.078   4.109
13853TIP3    H241482   6.862   6.966   4.104
13854TIP3   OH241483   6.802   7.653   4.572
13854TIP3    H141484   6.740   7.601   4.522
13854TIP3    H241485   6.847   7.590   4.628
13855TIP3   OH241486   6.948   7.482   4.737
13855TIP3    H141487   6.941   7.415   4.805
13855TIP3    H241488   7.003   7.550   4.777
13856TIP3   OH241489   8.576   7.139   4.000
13856TIP3    H141490   8.639   7.203   3.967
13856TIP3    H241491   8.616   7.105   4.080
13857TIP3   OH241492   8.689   7.011   4.217
13857TIP3    H141493   8.620   6.969   4.268
13857TIP3    H241494   8.749   7.047   4.282
13858TIP3   OH241495   8.712   7.369   4.630
13858TIP3    H141496   8.789   7.318   4.603
13858TIP3    H241497   8.723   7.454   4.588
13859TIP3   OH241498   8.586   7.680   4.756
13859TIP3    H141499   8.575   7.674   4.851
13859TIP3    H241500   8.535   7.607   4.721
13860TIP3   OH241501   8.604   6.912   3.850
13860TIP3    H141502   8.532   6.913   3.788
13860TIP3    H241503   8.593   6.992   3.902
13861TIP3   OH241504   8.474   6.566   3.790
13861TIP3    H141505   8.422   6.606   3.720
13861TIP3    H241506   8.462   6.472   3.778
13862TIP3   OH241507   8.498   6.858   4.344
13862TIP3    H141508   8.503   6.764   4.330
13862TIP3    H241509   8.478   6.868   4.437
13863TIP3   OH241510   7.124   6.923   5.114
13863TIP3    H141511   7.117   6.894   5.023
13863TIP3    H241512   7.217   6.917   5.134
13864TIP3   OH241513   8.424   6.298   3.759
13864TIP3    H141514   8.489   6.272   3.823
13864TIP3    H241515   8.342   6.258   3.789
13865TIP3   OH241516   8.490   6.587   4.228
13865TIP3    H141517   8.535   6.504   4.242
13865TIP3    H241518   8.533   6.625   4.151
13866TIP3   OH241519   8.637   6.737   4.749
13866TIP3    H141520   8.721   6.754   4.707
13866TIP3    H241521   8.644   6.780   4.835
13867TIP3   OH241522   8.707   6.903   4.960
13867TIP3    H141523   8.639   6.944   5.014
13867TIP3    H241524   8.739   6.974   4.904
13868TIP3   OH241525   7.346   6.598   5.745
13868TIP3    H141526   7.438   6.600   5.770
13868TIP3    H241527   7.311   6.519   5.786
13869TIP3   OH241528   8.596   6.339   4.290
13869TIP3    H141529   8.644   6.334   4.372
13869TIP3    H241530   8.535   6.265   4.292
13870TIP3   OH241531   7.319   6.318   5.101
13870TIP3    H141532   7.374   6.241   5.114
13870TIP3    H241533   7.382   6.391   5.093
13871TIP3   OH241534   7.101   6.578   5.164
13871TIP3    H141535   7.158   6.582   5.087
13871TIP3    H241536   7.118   6.660   5.211
13872TIP3   OH241537   0.115   6.594   5.351
13872TIP3    H141538   0.036   6.643   5.330
13872TIP3    H241539   0.111   6.517   5.294
13873TIP3   OH241540   8.650   6.254   3.913
13873TIP3    H141541   8.702   6.192   3.862
13873TIP3    H241542   8.706   6.330   3.926
13874TIP3   OH241543   8.377   7.724   4.322
13874TIP3    H141544   8.348   7.786   4.255
13874TIP3    H241545   8.447   7.674   4.281
13875TIP3   OH241546   7.309   6.129   5.484
13875TIP3    H141547   7.267   6.134   5.570
13875TIP3    H241548   7.257   6.186   5.428
13876TIP3   OH241549   7.348   7.625   5.589
13876TIP3    H141550   7.259   7.596   5.571
13876TIP3    H241551   7.368   7.593   5.677
13877TIP3   OH241552   7.520   7.636   5.121
13877TIP3    H141553   7.480   7.712   5.081
13877TIP3    H241554   7.608   7.633   5.086
13878TIP3   OH241555   0.028   6.373   5.200
13878TIP3    H141556  -0.050   6.384   5.146
13878TIP3    H241557   0.055   6.282   5.186
13879TIP3   OH241558   7.189   7.855   5.159
13879TIP3    H141559   7.101   7.881   5.131
13879TIP3    H241560   7.213   7.920   5.225
13880TIP3   OH241561   7.421   7.871   5.013
13880TIP3    H141562   7.339   7.865   5.062
13880TIP3    H241563   7.395   7.901   4.926
13881TIP3   OH241564   7.831   7.863   4.911
13881TIP3    H141565   7.750   7.893   4.870
13881TIP3    H241566   7.891   7.846   4.838
13882TIP3   OH241567   8.161   7.810   4.788
13882TIP3    H141568   8.088   7.777   4.737
13882TIP3    H241569   8.237   7.800   4.730
13883TIP3   OH241570   7.125   7.660   4.876
13883TIP3    H141571   7.149   7.633   4.965
13883TIP3    H241572   7.196   7.628   4.821
13884TIP3   OH241573   7.328   7.539   4.742
13884TIP3    H141574   7.335   7.453   4.783
13884TIP3    H241575   7.417   7.575   4.746
13885TIP3   OH241576   7.606   7.593   4.780
13885TIP3    H141577   7.615   7.502   4.753
13885TIP3    H241578   7.655   7.599   4.862
13886TIP3   OH241579   8.152   6.279   4.840
13886TIP3    H141580   8.116   6.208   4.893
13886TIP3    H241581   8.220   6.238   4.787
13887TIP3   OH241582   8.660   6.215   4.729
13887TIP3    H141583   8.706   6.265   4.661
13887TIP3    H241584   8.576   6.260   4.739
13888TIP3   OH241585   8.773   6.312   4.497
13888TIP3    H141586   8.831   6.243   4.462
13888TIP3    H241587   8.816   6.394   4.473
13889TIP3   OH241588   7.393   5.990   4.846
13889TIP3    H141589   7.308   5.949   4.862
13889TIP3    H241590   7.454   5.916   4.838
13890TIP3   OH241591   7.202   5.900   4.477
13890TIP3    H141592   7.248   5.940   4.403
13890TIP3    H241593   7.116   5.942   4.477
13891TIP3   OH241594   7.869   6.032   4.743
13891TIP3    H141595   7.921   6.075   4.675
13891TIP3    H241596   7.911   6.057   4.825
13892TIP3   OH241597   8.363   6.157   4.713
13892TIP3    H141598   8.413   6.122   4.639
13892TIP3    H241599   8.370   6.089   4.780
13893TIP3   OH241600   8.419   6.126   4.299
13893TIP3    H141601   8.338   6.170   4.325
13893TIP3    H241602   8.411   6.038   4.337
13894TIP3   OH241603   6.883   7.468   4.299
13894TIP3    H141604   6.805   7.427   4.260
13894TIP3    H241605   6.896   7.548   4.247
13895TIP3   OH241606   7.333   6.025   4.258
13895TIP3    H141607   7.379   5.963   4.201
13895TIP3    H241608   7.403   6.078   4.296
13896TIP3   OH241609   7.812   6.221   4.364
13896TIP3    H141610   7.873   6.170   4.417
13896TIP3    H241611   7.825   6.311   4.391
13897TIP3   OH241612   7.691   7.609   3.832
13897TIP3    H141613   7.775   7.638   3.798
13897TIP3    H241614   7.665   7.537   3.774
13898TIP3   OH241615   8.355   7.722   3.913
13898TIP3    H141616   8.358   7.627   3.928
13898TIP3    H241617   8.300   7.732   3.835
13899TIP3   OH241618   7.628   6.260   5.732
13899TIP3    H141619   7.593   6.197   5.795
13899TIP3    H241620   7.721   6.265   5.752
13900TIP3   OH241621   7.879   6.259   5.849
13900TIP3    H141622   7.956   6.247   5.794
13900TIP3    H241623   7.884   6.187   5.913
13901TIP3   OH241624   8.689   6.352   5.639
13901TIP3    H141625   8.712   6.330   5.730
13901TIP3    H241626   8.773   6.352   5.593
13902TIP3   OH241627   8.829   6.770   4.158
13902TIP3    H141628   8.796   6.858   4.177
13902TIP3    H241629   8.758   6.728   4.109
13903TIP3   OH241630   0.035   7.069   4.340
13903TIP3    H141631   0.065   6.985   4.374
13903TIP3    H241632   0.074   7.075   4.254
13904TIP3   OH241633   0.129   6.831   4.433
13904TIP3    H141634   0.223   6.832   4.413
13904TIP3    H241635   0.096   6.755   4.386
13905TIP3   OH241636   8.757   7.310   3.877
13905TIP3    H141637   8.731   7.309   3.785
13905TIP3    H241638   8.763   7.402   3.900
13906TIP3   OH241639   8.785   7.613   4.524
13906TIP3    H141640   8.846   7.665   4.472
13906TIP3    H241641   8.764   7.668   4.599
13907TIP3   OH241642   0.018   6.525   4.402
13907TIP3    H141643   0.066   6.547   4.481
13907TIP3    H241644   0.085   6.500   4.339
13908TIP3   OH241645   8.808   6.484   3.952
13908TIP3    H141646   8.860   6.520   3.881
13908TIP3    H241647   8.745   6.554   3.974
13909TIP3   OH241648   0.182   6.646   4.161
13909TIP3    H141649   0.088   6.665   4.166
13909TIP3    H241650   0.221   6.729   4.133
13910TIP3   OH241651   8.832   6.896   3.700
13910TIP3    H141652   8.884   6.971   3.727
13910TIP3    H241653   8.752   6.902   3.752
13911TIP3   OH241654   0.331   6.698   4.957
13911TIP3    H141655   0.247   6.739   4.977
13911TIP3    H241656   0.316   6.604   4.971
13912TIP3   OH241657   0.053   7.119   3.800
13912TIP3    H141658  -0.006   7.183   3.839
13912TIP3    H241659   0.098   7.167   3.730
13913TIP3   OH241660   8.917   6.643   3.747
13913TIP3    H141661   8.894   6.735   3.740
13913TIP3    H241662   8.879   6.602   3.670
13914TIP3   OH241663   0.355   6.393   4.508
13914TIP3    H141664   0.300   6.355   4.440
13914TIP3    H241665   0.436   6.342   4.505
13915TIP3   OH241666   8.699   7.310   3.609
13915TIP3    H141667   8.761   7.363   3.559
13915TIP3    H241668   8.688   7.230   3.558
13916TIP3   OH241669   0.036   7.214   4.573
13916TIP3    H141670   0.025   7.167   4.490
13916TIP3    H241671   0.127   7.244   4.572
13917TIP3   OH241672   0.172   6.563   4.626
13917TIP3    H141673   0.231   6.492   4.603
13917TIP3    H241674   0.229   6.634   4.654
13918TIP3   OH241675   8.881   6.837   4.673
13918TIP3    H141676   8.936   6.842   4.595
13918TIP3    H241677   8.871   6.927   4.702
13919TIP3   OH241678   8.845   6.305   4.156
13919TIP3    H141679   8.763   6.311   4.206
13919TIP3    H241680   8.843   6.382   4.098
13920TIP3   OH241681   0.211   6.430   4.993
13920TIP3    H141682   0.164   6.423   5.076
13920TIP3    H241683   0.145   6.461   4.930
13921TIP3   OH241684   0.211   6.298   4.298
13921TIP3    H141685   0.123   6.260   4.298
13921TIP3    H241686   0.267   6.231   4.258
13922TIP3   OH241687   0.054   6.152   3.960
13922TIP3    H141688   0.074   6.217   3.893
13922TIP3    H241689   0.026   6.203   4.035
13923TIP3   OH241690   0.095   6.351   3.735
13923TIP3    H141691   0.150   6.275   3.715
13923TIP3    H241692   0.154   6.413   3.777
13924TIP3   OH241693   1.398   7.349   6.519
13924TIP3    H141694   1.415   7.433   6.562
13924TIP3    H241695   1.432   7.360   6.430
13925TIP3   OH241696   0.808   7.206   6.175
13925TIP3    H141697   0.863   7.247   6.242
13925TIP3    H241698   0.822   7.259   6.097
13926TIP3   OH241699   1.459   7.563   6.690
13926TIP3    H141700   1.371   7.599   6.680
13926TIP3    H241701   1.494   7.604   6.769
13927TIP3   OH241702   0.988   7.318   6.354
13927TIP3    H141703   1.047   7.242   6.353
13927TIP3    H241704   1.043   7.391   6.383
13928TIP3   OH241705   1.190   7.253   6.682
13928TIP3    H141706   1.112   7.285   6.638
13928TIP3    H241707   1.262   7.276   6.623
13929TIP3   OH241708   1.082   8.316   6.654
13929TIP3    H141709   1.039   8.234   6.632
13929TIP3    H241710   1.013   8.382   6.643
13930TIP3   OH241711   1.259   7.912   6.548
13930TIP3    H141712   1.180   7.965   6.561
13930TIP3    H241713   1.280   7.922   6.456
13931TIP3   OH241714   1.086   6.834   5.788
13931TIP3    H141715   1.003   6.851   5.832
13931TIP3    H241716   1.101   6.911   5.734
13932TIP3   OH241717   0.890   8.187   5.382
13932TIP3    H141718   0.906   8.279   5.359
13932TIP3    H241719   0.972   8.142   5.361
13933TIP3   OH241720   1.242   7.717   6.950
13933TIP3    H141721   1.167   7.741   7.006
13933TIP3    H241722   1.248   7.622   6.959
13934TIP3   OH241723   0.973   7.503   6.948
13934TIP3    H141724   0.915   7.435   6.981
13934TIP3    H241725   0.917   7.557   6.892
13935TIP3   OH241726   0.631   7.791   5.378
13935TIP3    H141727   0.592   7.716   5.333
13935TIP3    H241728   0.712   7.758   5.415
13936TIP3   OH241729   1.019   8.060   6.537
13936TIP3    H141730   1.062   8.094   6.459
13936TIP3    H241731   0.938   8.021   6.504
13937TIP3   OH241732   0.718   7.359   5.791
13937TIP3    H141733   0.802   7.360   5.836
13937TIP3    H241734   0.679   7.444   5.810
13938TIP3   OH241735   1.091   7.457   5.676
13938TIP3    H141736   1.042   7.410   5.608
13938TIP3    H241737   1.091   7.548   5.648
13939TIP3   OH241738   1.326   8.272   6.763
13939TIP3    H141739   1.240   8.304   6.737
13939TIP3    H241740   1.381   8.286   6.686
13940TIP3   OH241741   0.788   8.236   5.640
13940TIP3    H141742   0.808   8.157   5.690
13940TIP3    H241743   0.829   8.221   5.555
13941TIP3   OH241744   3.909   0.052   5.324
13941TIP3    H141745   3.929   0.126   5.266
13941TIP3    H241746   3.900   0.092   5.410
13942TIP3   OH241747   1.235   7.435   6.903
13942TIP3    H141748   1.144   7.453   6.926
13942TIP3    H241749   1.230   7.376   6.828
13943TIP3   OH241750   0.906   7.607   6.296
13943TIP3    H141751   0.851   7.531   6.317
13943TIP3    H241752   0.984   7.596   6.351
13944TIP3   OH241753   0.907   7.736   5.346
13944TIP3    H141754   0.873   7.679   5.277
13944TIP3    H241755   0.896   7.824   5.311
13945TIP3   OH241756   7.093   3.259   0.078
13945TIP3    H141757   7.056   3.176   0.048
13945TIP3    H241758   7.018   3.317   0.088
13946TIP3   OH241759   4.099   0.181   6.299
13946TIP3    H141760   4.114   0.237   6.375
13946TIP3    H241761   4.048   0.235   6.239
13947TIP3   OH241762   1.035   7.924   5.695
13947TIP3    H141763   1.102   7.983   5.661
13947TIP3    H241764   1.075   7.884   5.772
13948TIP3   OH241765   1.173   7.788   5.891
13948TIP3    H141766   1.112   7.740   5.948
13948TIP3    H241767   1.239   7.823   5.951
13949TIP3   OH241768   1.178   8.130   6.330
13949TIP3    H141769   1.240   8.064   6.298
13949TIP3    H241770   1.184   8.201   6.267
13950TIP3   OH241771   1.083   7.699   5.548
13950TIP3    H141772   1.019   7.703   5.477
13950TIP3    H241773   1.063   7.774   5.603
13951TIP3   OH241774   0.976   7.351   5.451
13951TIP3    H141775   0.909   7.391   5.396
13951TIP3    H241776   0.956   7.257   5.448
13952TIP3   OH241777   1.002   7.630   6.037
13952TIP3    H141778   0.984   7.541   6.007
13952TIP3    H241779   0.964   7.634   6.124
13953TIP3   OH241780   1.234   8.048   6.893
13953TIP3    H141781   1.323   8.016   6.909
13953TIP3    H241782   1.246   8.133   6.852
13954TIP3   OH241783   1.460   7.883   6.916
13954TIP3    H141784   1.374   7.843   6.924
13954TIP3    H241785   1.521   7.810   6.920
13955TIP3   OH241786   0.918   7.081   5.451
13955TIP3    H141787   0.979   7.061   5.523
13955TIP3    H241788   0.833   7.052   5.483
13956TIP3   OH241789   0.967   7.371   5.916
13956TIP3    H141790   1.008   7.287   5.935
13956TIP3    H241791   1.013   7.403   5.839
13957TIP3   OH241792   1.129   7.535   6.453
13957TIP3    H141793   1.208   7.557   6.403
13957TIP3    H241794   1.141   7.578   6.537
13958TIP3   OH241795   1.207   7.679   6.677
13958TIP3    H141796   1.204   7.703   6.769
13958TIP3    H241797   1.222   7.762   6.631
13959TIP3   OH241798   1.650   7.286   7.195
13959TIP3    H141799   1.713   7.228   7.151
13959TIP3    H241800   1.608   7.335   7.125
13960TIP3   OH241801   1.074   7.118   5.961
13960TIP3    H141802   1.115   7.102   6.046
13960TIP3    H241803   1.007   7.050   5.954
13961TIP3   OH241804   1.488   7.419   7.021
13961TIP3    H141805   1.443   7.466   7.091
13961TIP3    H241806   1.420   7.395   6.959
13962TIP3   OH241807   1.141   7.034   5.608
13962TIP3    H141808   1.189   6.975   5.550
13962TIP3    H241809   1.195   7.113   5.613
13963TIP3   OH241810   1.404   7.141   6.875
13963TIP3    H141811   1.317   7.135   6.838
13963TIP3    H241812   1.439   7.052   6.869
13964TIP3   OH241813   1.132   6.941   6.392
13964TIP3    H141814   1.168   6.997   6.323
13964TIP3    H241815   1.041   6.970   6.400
13965TIP3   OH241816   1.234   7.074   6.181
13965TIP3    H141817   1.301   7.012   6.153
13965TIP3    H241818   1.274   7.160   6.168
13966TIP3   OH241819   0.873   7.008   6.401
13966TIP3    H141820   0.806   7.042   6.343
13966TIP3    H241821   0.831   6.937   6.448
13967TIP3   OH241822   0.878   6.916   5.952
13967TIP3    H141823   0.794   6.962   5.951
13967TIP3    H241824   0.858   6.832   5.995
13968TIP3   OH241825   1.156   7.191   7.270
13968TIP3    H141826   1.105   7.112   7.287
13968TIP3    H241827   1.229   7.162   7.216
13969TIP3   OH241828   2.353   8.046   5.593
13969TIP3    H141829   2.327   8.135   5.571
13969TIP3    H241830   2.279   7.992   5.567
13970TIP3   OH241831   2.334   8.055   5.989
13970TIP3    H141832   2.383   8.043   6.070
13970TIP3    H241833   2.291   7.970   5.974
13971TIP3   OH241834   1.636   7.925   6.336
13971TIP3    H141835   1.672   7.869   6.405
13971TIP3    H241836   1.712   7.956   6.287
13972TIP3   OH241837   2.603   8.325   5.645
13972TIP3    H141838   2.585   8.258   5.711
13972TIP3    H241839   2.628   8.403   5.696
13973TIP3   OH241840   1.622   8.325   6.037
13973TIP3    H141841   1.602   8.232   6.039
13973TIP3    H241842   1.717   8.329   6.022
13974TIP3   OH241843   1.321   7.561   5.811
13974TIP3    H141844   1.282   7.645   5.836
13974TIP3    H241845   1.247   7.511   5.775
13975TIP3   OH241846   1.399   7.868   6.034
13975TIP3    H141847   1.448   7.790   6.058
13975TIP3    H241848   1.466   7.934   6.015
13976TIP3   OH241849   5.224   0.362   5.729
13976TIP3    H141850   5.316   0.338   5.722
13976TIP3    H241851   5.205   0.357   5.823
13977TIP3   OH241852   2.152   8.280   6.004
13977TIP3    H141853   2.191   8.200   5.969
13977TIP3    H241854   2.224   8.326   6.047
13978TIP3   OH241855   3.181   7.602   6.015
13978TIP3    H141856   3.198   7.688   6.053
13978TIP3    H241857   3.209   7.610   5.924
13979TIP3   OH241858   2.553   7.773   6.041
13979TIP3    H141859   2.589   7.689   6.067
13979TIP3    H241860   2.518   7.758   5.953
13980TIP3   OH241861   1.912   7.432   5.995
13980TIP3    H141862   1.891   7.505   5.937
13980TIP3    H241863   1.857   7.360   5.965
13981TIP3   OH241864   2.605   7.537   5.631
13981TIP3    H141865   2.667   7.532   5.703
13981TIP3    H241866   2.656   7.569   5.557
13982TIP3   OH241867   1.538   7.647   6.126
13982TIP3    H141868   1.621   7.630   6.169
13982TIP3    H241869   1.541   7.596   6.045
13983TIP3   OH241870   1.959   7.843   5.937
13983TIP3    H141871   2.053   7.828   5.944
13983TIP3    H241872   1.924   7.761   5.904
13984TIP3   OH241873   3.236   7.820   6.186
13984TIP3    H141874   3.150   7.862   6.178
13984TIP3    H241875   3.273   7.854   6.267
13985TIP3   OH241876   1.896   7.438   6.447
13985TIP3    H141877   1.846   7.473   6.373
13985TIP3    H241878   1.841   7.455   6.523
13986TIP3   OH241879   2.231   8.257   5.469
13986TIP3    H141880   2.208   8.246   5.377
13986TIP3    H241881   2.167   8.321   5.502
13987TIP3   OH241882   1.992   8.195   6.216
13987TIP3    H141883   1.927   8.257   6.249
13987TIP3    H241884   2.035   8.242   6.144
13988TIP3   OH241885   2.757   7.568   5.855
13988TIP3    H141886   2.723   7.541   5.940
13988TIP3    H241887   2.820   7.638   5.875
13989TIP3   OH241888   1.784   7.543   6.216
13989TIP3    H141889   1.839   7.618   6.238
13989TIP3    H241890   1.830   7.500   6.144
13990TIP3   OH241891   1.806   8.360   6.334
13990TIP3    H141892   1.796   8.451   6.304
13990TIP3    H241893   1.735   8.348   6.398
13991TIP3   OH241894   1.234   8.087   5.596
13991TIP3    H141895   1.198   8.148   5.532
13991TIP3    H241896   1.259   8.143   5.670
13992TIP3   OH241897   5.608   0.161   5.798
13992TIP3    H141898   5.538   0.156   5.864
13992TIP3    H241899   5.574   0.224   5.733
13993TIP3   OH241900   2.991   7.488   6.190
13993TIP3    H141901   2.904   7.508   6.156
13993TIP3    H241902   3.051   7.515   6.121
13994TIP3   OH241903   2.235   7.129   6.180
13994TIP3    H141904   2.229   7.036   6.204
13994TIP3    H241905   2.159   7.169   6.220
13995TIP3   OH241906   5.327   0.158   5.483
13995TIP3    H141907   5.389   0.095   5.446
13995TIP3    H241908   5.377   0.205   5.550
13996TIP3   OH241909   2.566   8.393   5.383
13996TIP3    H141910   2.544   8.317   5.329
13996TIP3    H241911   2.585   8.357   5.470
13997TIP3   OH241912   5.849   0.087   6.149
13997TIP3    H141913   5.829   0.005   6.104
13997TIP3    H241914   5.847   0.153   6.080
13998TIP3   OH241915   2.165   7.909   5.433
13998TIP3    H141916   2.088   7.960   5.413
13998TIP3    H241917   2.215   7.906   5.351
13999TIP3   OH241918   2.138   7.718   5.108
13999TIP3    H141919   2.200   7.767   5.162
13999TIP3    H241920   2.191   7.650   5.067
14000TIP3   OH241921   3.062   8.161   6.036
14000TIP3    H141922   2.974   8.199   6.031
14000TIP3    H241923   3.096   8.168   5.946
14001TIP3   OH241924   2.530   7.981   5.396
14001TIP3    H141925   2.478   8.006   5.472
14001TIP3    H241926   2.616   7.959   5.431
14002TIP3   OH241927   2.754   8.019   6.328
14002TIP3    H141928   2.755   8.102   6.376
14002TIP3    H241929   2.673   8.021   6.277
14003TIP3   OH241930   1.756   7.971   5.790
14003TIP3    H141931   1.720   7.910   5.726
14003TIP3    H241932   1.830   7.923   5.829
14004TIP3   OH241933   1.886   8.361   5.958
14004TIP3    H141934   1.865   8.364   5.864
14004TIP3    H241935   1.978   8.337   5.961
14005TIP3   OH241936   1.853   7.969   6.159
14005TIP3    H141937   1.892   7.933   6.080
14005TIP3    H241938   1.904   8.048   6.178
14006TIP3   OH241939   5.390   0.159   5.963
14006TIP3    H141940   5.305   0.203   5.967
14006TIP3    H241941   5.385   0.090   6.029
14007TIP3   OH241942   4.986   0.046   6.496
14007TIP3    H141943   4.933   0.113   6.538
14007TIP3    H241944   4.925  -0.000   6.438
14008TIP3   OH241945   2.348   7.864   5.227
14008TIP3    H141946   2.412   7.914   5.278
14008TIP3    H241947   2.380   7.869   5.137
14009TIP3   OH241948   1.782   8.035   6.605
14009TIP3    H141949   1.791   8.122   6.643
14009TIP3    H241950   1.687   8.021   6.599
14010TIP3   OH241951   5.066   0.104   5.566
14010TIP3    H141952   5.161   0.116   5.563
14010TIP3    H241953   5.033   0.157   5.493
14011TIP3   OH241954   4.824   0.251   6.563
14011TIP3    H141955   4.796   0.241   6.472
14011TIP3    H241956   4.747   0.283   6.609
14012TIP3   OH241957   2.866   7.090   5.269
14012TIP3    H141958   2.791   7.112   5.323
14012TIP3    H241959   2.878   7.166   5.212
14013TIP3   OH241960   1.630   7.815   5.590
14013TIP3    H141961   1.555   7.861   5.552
14013TIP3    H241962   1.597   7.728   5.612
14014TIP3   OH241963   5.657   0.049   4.808
14014TIP3    H141964   5.677   0.141   4.827
14014TIP3    H241965   5.742   0.008   4.797
14015TIP3   OH241966   1.410   8.215   6.490
14015TIP3    H141967   1.320   8.187   6.472
14015TIP3    H241968   1.452   8.139   6.529
14016TIP3   OH241969   1.277   8.363   6.220
14016TIP3    H141970   1.330   8.333   6.294
14016TIP3    H241971   1.221   8.431   6.256
14017TIP3   OH241972   6.130   0.413   6.264
14017TIP3    H141973   6.108   0.322   6.287
14017TIP3    H241974   6.074   0.433   6.189
14018TIP3   OH241975   5.217   0.171   6.422
14018TIP3    H141976   5.205   0.265   6.405
14018TIP3    H241977   5.129   0.140   6.444
14019TIP3   OH241978   4.442   0.033   5.635
14019TIP3    H141979   4.455   0.090   5.711
14019TIP3    H241980   4.365  -0.019   5.656
14020TIP3   OH241981   5.434   0.121   5.057
14020TIP3    H141982   5.421   0.164   4.972
14020TIP3    H241983   5.351   0.133   5.103
14021TIP3   OH241984   5.223   0.174   5.224
14021TIP3    H141985   5.136   0.133   5.223
14021TIP3    H241986   5.253   0.164   5.314
14022TIP3   OH241987   3.006   7.980   6.499
14022TIP3    H141988   2.921   7.993   6.457
14022TIP3    H241989   3.024   7.887   6.487
14023TIP3   OH241990   1.605   8.405   6.523
14023TIP3    H141991   1.649   8.378   6.604
14023TIP3    H241992   1.534   8.342   6.512
14024TIP3   OH241993   2.000   7.217   6.312
14024TIP3    H141994   1.917   7.183   6.278
14024TIP3    H241995   1.976   7.299   6.355
14025TIP3   OH241996   2.525   7.348   6.513
14025TIP3    H141997   2.597   7.319   6.568
14025TIP3    H241998   2.447   7.331   6.565
14026TIP3   OH241999   2.767   7.756   6.416
14026TIP3    H142000   2.726   7.757   6.502
14026TIP3    H242001   2.753   7.844   6.381
14027TIP3   OH242002   2.440   7.852   4.973
14027TIP3    H142003   2.399   7.845   4.887
14027TIP3    H242004   2.524   7.895   4.957
14028TIP3   OH242005   2.139   7.272   5.271
14028TIP3    H142006   2.105   7.277   5.361
14028TIP3    H242007   2.107   7.187   5.239
14029TIP3   OH242008   1.937   7.753   6.310
14029TIP3    H142009   1.889   7.758   6.392
14029TIP3    H242010   1.912   7.833   6.263
14030TIP3   OH242011   1.815   7.631   5.834
14030TIP3    H142012   1.726   7.607   5.860
14030TIP3    H242013   1.823   7.599   5.744
14031TIP3   OH242014   2.294   7.703   5.563
14031TIP3    H142015   2.246   7.775   5.521
14031TIP3    H242016   2.354   7.673   5.495
14032TIP3   OH242017   2.499   7.965   6.625
14032TIP3    H142018   2.505   7.887   6.681
14032TIP3    H242019   2.583   8.009   6.637
14033TIP3   OH242020   2.460   7.720   5.788
14033TIP3    H142021   2.393   7.743   5.724
14033TIP3    H242022   2.507   7.647   5.749
14034TIP3   OH242023   1.769   7.761   6.525
14034TIP3    H142024   1.776   7.833   6.587
14034TIP3    H242025   1.753   7.684   6.579
14035TIP3   OH242026   1.809   7.243   5.250
14035TIP3    H142027   1.801   7.248   5.346
14035TIP3    H242028   1.732   7.290   5.218
14036TIP3   OH242029   1.367   7.298   6.119
14036TIP3    H142030   1.439   7.333   6.171
14036TIP3    H242031   1.403   7.286   6.031
14037TIP3   OH242032   1.287   7.269   5.623
14037TIP3    H142033   1.327   7.303   5.543
14037TIP3    H242034   1.222   7.334   5.648
14038TIP3   OH242035   2.499   7.980   6.207
14038TIP3    H142036   2.525   7.911   6.145
14038TIP3    H242037   2.451   7.934   6.275
14039TIP3   OH242038   2.181   7.421   5.886
14039TIP3    H142039   2.104   7.420   5.942
14039TIP3    H242040   2.255   7.413   5.946
14040TIP3   OH242041   1.577   7.507   5.894
14040TIP3    H142042   1.490   7.513   5.856
14040TIP3    H242043   1.605   7.417   5.877
14041TIP3   OH242044   1.826   7.511   5.588
14041TIP3    H142045   1.921   7.521   5.579
14041TIP3    H242046   1.792   7.529   5.501
14042TIP3   OH242047   2.626   7.511   6.097
14042TIP3    H142048   2.604   7.528   6.189
14042TIP3    H242049   2.559   7.449   6.068
14043TIP3   OH242050   1.715   7.538   5.339
14043TIP3    H142051   1.650   7.488   5.289
14043TIP3    H242052   1.770   7.579   5.273
14044TIP3   OH242053   1.740   8.278   6.737
14044TIP3    H142054   1.814   8.319   6.782
14044TIP3    H242055   1.700   8.221   6.803
14045TIP3   OH242056   2.229   7.787   5.988
14045TIP3    H142057   2.299   7.741   5.941
14045TIP3    H242058   2.229   7.746   6.075
14046TIP3   OH242059   1.718   7.259   5.879
14046TIP3    H142060   1.689   7.184   5.931
14046TIP3    H242061   1.741   7.222   5.794
14047TIP3   OH242062   2.202   7.693   6.255
14047TIP3    H142063   2.115   7.725   6.277
14047TIP3    H242064   2.262   7.747   6.306
14048TIP3   OH242065   1.936   8.065   5.368
14048TIP3    H142066   1.871   7.997   5.351
14048TIP3    H242067   1.918   8.094   5.457
14049TIP3   OH242068   2.808   8.266   5.993
14049TIP3    H142069   2.849   8.312   5.919
14049TIP3    H242070   2.726   8.231   5.957
14050TIP3   OH242071   2.395   7.368   5.277
14050TIP3    H142072   2.301   7.349   5.273
14050TIP3    H242073   2.400   7.462   5.290
14051TIP3   OH242074   2.364   8.310   6.421
14051TIP3    H142075   2.422   8.305   6.497
14051TIP3    H242076   2.321   8.395   6.430
14052TIP3   OH242077   2.459   7.631   5.346
14052TIP3    H142078   2.554   7.633   5.357
14052TIP3    H242079   2.438   7.708   5.294
14053TIP3   OH242080   1.618   8.044   6.017
14053TIP3    H142081   1.658   8.029   5.931
14053TIP3    H242082   1.685   8.016   6.080
14054TIP3   OH242083   2.121   8.189   5.208
14054TIP3    H142084   2.087   8.279   5.209
14054TIP3    H242085   2.060   8.140   5.262
14055TIP3   OH242086   1.507   7.994   6.639
14055TIP3    H142087   1.507   7.993   6.734
14055TIP3    H242088   1.425   7.950   6.614
14056TIP3   OH242089   2.258   8.099   6.676
14056TIP3    H142090   2.188   8.047   6.638
14056TIP3    H242091   2.338   8.063   6.637
14057TIP3   OH242092   5.449   0.201   6.283
14057TIP3    H142093   5.360   0.177   6.309
14057TIP3    H242094   5.489   0.234   6.363
14058TIP3   OH242095   2.875   7.714   5.163
14058TIP3    H142096   2.816   7.669   5.103
14058TIP3    H242097   2.885   7.801   5.126
14059TIP3   OH242098   6.090   0.140   6.261
14059TIP3    H142099   5.995   0.138   6.245
14059TIP3    H242100   6.129   0.123   6.176
14060TIP3   OH242101   5.676   0.111   5.169
14060TIP3    H142102   5.652   0.064   5.249
14060TIP3    H242103   5.604   0.095   5.109
14061TIP3   OH242104   2.581   8.153   5.870
14061TIP3    H142105   2.491   8.130   5.893
14061TIP3    H242106   2.618   8.071   5.836
14062TIP3   OH242107   4.731   0.002   5.701
14062TIP3    H142108   4.757   0.089   5.670
14062TIP3    H242109   4.635   0.002   5.694
14063TIP3   OH242110   1.305   7.682   5.386
14063TIP3    H142111   1.354   7.762   5.404
14063TIP3    H242112   1.231   7.685   5.447
14064TIP3   OH242113   1.856   8.153   5.608
14064TIP3    H142114   1.834   8.240   5.640
14064TIP3    H242115   1.824   8.094   5.675
14065TIP3   OH242116   5.005   0.313   6.216
14065TIP3    H142117   4.965   0.397   6.238
14065TIP3    H242118   5.098   0.325   6.233
14066TIP3   OH242119   4.584   0.228   5.497
14066TIP3    H142120   4.533   0.149   5.519
14066TIP3    H242121   4.558   0.292   5.563
14067TIP3   OH242122   2.390   8.335   6.141
14067TIP3    H142123   2.382   8.326   6.236
14067TIP3    H242124   2.466   8.281   6.118
14068TIP3   OH242125   2.350   8.228   5.010
14068TIP3    H142126   2.422   8.225   5.073
14068TIP3    H242127   2.272   8.207   5.062
14069TIP3   OH242128   5.514   0.552   6.216
14069TIP3    H142129   5.567   0.472   6.209
14069TIP3    H242130   5.538   0.603   6.138
14070TIP3   OH242131   5.747   0.309   4.832
14070TIP3    H142132   5.712   0.352   4.754
14070TIP3    H242133   5.697   0.345   4.905
14071TIP3   OH242134   1.729   7.509   6.655
14071TIP3    H142135   1.634   7.518   6.656
14071TIP3    H242136   1.748   7.453   6.731
14072TIP3   OH242137   2.539   8.179   5.206
14072TIP3    H142138   2.528   8.108   5.269
14072TIP3    H242139   2.632   8.179   5.185
14073TIP3   OH242140   4.419   0.251   6.412
14073TIP3    H142141   4.436   0.209   6.328
14073TIP3    H242142   4.467   0.199   6.476
14074TIP3   OH242143   1.697   8.207   5.013
14074TIP3    H142144   1.724   8.121   4.983
14074TIP3    H242145   1.710   8.205   5.108
14075TIP3   OH242146   1.741   8.260   5.283
14075TIP3    H142147   1.810   8.207   5.323
14075TIP3    H242148   1.777   8.348   5.278
14076TIP3   OH242149   1.412   7.929   5.461
14076TIP3    H142150   1.349   7.970   5.520
14076TIP3    H242151   1.418   7.989   5.387
14077TIP3   OH242152   2.564   7.574   6.359
14077TIP3    H142153   2.647   7.614   6.387
14077TIP3    H242154   2.553   7.498   6.416
14078TIP3   OH242155   2.457   7.317   5.545
14078TIP3    H142156   2.437   7.335   5.453
14078TIP3    H242157   2.501   7.396   5.576
14079TIP3   OH242158   4.978   0.048   5.214
14079TIP3    H142159   4.913   0.103   5.257
14079TIP3    H242160   4.945   0.038   5.124
14080TIP3   OH242161   2.105   7.517   5.636
14080TIP3    H142162   2.169   7.584   5.609
14080TIP3    H242163   2.130   7.495   5.726
14081TIP3   OH242164   2.407   7.807   6.404
14081TIP3    H142165   2.442   7.854   6.480
14081TIP3    H242166   2.460   7.728   6.398
14082TIP3   OH242167   2.271   7.211   5.720
14082TIP3    H142168   2.249   7.288   5.772
14082TIP3    H242169   2.341   7.240   5.662
14083TIP3   OH242170   4.727   0.147   5.266
14083TIP3    H142171   4.690   0.174   5.183
14083TIP3    H242172   4.673   0.190   5.332
14084TIP3   OH242173   1.785   7.238   5.530
14084TIP3    H142174   1.774   7.329   5.559
14084TIP3    H242175   1.879   7.223   5.536
14085TIP3   OH242176   3.036   7.715   6.406
14085TIP3    H142177   2.941   7.713   6.410
14085TIP3    H242178   3.058   7.678   6.320
14086TIP3   OH242179   2.686   7.905   5.787
14086TIP3    H142180   2.612   7.846   5.797
14086TIP3    H242181   2.755   7.868   5.842
14087TIP3   OH242182   1.396   8.130   5.261
14087TIP3    H142183   1.438   8.213   5.282
14087TIP3    H242184   1.461   8.083   5.208
14088TIP3   OH242185   1.328   7.405   5.391
14088TIP3    H142186   1.343   7.500   5.394
14088TIP3    H242187   1.244   7.396   5.346
14089TIP3   OH242188   5.641   0.507   5.772
14089TIP3    H142189   5.670   0.567   5.703
14089TIP3    H242190   5.721   0.466   5.803
14090TIP3   OH242191   1.736   7.137   6.264
14090TIP3    H142192   1.706   7.105   6.179
14090TIP3    H242193   1.727   7.061   6.322
14091TIP3   OH242194   1.249   8.316   5.748
14091TIP3    H142195   1.212   8.356   5.827
14091TIP3    H242196   1.183   8.332   5.681
14092TIP3   OH242197   1.915   8.371   4.968
14092TIP3    H142198   1.822   8.348   4.967
14092TIP3    H242199   1.960   8.288   4.952
14093TIP3   OH242200   5.553   0.306   6.504
14093TIP3    H142201   5.539   0.269   6.591
14093TIP3    H242202   5.516   0.394   6.509
14094TIP3   OH242203   2.335   8.415   4.802
14094TIP3    H142204   2.333   8.357   4.878
14094TIP3    H242205   2.353   8.357   4.728
14095TIP3   OH242206   1.569   7.953   5.146
14095TIP3    H142207   1.623   7.924   5.220
14095TIP3    H242208   1.627   7.949   5.070
14096TIP3   OH242209   2.185   8.366   6.699
14096TIP3    H142210   2.135   8.383   6.619
14096TIP3    H242211   2.220   8.277   6.686
14097TIP3   OH242212   2.040   8.127   4.949
14097TIP3    H142213   2.072   8.124   5.040
14097TIP3    H242214   2.041   8.035   4.921
14098TIP3   OH242215   5.627  -0.005   6.283
14098TIP3    H142216   5.701   0.038   6.240
14098TIP3    H242217   5.555   0.057   6.276
14099TIP3   OH242218   1.672   8.065   6.907
14099TIP3    H142219   1.745   8.007   6.928
14099TIP3    H242220   1.593   8.014   6.928
14100TIP3   OH242221   1.749   7.868   5.337
14100TIP3    H142222   1.719   7.832   5.420
14100TIP3    H242223   1.785   7.792   5.290
14101TIP3   OH242224   2.046   7.942   6.571
14101TIP3    H142225   1.958   7.979   6.577
14101TIP3    H242226   2.080   7.977   6.488
14102TIP3   OH242227   1.866   7.682   5.162
14102TIP3    H142228   1.836   7.679   5.071
14102TIP3    H242229   1.961   7.690   5.155
14103TIP3   OH242230   2.544   8.316   6.666
14103TIP3    H142231   2.626   8.291   6.624
14103TIP3    H242232   2.542   8.268   6.748
14104TIP3   OH242233   2.661   7.970   4.858
14104TIP3    H142234   2.649   7.927   4.773
14104TIP3    H242235   2.630   8.060   4.843
14105TIP3   OH242236   2.168   7.721   6.673
14105TIP3    H142237   2.162   7.650   6.609
14105TIP3    H242238   2.127   7.796   6.629
14106TIP3   OH242239   2.156   7.520   6.480
14106TIP3    H142240   2.183   7.557   6.396
14106TIP3    H242241   2.065   7.493   6.466
14107TIP3   OH242242   2.178   8.061   6.364
14107TIP3    H142243   2.254   8.120   6.369
14107TIP3    H242244   2.116   8.107   6.308
14108TIP3   OH242245   2.758   8.033   6.732
14108TIP3    H142246   2.822   7.962   6.741
14108TIP3    H242247   2.810   8.113   6.736
14109TIP3   OH242248   2.787   8.255   6.476
14109TIP3    H142249   2.732   8.304   6.415
14109TIP3    H242250   2.876   8.270   6.446
14110TIP3   OH242251   2.043   7.779   6.923
14110TIP3    H142252   1.962   7.729   6.936
14110TIP3    H242253   2.060   7.772   6.829
14111TIP3   OH242254   2.270   7.315   6.627
14111TIP3    H142255   2.230   7.385   6.575
14111TIP3    H242256   2.212   7.240   6.614
14112TIP3   OH242257   2.405   7.731   6.805
14112TIP3    H142258   2.391   7.807   6.861
14112TIP3    H242259   2.328   7.727   6.749
14113TIP3   OH242260   2.648   7.717   6.657
14113TIP3    H142261   2.574   7.696   6.714
14113TIP3    H242262   2.725   7.702   6.712
14114TIP3   OH242263   2.866   7.683   6.824
14114TIP3    H142264   2.883   7.589   6.828
14114TIP3    H242265   2.850   7.708   6.915
14115TIP3   OH242266   1.855   7.579   6.979
14115TIP3    H142267   1.858   7.489   6.945
14115TIP3    H242268   1.888   7.572   7.069
14116TIP3   OH242269   2.403   7.390   6.855
14116TIP3    H142270   2.457   7.311   6.867
14116TIP3    H242271   2.347   7.369   6.781
14117TIP3   OH242272   1.128   8.088   5.291
14117TIP3    H142273   1.221   8.109   5.288
14117TIP3    H242274   1.122   8.001   5.252
14118TIP3   OH242275   4.138   0.071   5.970
14118TIP3    H142276   4.170   0.029   6.049
14118TIP3    H242277   4.055   0.112   5.995
14119TIP3   OH242278   5.916   0.488   5.767
14119TIP3    H142279   5.967   0.556   5.811
14119TIP3    H242280   5.897   0.524   5.680
14120TIP3   OH242281   5.942   0.479   6.073
14120TIP3    H142282   5.911   0.412   6.011
14120TIP3    H242283   5.971   0.551   6.017
14121TIP3   OH242284   5.968   0.271   6.584
14121TIP3    H142285   5.887   0.280   6.634
14121TIP3    H242286   6.013   0.354   6.595
14122TIP3   OH242287   2.810   8.158   5.193
14122TIP3    H142288   2.869   8.220   5.151
14122TIP3    H242289   2.861   8.122   5.266
14123TIP3   OH242290   2.964   8.037   5.385
14123TIP3    H142291   2.900   7.998   5.446
14123TIP3    H242292   3.031   8.075   5.442
14124TIP3   OH242293   5.957  -0.001   5.833
14124TIP3    H142294   6.014  -0.062   5.787
14124TIP3    H242295   5.953   0.075   5.776
14125TIP3   OH242296   5.811   0.269   5.945
14125TIP3    H142297   5.745   0.298   6.007
14125TIP3    H242298   5.762   0.222   5.878
14126TIP3   OH242299   2.876   7.951   5.024
14126TIP3    H142300   2.804   7.950   4.961
14126TIP3    H242301   2.854   8.023   5.083
14127TIP3   OH242302   2.712   7.609   4.969
14127TIP3    H142303   2.670   7.643   4.890
14127TIP3    H242304   2.708   7.514   4.960
14128TIP3   OH242305   2.763   7.898   5.521
14128TIP3    H142306   2.769   7.803   5.506
14128TIP3    H242307   2.743   7.906   5.614
14129TIP3   OH242308   1.368   7.935   6.296
14129TIP3    H142309   1.363   7.912   6.203
14129TIP3    H242310   1.462   7.943   6.314
14130TIP3   OH242311   3.044   8.303   6.396
14130TIP3    H142312   3.109   8.235   6.377
14130TIP3    H242313   3.071   8.377   6.342
14131TIP3   OH242314   3.219   8.095   6.373
14131TIP3    H142315   3.146   8.054   6.418
14131TIP3    H242316   3.294   8.039   6.394
14132TIP3   OH242317   2.679   7.340   4.933
14132TIP3    H142318   2.749   7.312   4.992
14132TIP3    H242319   2.601   7.295   4.966
14133TIP3   OH242320   2.748   7.626   5.402
14133TIP3    H142321   2.794   7.542   5.417
14133TIP3    H242322   2.791   7.663   5.325
14134TIP3   OH242323   2.904   7.794   5.928
14134TIP3    H142324   2.985   7.812   5.880
14134TIP3    H242325   2.920   7.831   6.015
14135TIP3   OH242326   2.977   7.933   6.162
14135TIP3    H142327   2.902   7.962   6.214
14135TIP3    H242328   3.010   8.013   6.121
14136TIP3   OH242329   1.598   7.649   6.918
14136TIP3    H142330   1.691   7.647   6.939
14136TIP3    H242331   1.562   7.570   6.961
14137TIP3   OH242332   3.430   7.493   6.712
14137TIP3    H142333   3.491   7.444   6.657
14137TIP3    H242334   3.389   7.555   6.653
14138TIP3   OH242335   2.863   7.379   5.459
14138TIP3    H142336   2.905   7.363   5.544
14138TIP3    H242337   2.803   7.304   5.449
14139TIP3   OH242338   1.577   7.363   6.290
14139TIP3    H142339   1.630   7.283   6.291
14139TIP3    H242340   1.638   7.433   6.269
14140TIP3   OH242341   1.361   7.637   6.346
14140TIP3    H142342   1.412   7.620   6.266
14140TIP3    H242343   1.371   7.731   6.361
14141TIP3   OH242344   3.288   7.648   6.541
14141TIP3    H142345   3.214   7.695   6.579
14141TIP3    H242346   3.250   7.593   6.473
14142TIP3   OH242347   2.906   7.295   5.090
14142TIP3    H142348   2.949   7.231   5.034
14142TIP3    H242349   2.969   7.367   5.097
14143TIP3   OH242350   1.344   7.135   5.853
14143TIP3    H142351   1.256   7.122   5.889
14143TIP3    H242352   1.331   7.191   5.776
14144TIP3   OH242353   5.564   0.324   5.372
14144TIP3    H142354   5.624   0.251   5.354
14144TIP3    H242355   5.613   0.401   5.344
14145TIP3   OH242356   1.576   7.192   6.662
14145TIP3    H142357   1.523   7.187   6.742
14145TIP3    H242358   1.521   7.240   6.600
14146TIP3   OH242359   4.754   0.235   6.294
14146TIP3    H142360   4.701   0.315   6.296
14146TIP3    H242361   4.836   0.261   6.251
14147TIP3   OH242362   5.252   0.668   6.354
14147TIP3    H142363   5.187   0.658   6.423
14147TIP3    H242364   5.335   0.641   6.395
14148TIP3   OH242365   3.190   7.416   6.392
14148TIP3    H142366   3.112   7.423   6.336
14148TIP3    H242367   3.222   7.327   6.377
14149TIP3   OH242368   5.319   0.498   5.979
14149TIP3    H142369   5.267   0.434   6.028
14149TIP3    H242370   5.356   0.555   6.047
14150TIP3   OH242371   4.352   0.348   6.018
14150TIP3    H142372   4.399   0.286   6.073
14150TIP3    H242373   4.333   0.300   5.937
14151TIP3   OH242374   4.518   0.150   5.871
14151TIP3    H142375   4.507   0.070   5.921
14151TIP3    H242376   4.596   0.191   5.909
14152TIP3   OH242377   4.757   0.237   5.974
14152TIP3    H142378   4.782   0.153   6.013
14152TIP3    H242379   4.818   0.249   5.901
14153TIP3   OH242380   2.412   7.329   6.024
14153TIP3    H142381   2.371   7.257   6.072
14153TIP3    H242382   2.479   7.287   5.970
14154TIP3   OH242383   2.903   7.257   5.932
14154TIP3    H142384   2.939   7.301   5.855
14154TIP3    H242385   2.808   7.267   5.923
14155TIP3   OH242386   3.011   7.328   5.689
14155TIP3    H142387   3.078   7.268   5.658
14155TIP3    H242388   3.050   7.415   5.678
14156TIP3   OH242389   1.646   7.033   6.024
14156TIP3    H142390   1.556   7.001   6.031
14156TIP3    H242391   1.699   6.954   6.016
14157TIP3   OH242392   1.475   6.946   5.684
14157TIP3    H142393   1.498   6.996   5.605
14157TIP3    H242394   1.437   7.011   5.742
14158TIP3   OH242395   2.124   7.073   5.920
14158TIP3    H142396   2.173   7.116   5.851
14158TIP3    H242397   2.168   7.100   6.001
14159TIP3   OH242398   2.623   7.202   5.894
14159TIP3    H142399   2.650   7.167   5.810
14159TIP3    H242400   2.628   7.128   5.954
14160TIP3   OH242401   2.678   7.167   5.458
14160TIP3    H142402   2.599   7.214   5.485
14160TIP3    H242403   2.670   7.080   5.496
14161TIP3   OH242404   1.168   8.334   5.480
14161TIP3    H142405   1.148   8.319   5.388
14161TIP3    H242406   1.179   8.429   5.487
14162TIP3   OH242407   1.576   7.072   5.442
14162TIP3    H142408   1.621   7.011   5.384
14162TIP3    H242409   1.645   7.127   5.477
14163TIP3   OH242410   2.059   7.267   5.537
14163TIP3    H142411   2.119   7.213   5.588
14163TIP3    H242412   2.075   7.356   5.567
14164TIP3   OH242413   3.591   0.127   6.694
14164TIP3    H142414   3.554   0.185   6.761
14164TIP3    H242415   3.517   0.109   6.636
14165TIP3   OH242416   5.610   0.367   5.060
14165TIP3    H142417   5.636   0.280   5.092
14165TIP3    H242418   5.549   0.399   5.126
14166TIP3   OH242419   1.874   7.308   6.905
14166TIP3    H142420   1.840   7.240   6.962
14166TIP3    H242421   1.966   7.318   6.930
14167TIP3   OH242422   2.117   7.315   7.036
14167TIP3    H142423   2.204   7.298   6.999
14167TIP3    H242424   2.105   7.245   7.101
14168TIP3   OH242425   4.204   0.004   5.205
14168TIP3    H142426   4.238   0.084   5.245
14168TIP3    H242427   4.282  -0.043   5.175
14169TIP3   OH242428   2.929   7.413   6.814
14169TIP3    H142429   2.949   7.383   6.903
14169TIP3    H242430   3.011   7.404   6.766
14170TIP3   OH242431   5.812   0.475   6.315
14170TIP3    H142432   5.848   0.473   6.227
14170TIP3    H242433   5.870   0.535   6.363
14171TIP3   OH242434   4.153   8.318   5.076
14171TIP3    H142435   4.119   8.403   5.051
14171TIP3    H242436   4.083   8.256   5.055
14172TIP3   OH242437   4.129   8.301   5.475
14172TIP3    H142438   4.176   8.293   5.558
14172TIP3    H242439   4.086   8.217   5.463
14173TIP3   OH242440   3.438   8.187   5.830
14173TIP3    H142441   3.476   8.133   5.899
14173TIP3    H242442   3.512   8.212   5.775
14174TIP3   OH242443   7.357   0.173   5.120
14174TIP3    H142444   7.323   0.102   5.175
14174TIP3    H242445   7.397   0.234   5.183
14175TIP3   OH242446   6.389   0.188   5.504
14175TIP3    H142447   6.372   0.094   5.507
14175TIP3    H242448   6.484   0.195   5.493
14176TIP3   OH242449   3.113   7.815   5.298
14176TIP3    H142450   3.073   7.898   5.323
14176TIP3    H242451   3.041   7.763   5.261
14177TIP3   OH242452   3.192   8.123   5.522
14177TIP3    H142453   3.242   8.044   5.544
14177TIP3    H242454   3.259   8.188   5.499
14178TIP3   OH242455   7.085   0.611   5.247
14178TIP3    H142456   7.155   0.545   5.246
14178TIP3    H242457   7.029   0.586   5.321
14179TIP3   OH242458   6.921   0.141   5.486
14179TIP3    H142459   6.953   0.058   5.451
14179TIP3    H242460   6.998   0.181   5.527
14180TIP3   OH242461   4.975   7.867   5.504
14180TIP3    H142462   4.992   7.952   5.545
14180TIP3    H242463   4.997   7.880   5.412
14181TIP3   OH242464   4.351   8.033   5.527
14181TIP3    H142465   4.383   7.947   5.555
14181TIP3    H242466   4.313   8.018   5.441
14182TIP3   OH242467   3.707   7.685   5.484
14182TIP3    H142468   3.681   7.755   5.423
14182TIP3    H242469   3.653   7.611   5.459
14183TIP3   OH242470   4.403   7.791   5.120
14183TIP3    H142471   4.466   7.785   5.191
14183TIP3    H242472   4.454   7.825   5.046
14184TIP3   OH242473   3.331   7.901   5.611
14184TIP3    H142474   3.414   7.882   5.655
14184TIP3    H242475   3.334   7.847   5.532
14185TIP3   OH242476   3.751   8.096   5.426
14185TIP3    H142477   3.845   8.079   5.433
14185TIP3    H242478   3.714   8.014   5.394
14186TIP3   OH242479   5.033   8.087   5.668
14186TIP3    H142480   4.944   8.120   5.666
14186TIP3    H242481   5.070   8.123   5.749
14187TIP3   OH242482   3.688   7.694   5.933
14187TIP3    H142483   3.637   7.728   5.860
14187TIP3    H242484   3.632   7.707   6.010
14188TIP3   OH242485   6.984   0.131   4.956
14188TIP3    H142486   6.982   0.149   4.862
14188TIP3    H242487   6.924   0.195   4.994
14189TIP3   OH242488   6.756   0.059   5.696
14189TIP3    H142489   6.695   0.122   5.734
14189TIP3    H242490   6.799   0.107   5.625
14190TIP3   OH242491   4.558   7.818   5.343
14190TIP3    H142492   4.517   7.794   5.425
14190TIP3    H242493   4.616   7.891   5.365
14191TIP3   OH242494   3.578   7.799   5.702
14191TIP3    H142495   3.633   7.873   5.726
14191TIP3    H242496   3.625   7.755   5.632
14192TIP3   OH242497   6.580   0.225   5.824
14192TIP3    H142498   6.559   0.309   5.784
14192TIP3    H242499   6.511   0.212   5.890
14193TIP3   OH242500   2.994   8.314   5.068
14193TIP3    H142501   2.957   8.358   4.992
14193TIP3    H242502   3.016   8.385   5.129
14194TIP3   OH242503   7.433   0.375   5.306
14194TIP3    H142504   7.355   0.371   5.360
14194TIP3    H242505   7.407   0.425   5.229
14195TIP3   OH242506   4.777   7.758   5.674
14195TIP3    H142507   4.692   7.777   5.635
14195TIP3    H242508   4.840   7.784   5.607
14196TIP3   OH242509   4.030   7.386   5.663
14196TIP3    H142510   4.025   7.293   5.688
14196TIP3    H242511   3.951   7.425   5.702
14197TIP3   OH242512   7.124   0.432   4.973
14197TIP3    H142513   7.176   0.364   4.930
14197TIP3    H242514   7.183   0.471   5.037
14198TIP3   OH242515   7.304   0.260   4.863
14198TIP3    H142516   7.292   0.184   4.806
14198TIP3    H242517   7.328   0.223   4.947
14199TIP3   OH242518   7.646   0.360   5.643
14199TIP3    H142519   7.624   0.281   5.593
14199TIP3    H242520   7.635   0.431   5.580
14200TIP3   OH242521   3.971   8.164   4.925
14200TIP3    H142522   3.892   8.214   4.904
14200TIP3    H242523   4.019   8.160   4.842
14201TIP3   OH242524   3.934   7.977   4.598
14201TIP3    H142525   3.998   8.025   4.651
14201TIP3    H242526   3.984   7.909   4.555
14202TIP3   OH242527   7.819   0.032   5.522
14202TIP3    H142528   7.732   0.071   5.519
14202TIP3    H242529   7.852   0.037   5.433
14203TIP3   OH242530   4.329   8.241   4.882
14203TIP3    H142531   4.277   8.271   4.957
14203TIP3    H242532   4.414   8.219   4.919
14204TIP3   OH242533   4.552   8.283   5.818
14204TIP3    H142534   4.550   8.366   5.866
14204TIP3    H242535   4.471   8.282   5.767
14205TIP3   OH242536   3.555   8.227   5.274
14205TIP3    H142537   3.518   8.165   5.211
14205TIP3    H242538   3.627   8.179   5.315
14206TIP3   OH242539   6.657   0.233   5.436
14206TIP3    H142540   6.637   0.240   5.342
14206TIP3    H242541   6.749   0.207   5.439
14207TIP3   OH242542   3.647   8.224   5.647
14207TIP3    H142543   3.686   8.186   5.568
14207TIP3    H242544   3.699   8.303   5.663
14208TIP3   OH242545   7.177   0.389   5.423
14208TIP3    H142546   7.097   0.435   5.449
14208TIP3    H242547   7.182   0.315   5.482
14209TIP3   OH242548   6.781   0.324   5.988
14209TIP3    H142549   6.715   0.383   6.024
14209TIP3    H242550   6.733   0.269   5.926
14210TIP3   OH242551   4.149   8.118   4.716
14210TIP3    H142552   4.212   8.170   4.765
14210TIP3    H242553   4.179   8.123   4.625
14211TIP3   OH242554   3.583   8.299   6.107
14211TIP3    H142555   3.596   8.383   6.151
14211TIP3    H242556   3.488   8.288   6.104
14212TIP3   OH242557   6.864   0.373   5.058
14212TIP3    H142558   6.959   0.384   5.054
14212TIP3    H242559   6.833   0.413   4.977
14213TIP3   OH242560   6.572   0.481   6.058
14213TIP3    H142561   6.522   0.546   6.009
14213TIP3    H242562   6.507   0.441   6.116
14214TIP3   OH242563   4.663   7.347   4.766
14214TIP3    H142564   4.587   7.367   4.819
14214TIP3    H242565   4.673   7.423   4.709
14215TIP3   OH242566   3.429   8.069   5.078
14215TIP3    H142567   3.351   8.114   5.045
14215TIP3    H242568   3.399   7.980   5.097
14216TIP3   OH242569   7.440   0.320   4.310
14216TIP3    H142570   7.474   0.401   4.348
14216TIP3    H242571   7.518   0.268   4.291
14217TIP3   OH242572   6.167   0.073   6.010
14217TIP3    H142573   6.094   0.052   5.951
14217TIP3    H242574   6.206  -0.012   6.030
14218TIP3   OH242575   5.976   0.229   5.690
14218TIP3    H142576   6.070   0.245   5.690
14218TIP3    H242577   5.940   0.301   5.742
14219TIP3   OH242578   7.910   0.721   5.759
14219TIP3    H142579   7.938   0.630   5.761
14219TIP3    H242580   7.815   0.718   5.772
14220TIP3   OH242581   6.988   0.451   5.865
14220TIP3    H142582   6.999   0.544   5.883
14220TIP3    H242583   6.918   0.422   5.923
14221TIP3   OH242584   6.259   0.276   5.142
14221TIP3    H142585   6.268   0.329   5.222
14221TIP3    H242586   6.183   0.220   5.160
14222TIP3   OH242587   7.210   0.383   4.544
14222TIP3    H142588   7.179   0.358   4.457
14222TIP3    H242589   7.139   0.360   4.603
14223TIP3   OH242590   7.004   0.353   4.726
14223TIP3    H142591   6.912   0.380   4.736
14223TIP3    H242592   7.049   0.397   4.797
14224TIP3   OH242593   4.795   8.239   5.979
14224TIP3    H142594   4.714   8.250   5.930
14224TIP3    H242595   4.814   8.146   5.975
14225TIP3   OH242596   6.376   0.247   6.012
14225TIP3    H142597   6.382   0.265   6.106
14225TIP3    H242598   6.301   0.188   6.004
14226TIP3   OH242599   3.791   7.476   5.786
14226TIP3    H142600   3.709   7.438   5.755
14226TIP3    H242601   3.765   7.554   5.835
14227TIP3   OH242602   4.330   7.605   5.991
14227TIP3    H142603   4.397   7.577   6.054
14227TIP3    H242604   4.247   7.588   6.036
14228TIP3   OH242605   4.557   8.020   5.912
14228TIP3    H142606   4.515   8.016   5.998
14228TIP3    H242607   4.538   8.109   5.880
14229TIP3   OH242608   4.236   8.104   4.460
14229TIP3    H142609   4.193   8.100   4.375
14229TIP3    H242610   4.319   8.148   4.444
14230TIP3   OH242611   3.942   7.522   4.760
14230TIP3    H142612   3.905   7.529   4.848
14230TIP3    H242613   3.907   7.440   4.726
14231TIP3   OH242614   3.731   8.009   5.799
14231TIP3    H142615   3.685   8.014   5.883
14231TIP3    H242616   3.705   8.088   5.752
14232TIP3   OH242617   3.605   7.884   5.323
14232TIP3    H142618   3.517   7.857   5.348
14232TIP3    H242619   3.615   7.852   5.233
14233TIP3   OH242620   4.093   7.958   5.054
14233TIP3    H142621   4.045   8.030   5.014
14233TIP3    H242622   4.151   7.926   4.985
14234TIP3   OH242623   4.284   8.222   6.118
14234TIP3    H142624   4.258   8.154   6.180
14234TIP3    H242625   4.375   8.241   6.139
14235TIP3   OH242626   4.260   7.976   5.275
14235TIP3    H142627   4.191   7.997   5.212
14235TIP3    H242628   4.307   7.902   5.236
14236TIP3   OH242629   3.569   8.024   6.019
14236TIP3    H142630   3.577   8.093   6.085
14236TIP3    H242631   3.550   7.945   6.068
14237TIP3   OH242632   3.610   7.503   4.737
14237TIP3    H142633   3.600   7.504   4.832
14237TIP3    H242634   3.531   7.546   4.704
14238TIP3   OH242635   3.142   7.553   5.614
14238TIP3    H142636   3.223   7.580   5.656
14238TIP3    H242637   3.168   7.525   5.527
14239TIP3   OH242638   3.070   7.520   5.109
14239TIP3    H142639   3.113   7.554   5.031
14239TIP3    H242640   3.004   7.586   5.131
14240TIP3   OH242641   4.301   8.240   5.695
14240TIP3    H142642   4.325   8.171   5.633
14240TIP3    H242643   4.253   8.194   5.764
14241TIP3   OH242644   3.974   7.679   5.376
14241TIP3    H142645   3.896   7.676   5.430
14241TIP3    H242646   4.047   7.668   5.437
14242TIP3   OH242647   3.370   7.754   5.382
14242TIP3    H142648   3.282   7.761   5.345
14242TIP3    H242649   3.393   7.662   5.373
14243TIP3   OH242650   3.622   7.767   5.076
14243TIP3    H142651   3.716   7.776   5.066
14243TIP3    H242652   3.586   7.784   4.989
14244TIP3   OH242653   4.418   7.769   5.581
14244TIP3    H142654   4.399   7.786   5.673
14244TIP3    H242655   4.351   7.706   5.554
14245TIP3   OH242656   3.506   7.793   4.829
14245TIP3    H142657   3.444   7.742   4.777
14245TIP3    H242658   3.563   7.835   4.764
14246TIP3   OH242659   6.564   0.130   6.276
14246TIP3    H142660   6.640   0.165   6.322
14246TIP3    H242661   6.500   0.200   6.277
14247TIP3   OH242662   4.021   8.039   5.477
14247TIP3    H142663   4.087   7.986   5.431
14247TIP3    H242664   4.019   8.002   5.565
14248TIP3   OH242665   3.516   7.500   5.383
14248TIP3    H142666   3.488   7.424   5.434
14248TIP3    H242667   3.544   7.464   5.299
14249TIP3   OH242668   3.996   7.954   5.743
14249TIP3    H142669   3.909   7.985   5.767
14249TIP3    H242670   4.056   8.008   5.795
14250TIP3   OH242671   3.742   8.305   4.856
14250TIP3    H142672   3.675   8.239   4.840
14250TIP3    H242673   3.722   8.340   4.942
14251TIP3   OH242674   7.569   0.146   5.482
14251TIP3    H142675   7.602   0.194   5.406
14251TIP3    H242676   7.488   0.105   5.452
14252TIP3   OH242677   4.196   7.622   4.766
14252TIP3    H142678   4.103   7.601   4.762
14252TIP3    H242679   4.198   7.717   4.780
14253TIP3   OH242680   7.098   0.187   5.880
14253TIP3    H142681   7.150   0.188   5.961
14253TIP3    H242682   7.054   0.271   5.879
14254TIP3   OH242683   4.254   7.886   4.836
14254TIP3    H142684   4.350   7.891   4.845
14254TIP3    H242685   4.232   7.964   4.784
14255TIP3   OH242686   3.414   8.297   5.500
14255TIP3    H142687   3.456   8.280   5.415
14255TIP3    H242688   3.480   8.271   5.564
14256TIP3   OH242689   6.874   0.057   4.682
14256TIP3    H142690   6.837   0.144   4.697
14256TIP3    H242691   6.828   0.000   4.744
14257TIP3   OH242692   3.307   8.242   6.145
14257TIP3    H142693   3.317   8.215   6.237
14257TIP3    H242694   3.229   8.196   6.114
14258TIP3   OH242695   4.048   8.361   6.169
14258TIP3    H142696   3.978   8.304   6.136
14258TIP3    H242697   4.129   8.322   6.134
14259TIP3   OH242698   7.240   0.452   5.753
14259TIP3    H142699   7.148   0.449   5.779
14259TIP3    H242700   7.286   0.480   5.832
14260TIP3   OH242701   4.669   7.970   4.650
14260TIP3    H142702   4.612   7.924   4.588
14260TIP3    H242703   4.678   8.058   4.614
14261TIP3   OH242704   7.895   0.429   5.744
14261TIP3    H142705   7.800   0.429   5.736
14261TIP3    H242706   7.927   0.409   5.655
14262TIP3   OH242707   7.476   0.314   4.620
14262TIP3    H142708   7.440   0.308   4.709
14262TIP3    H242709   7.399   0.311   4.563
14263TIP3   OH242710   4.377   8.406   5.371
14263TIP3    H142711   4.287   8.382   5.391
14263TIP3    H242712   4.415   8.326   5.334
14264TIP3   OH242713   6.537   0.263   5.178
14264TIP3    H142714   6.553   0.340   5.124
14264TIP3    H242715   6.443   0.246   5.171
14265TIP3   OH242716   3.109   7.938   4.878
14265TIP3    H142717   3.154   8.019   4.899
14265TIP3    H242718   3.029   7.941   4.930
14266TIP3   OH242719   6.618   0.016   5.087
14266TIP3    H142720   6.603   0.104   5.121
14266TIP3    H242721   6.586  -0.042   5.156
14267TIP3   OH242722   6.786   0.560   5.695
14267TIP3    H142723   6.771   0.647   5.733
14267TIP3    H242724   6.848   0.519   5.754
14268TIP3   OH242725   6.395   0.474   5.005
14268TIP3    H142726   6.335   0.402   5.022
14268TIP3    H242727   6.371   0.541   5.069
14269TIP3   OH242728   7.170   0.186   5.609
14269TIP3    H142729   7.149   0.186   5.703
14269TIP3    H242730   7.247   0.131   5.602
14270TIP3   OH242731   7.106   0.095   4.506
14270TIP3    H142732   7.178   0.082   4.567
14270TIP3    H242733   7.027   0.085   4.559
14271TIP3   OH242734   7.407   0.840   5.697
14271TIP3    H142735   7.355   0.760   5.704
14271TIP3    H242736   7.390   0.873   5.609
14272TIP3   OH242737   7.512   0.583   4.351
14272TIP3    H142738   7.552   0.592   4.265
14272TIP3    H242739   7.419   0.602   4.338
14273TIP3   OH242740   3.512   7.774   6.139
14273TIP3    H142741   3.417   7.782   6.140
14273TIP3    H242742   3.532   7.714   6.211
14274TIP3   OH242743   7.306   0.043   4.689
14274TIP3    H142744   7.297  -0.026   4.754
14274TIP3    H242745   7.399   0.046   4.669
14275TIP3   OH242746   6.231   0.473   5.918
14275TIP3    H142747   6.222   0.419   5.839
14275TIP3    H242748   6.287   0.422   5.976
14276TIP3   OH242749   6.476   0.065   4.499
14276TIP3    H142750   6.497  -0.022   4.466
14276TIP3    H242751   6.482   0.057   4.595
14277TIP3   OH242752   6.508   0.108   4.773
14277TIP3    H142753   6.547   0.035   4.822
14277TIP3    H242754   6.581   0.169   4.761
14278TIP3   OH242755   3.208   8.184   4.959
14278TIP3    H142756   3.135   8.217   5.011
14278TIP3    H242757   3.221   8.250   4.891
14279TIP3   OH242758   4.363   7.833   5.843
14279TIP3    H142759   4.442   7.876   5.876
14279TIP3    H242760   4.353   7.756   5.898
14280TIP3   OH242761   4.250   7.573   5.037
14280TIP3    H142762   4.231   7.590   4.945
14280TIP3    H242763   4.295   7.652   5.067
14281TIP3   OH242764   6.719   0.282   4.718
14281TIP3    H142765   6.668   0.356   4.749
14281TIP3    H242766   6.708   0.284   4.623
14282TIP3   OH242767   3.902   7.773   5.124
14282TIP3    H142768   3.966   7.839   5.099
14282TIP3    H242769   3.925   7.751   5.215
14283TIP3   OH242770   4.205   8.068   5.889
14283TIP3    H142771   4.232   8.109   5.971
14283TIP3    H242772   4.255   7.986   5.887
14284TIP3   OH242773   4.061   7.466   5.211
14284TIP3    H142774   4.038   7.542   5.265
14284TIP3    H242775   4.131   7.497   5.154
14285TIP3   OH242776   6.524   0.462   4.757
14285TIP3    H142777   6.479   0.467   4.673
14285TIP3    H242778   6.455   0.469   4.822
14286TIP3   OH242779   3.579   7.493   5.014
14286TIP3    H142780   3.565   7.582   5.046
14286TIP3    H242781   3.673   7.479   5.021
14287TIP3   OH242782   4.820   7.963   5.889
14287TIP3    H142783   4.726   7.974   5.901
14287TIP3    H242784   4.828   7.906   5.812
14288TIP3   OH242785   4.482   8.162   5.274
14288TIP3    H142786   4.406   8.104   5.283
14288TIP3    H242787   4.549   8.123   5.331
14289TIP3   OH242788   6.176  -0.010   4.765
14289TIP3    H142789   6.204   0.082   4.762
14289TIP3    H242790   6.230  -0.053   4.699
14290TIP3   OH242791   3.134   7.661   4.883
14290TIP3    H142792   3.144   7.756   4.891
14290TIP3    H242793   3.084   7.649   4.802
14291TIP3   OH242794   7.443   0.745   5.263
14291TIP3    H142795   7.478   0.786   5.184
14291TIP3    H242796   7.515   0.690   5.295
14292TIP3   OH242797   3.528   7.386   5.747
14292TIP3    H142798   3.505   7.342   5.665
14292TIP3    H242799   3.522   7.318   5.814
14293TIP3   OH242800   6.019   0.154   5.202
14293TIP3    H142801   5.946   0.196   5.249
14293TIP3    H242802   6.005   0.176   5.110
14294TIP3   OH242803   6.314   0.644   6.220
14294TIP3    H142804   6.344   0.654   6.310
14294TIP3    H242805   6.240   0.704   6.213
14295TIP3   OH242806   6.722   0.663   6.189
14295TIP3    H142807   6.794   0.606   6.219
14295TIP3    H242808   6.669   0.606   6.134
14296TIP3   OH242809   6.669   0.251   4.453
14296TIP3    H142810   6.584   0.207   4.458
14296TIP3    H242811   6.729   0.183   4.422
14297TIP3   OH242812   7.372   0.532   5.973
14297TIP3    H142813   7.344   0.495   6.057
14297TIP3    H242814   7.346   0.624   5.978
14298TIP3   OH242815   7.105   0.292   4.305
14298TIP3    H142816   7.082   0.217   4.359
14298TIP3    H242817   7.117   0.255   4.217
14299TIP3   OH242818   6.299   0.141   6.444
14299TIP3    H142819   6.337   0.054   6.431
14299TIP3    H242820   6.223   0.143   6.386
14300TIP3   OH242821   3.363   8.204   4.621
14300TIP3    H142822   3.413   8.176   4.697
14300TIP3    H242823   3.425   8.199   4.548
14301TIP3   OH242824   6.942   0.235   6.192
14301TIP3    H142825   6.891   0.253   6.113
14301TIP3    H242826   6.976   0.147   6.178
14302TIP3   OH242827   3.837   8.392   4.422
14302TIP3    H142828   3.863   8.398   4.514
14302TIP3    H242829   3.838   8.298   4.403
14303TIP3   OH242830   7.425   0.251   5.774
14303TIP3    H142831   7.500   0.299   5.740
14303TIP3    H242832   7.350   0.310   5.760
14304TIP3   OH242833   3.487   8.299   6.416
14304TIP3    H142834   3.540   8.351   6.355
14304TIP3    H242835   3.518   8.325   6.502
14305TIP3   OH242836   3.537   8.126   4.822
14305TIP3    H142837   3.508   8.092   4.907
14305TIP3    H242838   3.576   8.050   4.778
14306TIP3   OH242839   3.843   8.202   6.061
14306TIP3    H142840   3.755   8.240   6.068
14306TIP3    H242841   3.877   8.236   5.978
14307TIP3   OH242842   3.664   7.939   4.660
14307TIP3    H142843   3.634   7.933   4.569
14307TIP3    H242844   3.759   7.949   4.652
14308TIP3   OH242845   7.295   0.177   6.140
14308TIP3    H142846   7.373   0.150   6.092
14308TIP3    H242847   7.295   0.123   6.219
14309TIP3   OH242848   4.456   8.224   4.350
14309TIP3    H142849   4.448   8.186   4.263
14309TIP3    H242850   4.429   8.315   4.340
14310TIP3   OH242851   3.943   7.975   6.173
14310TIP3    H142852   3.944   7.904   6.109
14310TIP3    H242853   3.908   8.050   6.125
14311TIP3   OH242854   3.946   7.781   5.969
14311TIP3    H142855   3.973   7.818   5.885
14311TIP3    H242856   3.856   7.752   5.955
14312TIP3   OH242857   3.972   8.317   5.849
14312TIP3    H142858   4.046   8.377   5.854
14312TIP3    H242859   3.909   8.361   5.791
14313TIP3   OH242860   4.549   8.267   6.219
14313TIP3    H142861   4.595   8.183   6.220
14313TIP3    H242862   4.618   8.332   6.204
14314TIP3   OH242863   7.547   0.127   5.975
14314TIP3    H142864   7.492   0.176   5.914
14314TIP3    H242865   7.637   0.142   5.944
14315TIP3   OH242866   3.826   8.056   6.417
14315TIP3    H142867   3.752   7.998   6.434
14315TIP3    H242868   3.852   8.035   6.327
14316TIP3   OH242869   4.068   7.554   6.073
14316TIP3    H142870   4.028   7.633   6.039
14316TIP3    H242871   4.004   7.485   6.058
14317TIP3   OH242872   4.197   8.015   6.278
14317TIP3    H142873   4.183   8.006   6.373
14317TIP3    H242874   4.112   7.995   6.239
14318TIP3   OH242875   4.444   7.973   6.151
14318TIP3    H142876   4.365   7.971   6.205
14318TIP3    H242877   4.515   7.948   6.211
14319TIP3   OH242878   4.678   7.933   6.299
14319TIP3    H142879   4.690   7.838   6.307
14319TIP3    H242880   4.672   7.964   6.390
14320TIP3   OH242881   3.651   7.845   6.490
14320TIP3    H142882   3.657   7.758   6.452
14320TIP3    H242883   3.689   7.836   6.577
14321TIP3   OH242884   4.137   7.527   6.335
14321TIP3    H142885   4.207   7.462   6.328
14321TIP3    H242886   4.106   7.539   6.245
14322TIP3   OH242887   4.231   7.737   6.486
14322TIP3    H142888   4.201   7.668   6.426
14322TIP3    H242889   4.159   7.801   6.487
14323TIP3   OH242890   2.940   8.334   4.780
14323TIP3    H142891   3.034   8.354   4.781
14323TIP3    H242892   2.935   8.243   4.751
14324TIP3   OH242893   5.847   0.363   5.485
14324TIP3    H142894   5.890   0.302   5.545
14324TIP3    H242895   5.898   0.356   5.404
14325TIP3   OH242896   7.730   0.740   5.230
14325TIP3    H142897   7.723   0.771   5.320
14325TIP3    H242898   7.681   0.804   5.179
14326TIP3   OH242899   7.745   0.788   5.498
14326TIP3    H142900   7.686   0.714   5.512
14326TIP3    H242901   7.833   0.751   5.505
14327TIP3   OH242902   7.752   0.504   6.089
14327TIP3    H142903   7.678   0.521   6.147
14327TIP3    H242904   7.797   0.589   6.081
14328TIP3   OH242905   7.579   0.019   4.681
14328TIP3    H142906   7.632   0.089   4.642
14328TIP3    H242907   7.632  -0.015   4.753
14329TIP3   OH242908   4.765   8.289   4.875
14329TIP3    H142909   4.699   8.253   4.934
14329TIP3    H242910   4.829   8.331   4.932
14330TIP3   OH242911   7.755   0.263   5.315
14330TIP3    H142912   7.810   0.192   5.282
14330TIP3    H242913   7.749   0.325   5.243
14331TIP3   OH242914   7.592   0.554   5.446
14331TIP3    H142915   7.510   0.576   5.490
14331TIP3    H242916   7.568   0.482   5.387
14332TIP3   OH242917   4.675   8.206   4.511
14332TIP3    H142918   4.602   8.206   4.449
14332TIP3    H242919   4.657   8.279   4.569
14333TIP3   OH242920   4.519   7.858   4.450
14333TIP3    H142921   4.474   7.898   4.376
14333TIP3    H242922   4.510   7.763   4.436
14334TIP3   OH242923   4.560   8.155   5.010
14334TIP3    H142924   4.563   8.060   4.994
14334TIP3    H242925   4.538   8.163   5.102
14335TIP3   OH242926   3.172   8.186   5.786
14335TIP3    H142927   3.165   8.166   5.692
14335TIP3    H242928   3.266   8.195   5.802
14336TIP3   OH242929   7.798   0.178   5.870
14336TIP3    H142930   7.863   0.110   5.849
14336TIP3    H242931   7.819   0.250   5.810
14337TIP3   OH242932   5.009   8.361   5.857
14337TIP3    H142933   4.936   8.317   5.901
14337TIP3    H242934   5.085   8.308   5.880
14338TIP3   OH242935   4.481   7.585   4.417
14338TIP3    H142936   4.544   7.564   4.486
14338TIP3    H242937   4.397   7.552   4.449
14339TIP3   OH242938   4.546   7.882   4.891
14339TIP3    H142939   4.591   7.799   4.903
14339TIP3    H242940   4.587   7.920   4.813
14340TIP3   OH242941   4.699   8.047   5.416
14340TIP3    H142942   4.779   8.065   5.368
14340TIP3    H242943   4.713   8.086   5.502
14341TIP3   OH242944   4.770   8.192   5.647
14341TIP3    H142945   4.695   8.219   5.700
14341TIP3    H242946   4.802   8.273   5.607
14342TIP3   OH242947   3.386   7.881   6.421
14342TIP3    H142948   3.480   7.884   6.439
14342TIP3    H242949   3.355   7.804   6.468
14343TIP3   OH242950   5.236   7.799   6.175
14343TIP3    H142951   5.299   7.741   6.134
14343TIP3    H242952   5.196   7.847   6.103
14344TIP3   OH242953   4.661   7.633   4.942
14344TIP3    H142954   4.706   7.618   5.025
14344TIP3    H242955   4.597   7.562   4.935
14345TIP3   OH242956   3.368   7.612   5.769
14345TIP3    H142957   3.419   7.531   5.769
14345TIP3    H242958   3.431   7.681   5.750
14346TIP3   OH242959   3.145   7.887   5.826
14346TIP3    H142960   3.198   7.864   5.751
14346TIP3    H242961   3.161   7.981   5.840
14347TIP3   OH242962   5.082   7.908   5.978
14347TIP3    H142963   4.997   7.948   5.997
14347TIP3    H242964   5.061   7.832   5.923
14348TIP3   OH242965   4.705   7.546   4.579
14348TIP3    H142966   4.754   7.485   4.525
14348TIP3    H242967   4.760   7.624   4.584
14349TIP3   OH242968   3.136   7.425   5.359
14349TIP3    H142969   3.049   7.397   5.384
14349TIP3    H242970   3.126   7.459   5.270
14350TIP3   OH242971   7.336   0.670   4.887
14350TIP3    H142972   7.359   0.641   4.799
14350TIP3    H242973   7.344   0.766   4.884
14351TIP3   OH242974   3.364   7.463   6.171
14351TIP3    H142975   3.309   7.453   6.249
14351TIP3    H242976   3.306   7.500   6.105
14352TIP3   OH242977   6.409   0.370   6.262
14352TIP3    H142978   6.319   0.404   6.260
14352TIP3    H242979   6.451   0.417   6.334
14353TIP3   OH242980   6.525   0.472   5.731
14353TIP3    H142981   6.465   0.546   5.733
14353TIP3    H242982   6.611   0.511   5.714
14354TIP3   OH242983   7.048   0.716   5.829
14354TIP3    H142984   7.127   0.739   5.878
14354TIP3    H242985   7.072   0.729   5.737
14355TIP3   OH242986   4.994   7.663   5.873
14355TIP3    H142987   4.908   7.656   5.832
14355TIP3    H242988   5.031   7.575   5.866
14356TIP3   OH242989   7.120   0.737   5.562
14356TIP3    H142990   7.049   0.687   5.522
14356TIP3    H242991   7.107   0.827   5.531
14357TIP3   OH242992   6.170   0.570   5.587
14357TIP3    H142993   6.243   0.614   5.631
14357TIP3    H242994   6.200   0.557   5.497
14358TIP3   OH242995   6.307   0.417   5.377
14358TIP3    H142996   6.310   0.331   5.421
14358TIP3    H242997   6.393   0.455   5.394
14359TIP3   OH242998   6.553   0.505   5.443
14359TIP3    H142999   6.582   0.428   5.492
14359TIP3    H243000   6.624   0.519   5.379
14360TIP3   OH243001   4.202   7.586   5.516
14360TIP3    H143002   4.158   7.514   5.563
14360TIP3    H243003   4.269   7.542   5.464
14361TIP3   OH243004   4.702   7.510   5.404
14361TIP3    H143005   4.736   7.559   5.329
14361TIP3    H243006   4.607   7.525   5.401
14362TIP3   OH243007   4.817   7.582   5.165
14362TIP3    H143008   4.886   7.521   5.140
14362TIP3    H243009   4.856   7.669   5.152
14363TIP3   OH243010   3.446   7.255   5.515
14363TIP3    H143011   3.353   7.234   5.524
14363TIP3    H243012   3.489   7.169   5.507
14364TIP3   OH243013   3.221   7.178   5.124
14364TIP3    H143014   3.266   7.227   5.055
14364TIP3    H243015   3.225   7.235   5.201
14365TIP3   OH243016   3.895   7.329   5.411
14365TIP3    H143017   3.948   7.365   5.340
14365TIP3    H243018   3.943   7.351   5.490
14366TIP3   OH243019   4.416   7.467   5.385
14366TIP3    H143020   4.427   7.431   5.297
14366TIP3    H243021   4.424   7.392   5.443
14367TIP3   OH243022   4.473   7.425   4.950
14367TIP3    H143023   4.393   7.470   4.976
14367TIP3    H243024   4.464   7.337   4.988
14368TIP3   OH243025   5.984   0.228   4.948
14368TIP3    H143026   5.908   0.220   4.890
14368TIP3    H243027   5.998   0.323   4.956
14369TIP3   OH243028   3.370   7.323   4.924
14369TIP3    H143029   3.417   7.264   4.865
14369TIP3    H243030   3.438   7.379   4.962
14370TIP3   OH243031   3.854   7.523   5.023
14370TIP3    H143032   3.910   7.467   5.076
14370TIP3    H243033   3.870   7.612   5.054
14371TIP3   OH243034   5.251   0.410   6.263
14371TIP3    H143035   5.247   0.502   6.286
14371TIP3    H243036   5.345   0.391   6.254
14372TIP3   OH243037   7.360   0.595   4.619
14372TIP3    H143038   7.323   0.512   4.590
14372TIP3    H243039   7.454   0.585   4.608
14373TIP3   OH243040   3.669   7.580   6.409
14373TIP3    H143041   3.634   7.507   6.460
14373TIP3    H243042   3.763   7.581   6.430
14374TIP3   OH243043   3.926   7.569   6.514
14374TIP3    H143044   3.995   7.567   6.447
14374TIP3    H243045   3.941   7.490   6.566
14375TIP3   OH243046   6.004   0.254   4.648
14375TIP3    H143047   6.022   0.321   4.714
14375TIP3    H243048   6.091   0.228   4.616
14376TIP3   OH243049   4.740   7.661   6.302
14376TIP3    H143050   4.761   7.625   6.388
14376TIP3    H243051   4.824   7.664   6.256
14377TIP3   OH243052   7.645   0.742   5.806
14377TIP3    H143053   7.562   0.737   5.757
14377TIP3    H243054   7.645   0.830   5.844
14378TIP3   OH243055   8.902   0.192   4.554
14378TIP3    H143056   8.868   0.280   4.535
14378TIP3    H243057   8.828   0.134   4.535
14379TIP3   OH243058   8.897   0.173   4.967
14379TIP3    H143059   8.943   0.159   5.050
14379TIP3    H243060   8.852   0.090   4.951
14380TIP3   OH243061   8.198   0.052   5.320
14380TIP3    H143062   8.238  -0.002   5.388
14380TIP3    H243063   8.272   0.084   5.269
14381TIP3   OH243064   0.264   0.463   4.635
14381TIP3    H143065   0.252   0.395   4.702
14381TIP3    H243066   0.277   0.543   4.685
14382TIP3   OH243067   8.199   0.460   4.994
14382TIP3    H143068   8.174   0.367   4.996
14382TIP3    H243069   8.294   0.459   4.979
14383TIP3   OH243070   4.909   8.068   4.783
14383TIP3    H143071   4.870   8.151   4.811
14383TIP3    H243072   4.836   8.019   4.745
14384TIP3   OH243073   4.990   8.385   5.011
14384TIP3    H143074   5.041   8.307   5.033
14384TIP3    H243075   5.055   8.451   4.988
14385TIP3   OH243076   8.881   0.943   4.661
14385TIP3    H143077   8.882   0.877   4.591
14385TIP3    H243078   8.890   0.892   4.742
14386TIP3   OH243079   8.724   0.395   4.975
14386TIP3    H143080   8.771   0.315   4.951
14386TIP3    H243081   8.793   0.455   5.004
14387TIP3   OH243082   6.758   8.117   4.991
14387TIP3    H143083   6.774   8.206   5.022
14387TIP3    H243084   6.792   8.115   4.902
14388TIP3   OH243085   6.142   8.285   5.021
14388TIP3    H143086   6.177   8.199   5.044
14388TIP3    H243087   6.109   8.274   4.932
14389TIP3   OH243088   5.505   7.946   4.970
14389TIP3    H143089   5.480   8.018   4.912
14389TIP3    H243090   5.449   7.873   4.942
14390TIP3   OH243091   6.207   8.055   4.614
14390TIP3    H143092   6.270   8.044   4.685
14390TIP3    H243093   6.260   8.083   4.539
14391TIP3   OH243094   5.127   8.162   5.100
14391TIP3    H143095   5.210   8.142   5.144
14391TIP3    H243096   5.130   8.109   5.020
14392TIP3   OH243097   5.548   8.357   4.914
14392TIP3    H143098   5.642   8.341   4.920
14392TIP3    H243099   5.511   8.275   4.880
14393TIP3   OH243100   6.821   8.332   5.167
14393TIP3    H143101   6.731   8.366   5.159
14393TIP3    H243102   6.855   8.372   5.247
14394TIP3   OH243103   5.481   7.951   5.422
14394TIP3    H143104   5.430   7.986   5.349
14394TIP3    H243105   5.426   7.967   5.499
14395TIP3   OH243106   8.766   0.399   4.435
14395TIP3    H143107   8.754   0.390   4.340
14395TIP3    H243108   8.724   0.483   4.457
14396TIP3   OH243109   8.560   0.320   5.184
14396TIP3    H143110   8.500   0.389   5.213
14396TIP3    H243111   8.609   0.359   5.112
14397TIP3   OH243112   6.361   8.061   4.835
14397TIP3    H143113   6.314   8.040   4.916
14397TIP3    H243114   6.413   8.138   4.857
14398TIP3   OH243115   5.374   8.057   5.190
14398TIP3    H143116   5.429   8.132   5.213
14398TIP3    H243117   5.422   8.014   5.118
14399TIP3   OH243118   8.394   0.516   5.276
14399TIP3    H143119   8.378   0.606   5.248
14399TIP3    H243120   8.325   0.498   5.339
14400TIP3   OH243121   7.765   0.178   4.554
14400TIP3    H143122   7.714   0.212   4.481
14400TIP3    H243123   7.783   0.255   4.608
14401TIP3   OH243124   0.276   0.697   4.782
14401TIP3    H143125   0.189   0.691   4.823
14401TIP3    H243126   0.278   0.785   4.744
14402TIP3   OH243127   6.560   8.015   5.157
14402TIP3    H143128   6.476   8.033   5.116
14402TIP3    H243129   6.625   8.041   5.092
14403TIP3   OH243130   5.824   7.643   5.154
14403TIP3    H143131   5.818   7.551   5.180
14403TIP3    H243132   5.747   7.684   5.193
14404TIP3   OH243133   0.008   0.761   4.439
14404TIP3    H143134   0.057   0.679   4.434
14404TIP3    H243135   0.070   0.828   4.409
14405TIP3   OH243136   0.158   0.540   4.393
14405TIP3    H143137   0.168   0.468   4.331
14405TIP3    H243138   0.196   0.506   4.475
14406TIP3   OH243139   0.518   0.631   5.128
14406TIP3    H143140   0.508   0.552   5.074
14406TIP3    H243141   0.498   0.703   5.069
14407TIP3   OH243142   8.729   0.025   4.401
14407TIP3    H143143   8.653   0.082   4.389
14407TIP3    H243144   8.773   0.026   4.316
14408TIP3   OH243145   5.742   8.153   4.119
14408TIP3    H143146   5.798   8.231   4.111
14408TIP3    H243147   5.749   8.129   4.212
14409TIP3   OH243148   0.704   0.264   5.000
14409TIP3    H143149   0.624   0.316   5.004
14409TIP3    H243150   0.740   0.282   4.913
14410TIP3   OH243151   0.173   0.116   4.357
14410TIP3    H143152   0.122   0.147   4.432
14410TIP3    H243153   0.257   0.089   4.395
14411TIP3   OH243154   0.403   0.132   5.289
14411TIP3    H143155   0.406   0.219   5.330
14411TIP3    H243156   0.318   0.129   5.247
14412TIP3   OH243157   8.314   0.097   4.764
14412TIP3    H143158   8.275   0.037   4.700
14412TIP3    H243159   8.387   0.047   4.802
14413TIP3   OH243160   8.465   0.470   4.909
14413TIP3    H143161   8.447   0.449   4.817
14413TIP3    H243162   8.556   0.443   4.922
14414TIP3   OH243163   8.412   0.096   5.136
14414TIP3    H143164   8.449   0.058   5.057
14414TIP3    H243165   8.464   0.175   5.152
14415TIP3   OH243166   0.038   0.723   4.906
14415TIP3    H143167   0.028   0.805   4.955
14415TIP3    H243168   0.031   0.655   4.973
14416TIP3   OH243169   8.601   0.606   5.431
14416TIP3    H143170   8.542   0.648   5.493
14416TIP3    H243171   8.543   0.562   5.369
14417TIP3   OH243172   5.946   8.355   4.193
14417TIP3    H143173   6.002   8.414   4.243
14417TIP3    H243174   5.973   8.369   4.102
14418TIP3   OH243175   8.339   0.162   5.592
14418TIP3    H143176   8.351   0.250   5.627
14418TIP3    H243177   8.244   0.150   5.587
14419TIP3   OH243178   8.651   0.658   4.442
14419TIP3    H143179   8.737   0.697   4.457
14419TIP3    H243180   8.589   0.730   4.453
14420TIP3   OH243181   8.423   0.710   5.600
14420TIP3    H143182   8.360   0.751   5.541
14420TIP3    H243183   8.370   0.670   5.669
14421TIP3   OH243184   6.457   7.603   4.248
14421TIP3    H143185   6.378   7.625   4.298
14421TIP3    H243186   6.470   7.679   4.191
14422TIP3   OH243187   5.215   8.330   4.570
14422TIP3    H143188   5.146   8.379   4.526
14422TIP3    H243189   5.175   8.246   4.593
14423TIP3   OH243190   0.358   0.565   3.803
14423TIP3    H143191   0.354   0.661   3.798
14423TIP3    H243192   0.446   0.543   3.774
14424TIP3   OH243193   7.965   0.338   5.493
14424TIP3    H143194   7.890   0.306   5.443
14424TIP3    H243195   8.007   0.258   5.525
14425TIP3   OH243196   7.826   0.494   5.189
14425TIP3    H143197   7.867   0.473   5.273
14425TIP3    H243198   7.783   0.579   5.204
14426TIP3   OH243199   8.769   0.767   5.285
14426TIP3    H143200   8.770   0.859   5.313
14426TIP3    H243201   8.700   0.727   5.338
14427TIP3   OH243202   8.036   0.594   4.626
14427TIP3    H143203   7.994   0.668   4.670
14427TIP3    H243204   7.976   0.521   4.639
14428TIP3   OH243205   0.057   0.822   3.920
14428TIP3    H143206   0.029   0.747   3.866
14428TIP3    H243207   0.007   0.813   4.001
14429TIP3   OH243208   8.778   0.775   4.168
14429TIP3    H143209   8.762   0.860   4.208
14429TIP3    H243210   8.837   0.730   4.229
14430TIP3   OH243211   0.653   0.103   5.456
14430TIP3    H143212   0.575   0.122   5.404
14430TIP3    H243213   0.672   0.011   5.439
14431TIP3   OH243214   8.212   0.474   5.474
14431TIP3    H143215   8.237   0.483   5.566
14431TIP3    H243216   8.121   0.441   5.477
14432TIP3   OH243217   5.587   7.736   5.278
14432TIP3    H143218   5.503   7.700   5.248
14432TIP3    H243219   5.563   7.816   5.325
14433TIP3   OH243220   6.125   7.859   5.482
14433TIP3    H143221   6.194   7.829   5.541
14433TIP3    H243222   6.043   7.840   5.529
14434TIP3   OH243223   6.354   8.267   5.397
14434TIP3    H143224   6.313   8.276   5.483
14434TIP3    H243225   6.340   8.352   5.355
14435TIP3   OH243226   6.030   8.379   3.938
14435TIP3    H143227   5.986   8.368   3.854
14435TIP3    H243228   6.114   8.419   3.915
14436TIP3   OH243229   5.738   7.790   4.253
14436TIP3    H143230   5.705   7.791   4.343
14436TIP3    H243231   5.705   7.709   4.215
14437TIP3   OH243232   5.526   8.268   5.286
14437TIP3    H143233   5.479   8.273   5.369
14437TIP3    H243234   5.500   8.347   5.239
14438TIP3   OH243235   5.405   8.144   4.809
14438TIP3    H143236   5.316   8.122   4.836
14438TIP3    H243237   5.413   8.110   4.720
14439TIP3   OH243238   5.892   8.219   4.539
14439TIP3    H143239   5.845   8.292   4.499
14439TIP3    H243240   5.953   8.190   4.471
14440TIP3   OH243241   0.156   0.139   5.663
14440TIP3    H143242   0.115   0.058   5.694
14440TIP3    H243243   0.249   0.127   5.681
14441TIP3   OH243244   6.056   8.235   4.765
14441TIP3    H143245   5.988   8.256   4.702
14441TIP3    H243246   6.105   8.163   4.725
14442TIP3   OH243247   5.365   8.278   5.507
14442TIP3    H143248   5.371   8.347   5.573
14442TIP3    H243249   5.345   8.199   5.557
14443TIP3   OH243250   5.418   7.776   4.212
14443TIP3    H143251   5.405   7.770   4.307
14443TIP3    H243252   5.336   7.812   4.179
14444TIP3   OH243253   4.951   7.803   5.088
14444TIP3    H143254   5.025   7.837   5.138
14444TIP3    H243255   4.987   7.781   5.002
14445TIP3   OH243256   4.860   7.777   4.590
14445TIP3    H143257   4.905   7.812   4.513
14445TIP3    H243258   4.797   7.844   4.613
14446TIP3   OH243259   0.139   0.088   5.195
14446TIP3    H143260   0.167   0.023   5.131
14446TIP3    H243261   0.106   0.037   5.269
14447TIP3   OH243262   5.771   7.937   4.861
14447TIP3    H143263   5.692   7.935   4.916
14447TIP3    H243264   5.843   7.925   4.924
14448TIP3   OH243265   5.166   8.020   4.869
14448TIP3    H143266   5.079   8.024   4.831
14448TIP3    H243267   5.194   7.930   4.855
14449TIP3   OH243268   5.420   8.019   4.566
14449TIP3    H143269   5.514   8.035   4.552
14449TIP3    H243270   5.379   8.040   4.482
14450TIP3   OH243271   6.212   8.020   5.065
14450TIP3    H143272   6.196   8.034   5.158
14450TIP3    H243273   6.144   7.958   5.038
14451TIP3   OH243274   5.295   8.043   4.324
14451TIP3    H143275   5.227   7.994   4.278
14451TIP3    H243276   5.348   8.083   4.254
14452TIP3   OH243277   8.344   0.395   5.736
14452TIP3    H143278   8.423   0.440   5.768
14452TIP3    H243279   8.272   0.442   5.778
14453TIP3   OH243280   5.819   8.300   4.963
14453TIP3    H143281   5.887   8.249   4.919
14453TIP3    H243282   5.815   8.263   5.052
14454TIP3   OH243283   5.310   7.772   4.861
14454TIP3    H143284   5.281   7.698   4.914
14454TIP3    H243285   5.332   7.733   4.776
14455TIP3   OH243286   5.790   8.213   5.229
14455TIP3    H143287   5.702   8.242   5.251
14455TIP3    H243288   5.848   8.262   5.288
14456TIP3   OH243289   8.510   0.193   4.350
14456TIP3    H143290   8.450   0.119   4.343
14456TIP3    H243291   8.488   0.233   4.435
14457TIP3   OH243292   0.468   0.410   4.960
14457TIP3    H143293   0.499   0.442   4.875
14457TIP3    H243294   0.386   0.365   4.939
14458TIP3   OH243295   5.946   7.928   4.154
14458TIP3    H143296   5.883   7.878   4.206
14458TIP3    H243297   5.988   7.986   4.218
14459TIP3   OH243298   8.883   0.513   5.352
14459TIP3    H143299   8.866   0.502   5.445
14459TIP3    H243300   8.842   0.597   5.331
14460TIP3   OH243301   6.053   8.126   4.323
14460TIP3    H143302   6.147   8.130   4.338
14460TIP3    H243303   6.034   8.204   4.270
14461TIP3   OH243304   8.178   0.173   4.991
14461TIP3    H143305   8.217   0.156   4.905
14461TIP3    H243306   8.245   0.145   5.053
14462TIP3   OH243307   8.645   0.349   4.176
14462TIP3    H143308   8.602   0.434   4.181
14462TIP3    H243309   8.600   0.295   4.241
14463TIP3   OH243310   8.064   0.114   5.630
14463TIP3    H143311   8.074   0.086   5.721
14463TIP3    H243312   7.987   0.068   5.599
14464TIP3   OH243313   8.786   0.245   5.655
14464TIP3    H143314   8.719   0.184   5.624
14464TIP3    H243315   8.869   0.206   5.627
14465TIP3   OH243316   0.145   0.794   5.245
14465TIP3    H143317   0.049   0.788   5.239
14465TIP3    H243318   0.160   0.842   5.327
14466TIP3   OH243319   6.460   8.228   4.136
14466TIP3    H143320   6.403   8.182   4.074
14466TIP3    H243321   6.467   8.317   4.100
14467TIP3   OH243322   0.759   0.738   5.259
14467TIP3    H143323   0.663   0.736   5.257
14467TIP3    H243324   0.785   0.660   5.209
14468TIP3   OH243325   0.300   0.606   4.077
14468TIP3    H143326   0.264   0.532   4.125
14468TIP3    H243327   0.313   0.572   3.988
14469TIP3   OH243328   0.244   0.277   4.855
14469TIP3    H143329   0.153   0.255   4.878
14469TIP3    H243330   0.278   0.197   4.816
14470TIP3   OH243331   8.305   0.521   4.666
14470TIP3    H143332   8.338   0.610   4.682
14470TIP3    H243333   8.210   0.531   4.665
14471TIP3   OH243334   4.906   8.194   4.362
14471TIP3    H143335   4.950   8.278   4.378
14471TIP3    H243336   4.826   8.199   4.414
14472TIP3   OH243337   8.421   0.285   4.590
14472TIP3    H143338   8.380   0.369   4.610
14472TIP3    H243339   8.384   0.224   4.653
14473TIP3   OH243340   8.646   0.861   5.051
14473TIP3    H143341   8.595   0.924   5.102
14473TIP3    H243342   8.690   0.807   5.117
14474TIP3   OH243343   8.190   0.740   4.455
14474TIP3    H143344   8.142   0.671   4.501
14474TIP3    H243345   8.184   0.816   4.514
14475TIP3   OH243346   0.053   0.509   5.086
14475TIP3    H143347   0.035   0.504   5.180
14475TIP3    H243348   0.143   0.480   5.077
14476TIP3   OH243349   0.038   0.391   3.966
14476TIP3    H143350   0.081   0.375   4.050
14476TIP3    H243351  -0.048   0.350   3.975
14477TIP3   OH243352   0.278   1.022   5.116
14477TIP3    H143353   0.195   0.976   5.103
14477TIP3    H243354   0.287   1.029   5.211
14478TIP3   OH243355   0.352   0.842   3.797
14478TIP3    H143356   0.377   0.875   3.710
14478TIP3    H243357   0.259   0.863   3.804
14479TIP3   OH243358   5.308   8.027   5.628
14479TIP3    H143359   5.213   8.039   5.630
14479TIP3    H243360   5.326   7.967   5.700
14480TIP3   OH243361   0.197   0.339   4.191
14480TIP3    H143362   0.176   0.264   4.247
14480TIP3    H243363   0.290   0.327   4.170
14481TIP3   OH243364   7.989   0.689   5.423
14481TIP3    H143365   8.014   0.665   5.334
14481TIP3    H243366   8.071   0.720   5.463
14482TIP3   OH243367   8.365   0.406   4.053
14482TIP3    H143368   8.287   0.365   4.015
14482TIP3    H243369   8.401   0.340   4.112
14483TIP3   OH243370   7.974   0.053   4.430
14483TIP3    H143371   7.904   0.089   4.484
14483TIP3    H243372   7.978   0.111   4.354
14484TIP3   OH243373   6.163   8.079   5.326
14484TIP3    H143374   6.242   8.123   5.358
14484TIP3    H243375   6.153   8.003   5.384
14485TIP3   OH243376   6.049   7.849   4.526
14485TIP3    H143377   6.011   7.897   4.453
14485TIP3    H243378   6.104   7.913   4.571
14486TIP3   OH243379   8.544   0.609   4.186
14486TIP3    H143380   8.549   0.620   4.281
14486TIP3    H243381   8.619   0.659   4.153
14487TIP3   OH243382   5.703   8.032   4.609
14487TIP3    H143383   5.766   8.101   4.587
14487TIP3    H243384   5.722   8.010   4.700
14488TIP3   OH243385   6.005   8.298   5.392
14488TIP3    H143386   6.032   8.309   5.483
14488TIP3    H243387   6.049   8.218   5.364
14489TIP3   OH243388   5.864   7.727   4.699
14489TIP3    H143389   5.840   7.803   4.751
14489TIP3    H243390   5.936   7.758   4.643
14490TIP3   OH243391   5.380   7.750   4.488
14490TIP3    H143392   5.365   7.838   4.523
14490TIP3    H243393   5.473   7.734   4.501
14491TIP3   OH243394   6.622   8.224   5.383
14491TIP3    H143395   6.528   8.223   5.399
14491TIP3    H243396   6.633   8.179   5.299
14492TIP3   OH243397   6.276   8.419   4.761
14492TIP3    H143398   6.200   8.362   4.771
14492TIP3    H243399   6.343   8.380   4.818
14493TIP3   OH243400   7.945   0.237   4.222
14493TIP3    H143401   7.943   0.332   4.234
14493TIP3    H243402   8.002   0.223   4.146
14494TIP3   OH243403   4.929   7.919   4.365
14494TIP3    H143404   4.939   8.014   4.374
14494TIP3    H243405   4.871   7.908   4.291
14495TIP3   OH243406   0.293   0.958   4.720
14495TIP3    H143407   0.284   1.050   4.744
14495TIP3    H243408   0.362   0.957   4.654
14496TIP3   OH243409   5.327   7.645   5.243
14496TIP3    H143410   5.296   7.612   5.159
14496TIP3    H243411   5.317   7.571   5.303
14497TIP3   OH243412   7.824   0.426   4.661
14497TIP3    H143413   7.751   0.475   4.699
14497TIP3    H243414   7.814   0.436   4.566
14498TIP3   OH243415   8.098   0.925   5.697
14498TIP3    H143416   8.130   0.950   5.784
14498TIP3    H243417   8.019   0.874   5.715
14499TIP3   OH243418   8.555   0.931   5.691
14499TIP3    H143419   8.637   0.890   5.717
14499TIP3    H243420   8.504   0.859   5.654
14500TIP3   OH243421   8.493   0.568   3.875
14500TIP3    H143422   8.462   0.488   3.917
14500TIP3    H243423   8.568   0.541   3.822
14501TIP3   OH243424   0.214   0.909   5.489
14501TIP3    H143425   0.199   0.834   5.547
14501TIP3    H243426   0.306   0.931   5.501
14502TIP3   OH243427   0.002   0.591   3.774
14502TIP3    H143428   0.034   0.527   3.837
14502TIP3    H243429   0.059   0.579   3.697
14503TIP3   OH243430   8.113   0.407   5.916
14503TIP3    H143431   8.133   0.313   5.915
14503TIP3    H243432   8.032   0.414   5.866
14504TIP3   OH243433   8.759   0.520   5.634
14504TIP3    H143434   8.698   0.534   5.562
14504TIP3    H243435   8.765   0.425   5.642
14505TIP3   OH243436   8.674   0.276   3.916
14505TIP3    H143437   8.655   0.293   4.009
14505TIP3    H243438   8.668   0.181   3.907
14506TIP3   OH243439   0.298   0.567   5.275
14506TIP3    H143440   0.376   0.596   5.228
14506TIP3    H243441   0.236   0.639   5.266
14507TIP3   OH243442   8.248   0.157   5.899
14507TIP3    H143443   8.308   0.193   5.834
14507TIP3    H243444   8.279   0.192   5.983
14508TIP3   OH243445   5.387   8.365   4.349
14508TIP3    H143446   5.329   8.346   4.423
14508TIP3    H243447   5.374   8.292   4.289
14509TIP3   OH243448   8.600   0.072   5.543
14509TIP3    H143449   8.511   0.108   5.548
14509TIP3    H243450   8.634   0.104   5.459
14510TIP3   OH243451   5.451   8.173   4.141
14510TIP3    H143452   5.430   8.162   4.048
14510TIP3    H243453   5.544   8.196   4.143
14511TIP3   OH243454   0.197   0.414   5.698
14511TIP3    H143455   0.285   0.437   5.668
14511TIP3    H243456   0.179   0.330   5.656
14512TIP3   OH243457   0.322   0.097   3.822
14512TIP3    H143458   0.307   0.051   3.739
14512TIP3    H243459   0.294   0.187   3.804
14513TIP3   OH243460   5.737   8.235   5.650
14513TIP3    H143461   5.737   8.163   5.587
14513TIP3    H243462   5.698   8.309   5.602
14514TIP3   OH243463   5.741   8.035   5.453
14514TIP3    H143464   5.765   8.070   5.367
14514TIP3    H243465   5.650   8.007   5.442
14515TIP3   OH243466   8.737   0.170   5.328
14515TIP3    H143467   8.824   0.196   5.299
14515TIP3    H243468   8.677   0.226   5.278
14516TIP3   OH243469   0.423   0.140   5.785
14516TIP3    H143470   0.476   0.073   5.742
14516TIP3    H243471   0.459   0.223   5.753
14517TIP3   OH243472   0.436   0.376   5.410
14517TIP3    H143473   0.376   0.440   5.372
14517TIP3    H243474   0.521   0.396   5.370
14518TIP3   OH243475   5.616   8.309   5.896
14518TIP3    H143476   5.545   8.248   5.914
14518TIP3    H243477   5.641   8.290   5.805
14519TIP3   OH243478   5.862   7.808   5.563
14519TIP3    H143479   5.821   7.887   5.527
14519TIP3    H243480   5.798   7.739   5.550
14520TIP3   OH243481   5.982   8.294   5.759
14520TIP3    H143482   5.969   8.267   5.850
14520TIP3    H243483   5.901   8.270   5.715
14521TIP3   OH243484   6.237   8.270   5.639
14521TIP3    H143485   6.161   8.257   5.697
14521TIP3    H243486   6.310   8.231   5.687
14522TIP3   OH243487   6.471   8.185   5.762
14522TIP3    H143488   6.484   8.091   5.772
14522TIP3    H243489   6.465   8.218   5.852
14523TIP3   OH243490   5.446   8.097   5.963
14523TIP3    H143491   5.451   8.008   5.927
14523TIP3    H243492   5.484   8.089   6.051
14524TIP3   OH243493   5.929   7.785   5.828
14524TIP3    H143494   5.997   7.718   5.822
14524TIP3    H243495   5.898   7.796   5.738
14525TIP3   OH243496   6.028   8.000   5.969
14525TIP3    H143497   6.000   7.926   5.915
14525TIP3    H243498   5.955   8.062   5.964
14526TIP3   OH243499   7.677   0.187   4.275
14526TIP3    H143500   7.769   0.207   4.261
14526TIP3    H243501   7.665   0.100   4.237
14527TIP3   OH243502   7.753   0.653   4.939
14527TIP3    H143503   7.753   0.568   4.982
14527TIP3    H243504   7.811   0.707   4.993
14528TIP3   OH243505   0.561   1.082   4.704
14528TIP3    H143506   0.594   1.053   4.789
14528TIP3    H243507   0.640   1.110   4.657
14529TIP3   OH243508   0.662   0.989   4.941
14529TIP3    H143509   0.590   0.928   4.955
14529TIP3    H243510   0.656   1.050   5.014
14530TIP3   OH243511   0.463   0.298   4.150
14530TIP3    H143512   0.525   0.360   4.111
14530TIP3    H243513   0.509   0.261   4.224
14531TIP3   OH243514   0.588   0.155   4.345
14531TIP3    H143515   0.520   0.113   4.397
14531TIP3    H243516   0.651   0.189   4.409
14532TIP3   OH243517   0.605   0.490   4.738
14532TIP3    H143518   0.678   0.428   4.731
14532TIP3    H243519   0.645   0.568   4.777
14533TIP3   OH243520   0.436   0.838   4.972
14533TIP3    H143521   0.374   0.899   5.013
14533TIP3    H243522   0.385   0.794   4.904
14534TIP3   OH243523   0.529   0.077   3.999
14534TIP3    H143524   0.459   0.075   3.933
14534TIP3    H243525   0.507   0.152   4.054
14535TIP3   OH243526   6.304   8.118   3.941
14535TIP3    H143527   6.242   8.155   3.878
14535TIP3    H243528   6.308   8.025   3.917
14536TIP3   OH243529   6.331   8.408   4.489
14536TIP3    H143530   6.344   8.314   4.479
14536TIP3    H243531   6.318   8.421   4.583
14537TIP3   OH243532   7.932   0.058   5.274
14537TIP3    H143533   7.926   0.035   5.181
14537TIP3    H243534   8.026   0.065   5.291
14538TIP3   OH243535   0.681   0.414   5.303
14538TIP3    H143536   0.762   0.377   5.337
14538TIP3    H243537   0.707   0.460   5.223
14539TIP3   OH243538   0.883   0.241   5.393
14539TIP3    H143539   0.802   0.202   5.425
14539TIP3    H243540   0.951   0.177   5.414
14540TIP3   OH243541   6.303   7.846   3.887
14540TIP3    H143542   6.361   7.825   3.960
14540TIP3    H243543   6.218   7.810   3.914
14541TIP3   OH243544   6.339   8.133   4.375
14541TIP3    H143545   6.386   8.051   4.388
14541TIP3    H243546   6.380   8.174   4.299
14542TIP3   OH243547   6.482   8.297   4.911
14542TIP3    H143548   6.565   8.315   4.865
14542TIP3    H243549   6.495   8.332   4.999
14543TIP3   OH243550   0.627   0.044   5.141
14543TIP3    H143551   0.548   0.074   5.187
14543TIP3    H243552   0.655   0.120   5.090
14544TIP3   OH243553   5.183   8.153   5.902
14544TIP3    H143554   5.277   8.152   5.921
14544TIP3    H243555   5.150   8.072   5.940
14545TIP3   OH243556   7.028   8.027   5.657
14545TIP3    H143557   7.093   7.976   5.608
14545TIP3    H243558   6.994   8.090   5.594
14546TIP3   OH243559   6.454   7.887   4.428
14546TIP3    H143560   6.500   7.871   4.510
14546TIP3    H243561   6.392   7.815   4.420
14547TIP3   OH243562   5.165   7.872   5.252
14547TIP3    H143563   5.217   7.793   5.261
14547TIP3    H243564   5.229   7.941   5.235
14548TIP3   OH243565   4.941   8.138   5.315
14548TIP3    H143566   4.994   8.123   5.236
14548TIP3    H243567   4.961   8.228   5.339
14549TIP3   OH243568   6.879   8.156   5.461
14549TIP3    H143569   6.792   8.196   5.464
14549TIP3    H243570   6.866   8.073   5.416
14550TIP3   OH243571   6.509   7.802   4.066
14550TIP3    H143572   6.554   7.740   4.010
14550TIP3    H243573   6.567   7.878   4.069
14551TIP3   OH243574   4.931   7.654   4.823
14551TIP3    H143575   4.845   7.638   4.862
14551TIP3    H243576   4.913   7.705   4.744
14552TIP3   OH243577   0.192   0.934   4.337
14552TIP3    H143578   0.231   0.911   4.253
14552TIP3    H243579   0.218   1.024   4.352
14553TIP3   OH243580   5.161   7.721   5.650
14553TIP3    H143581   5.105   7.703   5.726
14553TIP3    H243582   5.103   7.763   5.587
14554TIP3   OH243583   8.201   0.648   5.746
14554TIP3    H143584   8.158   0.721   5.703
14554TIP3    H243585   8.178   0.658   5.839
14555TIP3   OH243586   8.368   0.781   5.219
14555TIP3    H143587   8.281   0.821   5.221
14555TIP3    H243588   8.429   0.855   5.228
14556TIP3   OH243589   8.783   1.029   5.359
14556TIP3    H143590   8.807   1.038   5.452
14556TIP3    H243591   8.738   1.112   5.338
14557TIP3   OH243592   6.792   7.906   5.366
14557TIP3    H143593   6.701   7.893   5.338
14557TIP3    H243594   6.832   7.819   5.358
14558TIP3   OH243595   8.900   0.976   5.009
14558TIP3    H143596   8.807   0.955   5.017
14558TIP3    H243597   8.903   1.068   4.985
14559TIP3   OH243598   7.951   0.837   5.022
14559TIP3    H143599   7.994   0.797   5.097
14559TIP3    H243600   8.007   0.814   4.948
14560TIP3   OH243601   8.156   0.716   4.875
14560TIP3    H143602   8.145   0.625   4.904
14560TIP3    H243603   8.248   0.735   4.895
14561TIP3   OH243604   8.426   0.745   4.916
14561TIP3    H143605   8.442   0.651   4.926
14561TIP3    H243606   8.505   0.787   4.948
14562TIP3   OH243607   5.999   7.838   4.997
14562TIP3    H143608   5.959   7.768   5.048
14562TIP3    H243609   6.067   7.795   4.944
14563TIP3   OH243610   6.501   7.768   4.894
14563TIP3    H143611   6.537   7.815   4.819
14563TIP3    H243612   6.407   7.788   4.892
14564TIP3   OH243613   6.610   7.836   4.651
14564TIP3    H143614   6.681   7.776   4.626
14564TIP3    H243615   6.646   7.923   4.634
14565TIP3   OH243616   5.237   7.545   5.002
14565TIP3    H143617   5.148   7.511   5.012
14565TIP3    H243618   5.291   7.467   4.993
14566TIP3   OH243619   5.059   7.460   4.654
14566TIP3    H143620   5.082   7.509   4.575
14566TIP3    H243621   5.022   7.525   4.713
14567TIP3   OH243622   5.715   7.586   4.895
14567TIP3    H143623   5.767   7.632   4.828
14567TIP3    H243624   5.756   7.611   4.978
14568TIP3   OH243625   6.213   7.718   4.866
14568TIP3    H143626   6.244   7.679   4.784
14568TIP3    H243627   6.219   7.647   4.929
14569TIP3   OH243628   6.261   7.685   4.431
14569TIP3    H143629   6.183   7.732   4.461
14569TIP3    H243630   6.253   7.598   4.470
14570TIP3   OH243631   7.764   0.466   4.400
14570TIP3    H143632   7.678   0.494   4.433
14570TIP3    H243633   7.771   0.506   4.313
14571TIP3   OH243634   5.165   7.585   4.410
14571TIP3    H143635   5.209   7.519   4.357
14571TIP3    H243636   5.236   7.641   4.443
14572TIP3   OH243637   5.654   7.780   4.513
14572TIP3    H143638   5.709   7.725   4.569
14572TIP3    H243639   5.667   7.869   4.547
14573TIP3   OH243640   8.414   0.807   4.018
14573TIP3    H143641   8.465   0.875   4.062
14573TIP3    H243642   8.463   0.788   3.938
14574TIP3   OH243643   0.319   0.876   4.107
14574TIP3    H143644   0.320   0.780   4.105
14574TIP3    H243645   0.298   0.901   4.017
14575TIP3   OH243646   5.465   7.826   5.885
14575TIP3    H143647   5.431   7.758   5.942
14575TIP3    H243648   5.558   7.834   5.909
14576TIP3   OH243649   5.714   7.833   6.004
14576TIP3    H143650   5.791   7.812   5.951
14576TIP3    H243651   5.709   7.762   6.068
14577TIP3   OH243652   7.758   0.592   4.155
14577TIP3    H143653   7.736   0.680   4.122
14577TIP3    H243654   7.824   0.560   4.095
14578TIP3   OH243655   6.531   7.916   5.789
14578TIP3    H143656   6.548   7.888   5.879
14578TIP3    H243657   6.616   7.913   5.747
14579TIP3   OH243658   1.885   0.455   4.449
14579TIP3    H143659   1.975   0.432   4.475
14579TIP3    H243660   1.845   0.372   4.425
14580TIP3   OH243661   1.086   0.310   4.856
14580TIP3    H143662   1.101   0.251   4.930
14580TIP3    H243663   1.156   0.375   4.863
14581TIP3   OH243664   1.071   0.795   4.564
14581TIP3    H143665   1.088   0.721   4.505
14581TIP3    H243666   1.157   0.837   4.575
14582TIP3   OH243667   6.693   8.331   4.265
14582TIP3    H143668   6.653   8.415   4.288
14582TIP3    H243669   6.622   8.280   4.227
14583TIP3   OH243670   0.801   0.206   4.506
14583TIP3    H143671   0.825   0.118   4.536
14583TIP3    H243672   0.869   0.231   4.444
14584TIP3   OH243673   2.134   0.164   4.618
14584TIP3    H143674   2.133   0.076   4.581
14584TIP3    H243675   2.042   0.185   4.633
14585TIP3   OH243676   7.223   8.184   4.486
14585TIP3    H143677   7.217   8.256   4.423
14585TIP3    H243678   7.181   8.110   4.442
14586TIP3   OH243679   7.945   8.371   4.018
14586TIP3    H143680   7.955   8.311   4.091
14586TIP3    H243681   8.031   8.373   3.976
14587TIP3   OH243682   6.868   8.374   4.587
14587TIP3    H143683   6.948   8.425   4.600
14587TIP3    H243684   6.886   8.320   4.510
14588TIP3   OH243685   1.353   0.196   4.409
14588TIP3    H143686   1.398   0.156   4.483
14588TIP3    H243687   1.313   0.123   4.362
14589TIP3   OH243688   7.271   8.229   4.952
14589TIP3    H143689   7.219   8.240   4.872
14589TIP3    H243690   7.206   8.230   5.023
14590TIP3   OH243691   8.150   8.352   4.302
14590TIP3    H143692   8.118   8.316   4.384
14590TIP3    H243693   8.235   8.391   4.324
14591TIP3   OH243694   7.129   8.279   4.723
14591TIP3    H143695   7.117   8.371   4.699
14591TIP3    H243696   7.167   8.238   4.645
14592TIP3   OH243697   0.643   0.458   4.020
14592TIP3    H143698   0.614   0.494   3.936
14592TIP3    H243699   0.671   0.534   4.070
14593TIP3   OH243700   7.609   7.866   4.741
14593TIP3    H143701   7.602   7.771   4.746
14593TIP3    H243702   7.519   7.897   4.757
14594TIP3   OH243703   1.612   0.263   3.816
14594TIP3    H143704   1.537   0.318   3.839
14594TIP3    H243705   1.580   0.210   3.743
14595TIP3   OH243706   1.591   0.037   3.646
14595TIP3    H143707   1.642   0.015   3.724
14595TIP3    H243708   1.641   0.000   3.574
14596TIP3   OH243709   1.251   0.318   4.174
14596TIP3    H143710   1.181   0.264   4.138
14596TIP3    H243711   1.260   0.288   4.265
14597TIP3   OH243712   1.339   0.855   4.513
14597TIP3    H143713   1.405   0.921   4.495
14597TIP3    H243714   1.386   0.772   4.513
14598TIP3   OH243715   1.354   0.340   4.689
14598TIP3    H143716   1.444   0.331   4.656
14598TIP3    H243717   1.338   0.434   4.686
14599TIP3   OH243718   8.215   7.812   3.690
14599TIP3    H143719   8.122   7.793   3.706
14599TIP3    H243720   8.228   7.900   3.727
14600TIP3   OH243721   1.063   0.172   4.038
14600TIP3    H143722   0.990   0.225   4.005
14600TIP3    H243723   1.021   0.106   4.092
14601TIP3   OH243724   0.803   0.539   5.080
14601TIP3    H143725   0.762   0.587   5.009
14601TIP3    H243726   0.880   0.498   5.041
14602TIP3   OH243727   0.690   0.839   4.633
14602TIP3    H143728   0.692   0.833   4.538
14602TIP3    H243729   0.622   0.903   4.652
14603TIP3   OH243730   0.807   0.988   4.112
14603TIP3    H143731   0.836   1.031   4.193
14603TIP3    H243732   0.744   0.923   4.142
14604TIP3   OH243733   7.353   7.961   4.763
14604TIP3    H143734   7.261   7.948   4.743
14604TIP3    H243735   7.376   8.043   4.720
14605TIP3   OH243736   7.878   8.181   5.023
14605TIP3    H143737   7.957   8.126   5.028
14605TIP3    H243738   7.806   8.120   5.037
14606TIP3   OH243739   7.528   8.021   3.709
14606TIP3    H143740   7.487   8.028   3.795
14606TIP3    H243741   7.499   7.936   3.675
14607TIP3   OH243742   1.375   0.153   4.885
14607TIP3    H143743   1.299   0.133   4.940
14607TIP3    H243744   1.346   0.228   4.832
14608TIP3   OH243745   7.178   8.371   4.285
14608TIP3    H143746   7.087   8.354   4.308
14608TIP3    H243747   7.187   8.338   4.196
14609TIP3   OH243748   1.751   0.039   3.889
14609TIP3    H143749   1.718   0.128   3.885
14609TIP3    H243750   1.845   0.048   3.904
14610TIP3   OH243751   1.976   0.168   4.220
14610TIP3    H143752   1.936   0.230   4.159
14610TIP3    H243753   2.012   0.099   4.163
14611TIP3   OH243754   1.160   0.119   5.053
14611TIP3    H143755   1.086   0.162   5.095
14611TIP3    H243756   1.161   0.031   5.091
14612TIP3   OH243757   7.194   8.006   3.709
14612TIP3    H143758   7.183   8.007   3.804
14612TIP3    H243759   7.116   8.050   3.676
14613TIP3   OH243760   6.727   8.063   4.565
14613TIP3    H143761   6.793   8.094   4.626
14613TIP3    H243762   6.776   8.042   4.485
14614TIP3   OH243763   6.657   8.038   4.080
14614TIP3    H143764   6.701   8.073   4.003
14614TIP3    H243765   6.591   8.103   4.102
14615TIP3   OH243766   7.447   8.156   4.283
14615TIP3    H143767   7.354   8.141   4.263
14615TIP3    H243768   7.464   8.104   4.361
14616TIP3   OH243769   6.940   8.248   4.353
14616TIP3    H143770   6.856   8.265   4.311
14616TIP3    H243771   6.965   8.160   4.322
14617TIP3   OH243772   7.200   8.262   4.036
14617TIP3    H143773   7.292   8.272   4.010
14617TIP3    H243774   7.151   8.283   3.956
14618TIP3   OH243775   8.066   8.264   4.554
14618TIP3    H143776   8.101   8.280   4.641
14618TIP3    H243777   8.080   8.171   4.539
14619TIP3   OH243778   7.078   8.293   3.794
14619TIP3    H143779   7.018   8.242   3.740
14619TIP3    H243780   7.137   8.335   3.731
14620TIP3   OH243781   1.739   0.228   4.361
14620TIP3    H143782   1.811   0.210   4.301
14620TIP3    H243783   1.692   0.145   4.368
14621TIP3   OH243784   7.095   8.005   4.313
14621TIP3    H143785   7.070   7.931   4.368
14621TIP3    H243786   7.113   7.966   4.227
14622TIP3   OH243787   1.641   0.093   4.870
14622TIP3    H143788   1.550   0.121   4.874
14622TIP3    H243789   1.691   0.172   4.891
14623TIP3   OH243790   1.375   0.405   3.752
14623TIP3    H143791   1.307   0.343   3.728
14623TIP3    H243792   1.339   0.454   3.826
14624TIP3   OH243793   7.754   8.163   3.689
14624TIP3    H143794   7.672   8.115   3.697
14624TIP3    H243795   7.738   8.227   3.620
14625TIP3   OH243796   1.036   0.416   4.580
14625TIP3    H143797   0.961   0.476   4.579
14625TIP3    H243798   1.112   0.473   4.569
14626TIP3   OH243799   0.951   0.280   5.135
14626TIP3    H143800   0.929   0.272   5.227
14626TIP3    H243801   0.867   0.272   5.089
14627TIP3   OH243802   1.079   0.674   4.106
14627TIP3    H143803   1.073   0.766   4.081
14627TIP3    H243804   0.999   0.657   4.155
14628TIP3   OH243805   0.763   0.065   3.853
14628TIP3    H143806   0.808   0.147   3.870
14628TIP3    H243807   0.685   0.067   3.908
14629TIP3   OH243808   1.233   0.504   3.973
14629TIP3    H143809   1.169   0.560   4.018
14629TIP3    H243810   1.245   0.429   4.031
14630TIP3   OH243811   7.098   8.249   5.169
14630TIP3    H143812   7.003   8.237   5.161
14630TIP3    H243813   7.128   8.176   5.223
14631TIP3   OH243814   0.968   0.962   4.769
14631TIP3    H143815   1.000   0.888   4.717
14631TIP3    H243816   0.965   0.929   4.858
14632TIP3   OH243817   1.219   0.608   3.459
14632TIP3    H143818   1.215   0.516   3.432
14632TIP3    H243819   1.178   0.609   3.546
14633TIP3   OH243820   1.143   0.635   3.734
14633TIP3    H143821   1.167   0.579   3.809
14633TIP3    H243822   1.220   0.691   3.721
14634TIP3   OH243823   0.858   0.316   3.926
14634TIP3    H143824   0.784   0.355   3.973
14634TIP3    H243825   0.884   0.383   3.863
14635TIP3   OH243826   7.844   8.123   3.941
14635TIP3    H143827   7.807   8.123   3.853
14635TIP3    H243828   7.878   8.212   3.952
14636TIP3   OH243829   7.475   8.270   3.998
14636TIP3    H143830   7.538   8.322   3.948
14636TIP3    H243831   7.506   8.277   4.089
14637TIP3   OH243832   7.613   7.958   4.148
14637TIP3    H143833   7.598   8.043   4.189
14637TIP3    H243834   7.708   7.951   4.142
14638TIP3   OH243835   7.147   7.988   3.995
14638TIP3    H143836   7.141   8.081   4.017
14638TIP3    H243837   7.242   7.971   3.991
14639TIP3   OH243838   0.887   0.517   3.729
14639TIP3    H143839   0.959   0.580   3.736
14639TIP3    H243840   0.916   0.454   3.663
14640TIP3   OH243841   6.723   8.179   3.856
14640TIP3    H143842   6.737   8.273   3.864
14640TIP3    H243843   6.674   8.168   3.774
14641TIP3   OH243844   7.088   7.894   4.727
14641TIP3    H143845   7.069   7.862   4.639
14641TIP3    H243846   7.091   7.816   4.781
14642TIP3   OH243847   0.741   0.679   4.152
14642TIP3    H143848   0.712   0.729   4.228
14642TIP3    H243849   0.699   0.722   4.077
14643TIP3   OH243850   0.990   0.317   3.575
14643TIP3    H143851   1.037   0.279   3.650
14643TIP3    H243852   1.057   0.329   3.508
14644TIP3   OH243853   1.159   0.225   3.774
14644TIP3    H143854   1.136   0.194   3.862
14644TIP3    H243855   1.207   0.152   3.735
14645TIP3   OH243856   1.312   0.045   3.631
14645TIP3    H143857   1.291   0.056   3.538
14645TIP3    H243858   1.408   0.042   3.633
14646TIP3   OH243859   7.519   8.274   5.041
14646TIP3    H143860   7.550   8.345   4.985
14646TIP3    H243861   7.426   8.264   5.018
14647TIP3   OH243862   7.638   8.034   5.084
14647TIP3    H143863   7.595   8.118   5.067
14647TIP3    H243864   7.573   7.969   5.058
14648TIP3   OH243865   7.770   8.029   5.324
14648TIP3    H143866   7.715   7.983   5.387
14648TIP3    H243867   7.713   8.042   5.247
14649TIP3   OH243868   0.613   0.489   3.732
14649TIP3    H143869   0.708   0.503   3.735
14649TIP3    H243870   0.604   0.400   3.698
14650TIP3   OH243871   0.665   0.873   4.336
14650TIP3    H143872   0.579   0.848   4.369
14650TIP3    H243873   0.664   0.969   4.335
14651TIP3   OH243874   0.821   0.312   4.759
14651TIP3    H143875   0.815   0.286   4.667
14651TIP3    H243876   0.914   0.332   4.772
14652TIP3   OH243877   6.976   8.408   5.396
14652TIP3    H143878   7.064   8.391   5.362
14652TIP3    H243879   6.950   8.326   5.437
14653TIP3   OH243880   8.220   8.044   3.852
14653TIP3    H143881   8.231   8.088   3.936
14653TIP3    H243882   8.138   7.995   3.862
14654TIP3   OH243883   6.917   8.107   4.763
14654TIP3    H143884   6.972   8.028   4.759
14654TIP3    H243885   6.978   8.180   4.753
14655TIP3   OH243886   0.792  -0.003   4.823
14655TIP3    H143887   0.838  -0.028   4.742
14655TIP3    H243888   0.808   0.091   4.832
14656TIP3   OH243889   6.728   7.901   4.305
14656TIP3    H143890   6.642   7.889   4.345
14656TIP3    H243891   6.712   7.956   4.229
14657TIP3   OH243892   6.940   7.964   5.132
14657TIP3    H143893   6.887   7.948   5.210
14657TIP3    H243894   6.881   8.009   5.071
14658TIP3   OH243895   0.808   1.101   4.593
14658TIP3    H143896   0.857   1.051   4.659
14658TIP3    H243897   0.836   1.065   4.509
14659TIP3   OH243898   1.177   0.945   4.309
14659TIP3    H143899   1.226   0.890   4.370
14659TIP3    H243900   1.181   1.032   4.346
14660TIP3   OH243901   7.878   7.986   4.520
14660TIP3    H143902   7.906   8.025   4.603
14660TIP3    H243903   7.819   8.051   4.482
14661TIP3   OH243904   8.347   8.089   4.357
14661TIP3    H143905   8.351   8.185   4.367
14661TIP3    H243906   8.296   8.060   4.432
14662TIP3   OH243907   7.028   7.791   4.477
14662TIP3    H143908   6.939   7.757   4.489
14662TIP3    H243909   7.083   7.713   4.474
14663TIP3   OH243910   6.817   7.689   4.131
14663TIP3    H143911   6.857   7.732   4.056
14663TIP3    H243912   6.798   7.760   4.192
14664TIP3   OH243913   7.437   7.822   4.310
14664TIP3    H143914   7.487   7.858   4.237
14664TIP3    H243915   7.464   7.874   4.386
14665TIP3   OH243916   8.067   7.995   4.312
14665TIP3    H143917   8.146   7.942   4.306
14665TIP3    H243918   8.028   7.971   4.396
14666TIP3   OH243919   7.997   7.898   3.879
14666TIP3    H143920   7.934   7.961   3.914
14666TIP3    H243921   7.979   7.817   3.927
14667TIP3   OH243922   0.608   0.801   3.945
14667TIP3    H143923   0.518   0.807   3.914
14667TIP3    H243924   0.654   0.873   3.903
14668TIP3   OH243925   6.947   7.813   3.904
14668TIP3    H143926   6.995   7.746   3.855
14668TIP3    H243927   7.015   7.871   3.939
14669TIP3   OH243928   7.417   8.009   3.961
14669TIP3    H143929   7.481   7.961   4.014
14669TIP3    H243930   7.437   8.101   3.976
14670TIP3   OH243931   7.228   8.059   5.346
14670TIP3    H143932   7.210   7.990   5.410
14670TIP3    H243933   7.310   8.098   5.374
14671TIP3   OH243934   0.679   0.861   3.584
14671TIP3    H143935   0.726   0.944   3.579
14671TIP3    H243936   0.746   0.797   3.609
14672TIP3   OH243937   7.527   5.884   0.666
14672TIP3    H143938   7.558   5.973   0.648
14672TIP3    H243939   7.605   5.829   0.652
14673TIP3   OH243940   7.025   6.045   0.840
14673TIP3    H143941   7.120   6.033   0.833
14673TIP3    H243942   7.009   6.053   0.934
14674TIP3   OH243943   6.993   6.104   1.124
14674TIP3    H143944   6.915   6.058   1.156
14674TIP3    H243945   7.062   6.076   1.184
14675TIP3   OH243946   7.307   5.208   0.932
14675TIP3    H143947   7.262   5.195   0.848
14675TIP3    H243948   7.378   5.268   0.912
14676TIP3   OH243949   7.880   5.003   1.033
14676TIP3    H143950   7.810   4.966   0.979
14676TIP3    H243951   7.844   5.085   1.067
14677TIP3   OH243952   7.516   5.917   0.954
14677TIP3    H143953   7.519   5.846   1.018
14677TIP3    H243954   7.495   5.873   0.871
14678TIP3   OH243955   7.286   5.567   1.074
14678TIP3    H143956   7.204   5.566   1.123
14678TIP3    H243957   7.261   5.544   0.984
14679TIP3   OH243958   7.618   6.134   0.658
14679TIP3    H143959   7.635   6.217   0.614
14679TIP3    H243960   7.590   6.159   0.746
14680TIP3   OH243961   6.556   5.601   0.938
14680TIP3    H143962   6.610   5.527   0.964
14680TIP3    H243963   6.480   5.598   0.996
14681TIP3   OH243964   6.778   5.796   0.944
14681TIP3    H143965   6.688   5.814   0.917
14681TIP3    H243966   6.827   5.792   0.862
14682TIP3   OH243967   7.285   6.005   0.730
14682TIP3    H143968   7.359   5.949   0.705
14682TIP3    H243969   7.280   6.069   0.659
14683TIP3   OH243970   6.762   5.426   1.022
14683TIP3    H143971   6.797   5.440   1.111
14683TIP3    H243972   6.839   5.402   0.970
14684TIP3   OH243973   7.466   5.378   0.777
14684TIP3    H143974   7.483   5.294   0.736
14684TIP3    H243975   7.526   5.439   0.733
14685TIP3   OH243976   6.395   6.136   0.971
14685TIP3    H143977   6.384   6.152   1.065
14685TIP3    H243978   6.485   6.163   0.952
14686TIP3   OH243979   7.771   5.535   1.215
14686TIP3    H143980   7.861   5.518   1.189
14686TIP3    H243981   7.775   5.545   1.310
14687TIP3   OH243982   7.683   5.446   0.972
14687TIP3    H143983   7.591   5.425   0.987
14687TIP3    H243984   7.711   5.490   1.052
14688TIP3   OH243985   7.688   4.904   0.864
14688TIP3    H143986   7.594   4.909   0.882
14688TIP3    H243987   7.697   4.832   0.802
14689TIP3   OH243988   7.477   6.154   1.434
14689TIP3    H143989   7.481   6.098   1.357
14689TIP3    H243990   7.387   6.187   1.436
14690TIP3   OH243991   6.752   6.064   0.970
14690TIP3    H143992   6.772   6.075   0.877
14690TIP3    H243993   6.769   5.971   0.988
14691TIP3   OH243994   7.511   6.191   0.898
14691TIP3    H143995   7.490   6.104   0.932
14691TIP3    H243996   7.429   6.224   0.861
14692TIP3   OH243997   0.077   5.700   1.066
14692TIP3    H143998   0.054   5.789   1.038
14692TIP3    H243999   0.019   5.643   1.015
14693TIP3   OH244000   0.088   5.715   1.366
14693TIP3    H144001   0.132   5.646   1.416
14693TIP3    H244002   0.082   5.680   1.277
14694TIP3   OH244003   0.390   6.022   1.112
14694TIP3    H144004   0.358   5.965   1.182
14694TIP3    H244005   0.399   6.108   1.154
14695TIP3   OH244006   0.024   6.440   1.129
14695TIP3    H144007   0.050   6.377   1.061
14695TIP3    H244008   0.020   6.387   1.209
14696TIP3   OH244009   8.841   5.940   1.439
14696TIP3    H144010   8.874   5.855   1.412
14696TIP3    H244011   8.917   5.982   1.481
14697TIP3   OH244012   0.367   5.204   1.129
14697TIP3    H144013   0.462   5.204   1.117
14697TIP3    H244014   0.332   5.181   1.042
14698TIP3   OH244015   8.695   5.516   1.369
14698TIP3    H144016   8.783   5.487   1.393
14698TIP3    H244017   8.685   5.491   1.278
14699TIP3   OH244018   8.882   5.910   0.913
14699TIP3    H144019   8.869   5.904   0.818
14699TIP3    H244020   8.839   5.992   0.938
14700TIP3   OH244021   7.846   5.735   0.979
14700TIP3    H144022   7.822   5.815   0.932
14700TIP3    H244023   7.827   5.754   1.071
14701TIP3   OH244024   0.403   6.263   1.252
14701TIP3    H144025   0.314   6.253   1.285
14701TIP3    H244026   0.403   6.348   1.209
14702TIP3   OH244027   0.108   6.291   0.910
14702TIP3    H144028   0.161   6.212   0.900
14702TIP3    H244029   0.167   6.363   0.885
14703TIP3   OH244030   0.267   6.077   0.867
14703TIP3    H144031   0.270   6.002   0.807
14703TIP3    H244032   0.313   6.047   0.945
14704TIP3   OH244033   8.835   5.560   0.871
14704TIP3    H144034   8.764   5.620   0.851
14704TIP3    H244035   8.884   5.551   0.790
14705TIP3   OH244036   8.814   5.366   0.552
14705TIP3    H144037   8.881   5.412   0.602
14705TIP3    H244038   8.860   5.290   0.516
14706TIP3   OH244039   0.261   5.667   0.846
14706TIP3    H144040   0.209   5.688   0.924
14706TIP3    H244041   0.345   5.636   0.882
14707TIP3   OH244042   8.488   5.678   1.304
14707TIP3    H144043   8.434   5.606   1.272
14707TIP3    H244044   8.569   5.635   1.333
14708TIP3   OH244045   8.645   6.079   1.307
14708TIP3    H144046   8.698   6.112   1.235
14708TIP3    H244047   8.707   6.031   1.362
14709TIP3   OH244048   0.160   6.242   1.373
14709TIP3    H144049   0.151   6.322   1.424
14709TIP3    H244050   0.160   6.172   1.438
14710TIP3   OH244051   0.125   5.506   0.670
14710TIP3    H144052   0.177   5.571   0.718
14710TIP3    H244053   0.153   5.514   0.579
14711TIP3   OH244054   8.764   6.163   0.943
14711TIP3    H144055   8.844   6.214   0.934
14711TIP3    H244056   8.706   6.196   0.875
14712TIP3   OH244057   8.291   5.437   1.086
14712TIP3    H144058   8.211   5.453   1.036
14712TIP3    H244059   8.288   5.344   1.109
14713TIP3   OH244060   0.451   6.105   0.282
14713TIP3    H144061   0.445   6.197   0.257
14713TIP3    H244062   0.539   6.079   0.255
14714TIP3   OH244063   8.664   6.403   0.742
14714TIP3    H144064   8.612   6.382   0.664
14714TIP3    H244065   8.627   6.486   0.773
14715TIP3   OH244066   8.178   6.173   1.101
14715TIP3    H144067   8.194   6.201   1.191
14715TIP3    H244068   8.090   6.135   1.103
14716TIP3   OH244069   8.859   6.330   0.376
14716TIP3    H144070   8.908   6.256   0.341
14716TIP3    H244071   8.895   6.343   0.464
14717TIP3   OH244072   0.015   6.370   0.645
14717TIP3    H144073  -0.072   6.377   0.684
14717TIP3    H244074   0.069   6.331   0.714
14718TIP3   OH244075   0.195   5.503   0.408
14718TIP3    H144076   0.142   5.502   0.328
14718TIP3    H244077   0.279   5.540   0.382
14719TIP3   OH244078   8.678   5.243   1.271
14719TIP3    H144079   8.617   5.253   1.343
14719TIP3    H244080   8.639   5.294   1.200
14720TIP3   OH244081   0.054   5.356   1.006
14720TIP3    H144082   0.000   5.424   0.965
14720TIP3    H244083   0.112   5.325   0.937
14721TIP3   OH244084   0.227   5.426   1.206
14721TIP3    H144085   0.164   5.428   1.133
14721TIP3    H244086   0.282   5.351   1.187
14722TIP3   OH244087   8.080   4.878   1.166
14722TIP3    H144088   8.041   4.791   1.174
14722TIP3    H244089   8.012   4.931   1.125
14723TIP3   OH244090   8.536   5.157   0.998
14723TIP3    H144091   8.628   5.133   0.991
14723TIP3    H244092   8.501   5.144   0.910
14724TIP3   OH244093   8.428   5.142   0.743
14724TIP3    H144094   8.360   5.109   0.684
14724TIP3    H244095   8.477   5.205   0.690
14725TIP3   OH244096   0.587   6.887   1.756
14725TIP3    H144097   0.559   6.912   1.669
14725TIP3    H244098   0.674   6.926   1.766
14726TIP3   OH244099   0.032   5.366   1.392
14726TIP3    H144100   0.096   5.380   1.322
14726TIP3    H244101  -0.025   5.297   1.359
14727TIP3   OH244102   8.626   5.730   0.816
14727TIP3    H144103   8.566   5.655   0.815
14727TIP3    H244104   8.620   5.765   0.905
14728TIP3   OH244105   0.599   5.905   1.359
14728TIP3    H144106   0.638   5.989   1.335
14728TIP3    H244107   0.512   5.927   1.391
14729TIP3   OH244108   0.099   5.112   0.631
14729TIP3    H144109   0.059   5.040   0.679
14729TIP3    H244110   0.149   5.160   0.697
14730TIP3   OH244111   0.229   5.285   0.807
14730TIP3    H144112   0.324   5.291   0.817
14730TIP3    H244113   0.206   5.359   0.752
14731TIP3   OH244114   8.776   5.872   0.641
14731TIP3    H144115   8.732   5.957   0.642
14731TIP3    H244116   8.722   5.817   0.698
14732TIP3   OH244117   0.615   5.357   0.602
14732TIP3    H144118   0.564   5.310   0.536
14732TIP3    H244119   0.617   5.447   0.572
14733TIP3   OH244120   0.370   6.173   0.542
14733TIP3    H144121   0.347   6.098   0.596
14733TIP3    H244122   0.396   6.135   0.458
14734TIP3   OH244123   0.319   5.862   1.339
14734TIP3    H144124   0.231   5.824   1.342
14734TIP3    H244125   0.374   5.790   1.307
14735TIP3   OH244126   8.407   5.996   0.998
14735TIP3    H144127   8.404   6.083   0.960
14735TIP3    H244128   8.380   6.007   1.089
14736TIP3   OH244129   7.989   5.334   0.765
14736TIP3    H144130   7.963   5.421   0.737
14736TIP3    H244131   7.907   5.287   0.780
14737TIP3   OH244132   8.579   5.800   1.072
14737TIP3    H144133   8.543   5.888   1.060
14737TIP3    H244134   8.564   5.781   1.165
14738TIP3   OH244135   8.680   6.390   1.589
14738TIP3    H144136   8.722   6.460   1.541
14738TIP3    H244137   8.751   6.343   1.632
14739TIP3   OH244138   8.363   6.253   0.917
14739TIP3    H144139   8.295   6.239   0.983
14739TIP3    H244140   8.378   6.347   0.917
14740TIP3   OH244141   0.188   6.020   1.543
14740TIP3    H144142   0.203   5.987   1.632
14740TIP3    H244143   0.249   5.970   1.488
14741TIP3   OH244144   0.128   5.918   0.453
14741TIP3    H144145   0.180   5.907   0.532
14741TIP3    H244146   0.040   5.889   0.477
14742TIP3   OH244147   0.360   6.591   1.616
14742TIP3    H144148   0.297   6.524   1.592
14742TIP3    H244149   0.375   6.640   1.535
14743TIP3   OH244150   0.444   6.377   0.233
14743TIP3    H144151   0.461   6.435   0.159
14743TIP3    H244152   0.375   6.419   0.283
14744TIP3   OH244153   0.298   5.876   0.668
14744TIP3    H144154   0.282   5.802   0.726
14744TIP3    H244155   0.389   5.864   0.639
14745TIP3   OH244156   8.400   5.874   0.447
14745TIP3    H144157   8.415   5.786   0.413
14745TIP3    H244158   8.387   5.861   0.541
14746TIP3   OH244159   8.344   5.878   0.720
14746TIP3    H144160   8.392   5.867   0.802
14746TIP3    H244161   8.344   5.972   0.705
14747TIP3   OH244162   8.077   5.605   0.929
14747TIP3    H144163   8.006   5.662   0.955
14747TIP3    H244164   8.157   5.655   0.948
14748TIP3   OH244165   8.626   6.099   0.657
14748TIP3    H144166   8.531   6.098   0.669
14748TIP3    H244167   8.643   6.174   0.600
14749TIP3   OH244168   8.807   5.127   1.054
14749TIP3    H144169   8.864   5.203   1.037
14749TIP3    H244170   8.769   5.145   1.140
14750TIP3   OH244171   8.353   6.144   0.670
14750TIP3    H144172   8.326   6.213   0.609
14750TIP3    H244173   8.349   6.186   0.756
14751TIP3   OH244174   0.428   5.615   1.241
14751TIP3    H144175   0.348   5.566   1.225
14751TIP3    H244176   0.472   5.568   1.312
14752TIP3   OH244177   8.066   5.870   0.677
14752TIP3    H144178   8.151   5.867   0.722
14752TIP3    H244179   8.088   5.894   0.587
14753TIP3   OH244180   8.035   4.965   0.799
14753TIP3    H144181   7.968   4.973   0.731
14753TIP3    H244182   7.988   4.977   0.881
14754TIP3   OH244183   0.423   6.524   1.161
14754TIP3    H144184   0.374   6.578   1.099
14754TIP3    H244185   0.515   6.544   1.144
14755TIP3   OH244186   7.927   6.069   1.071
14755TIP3    H144187   7.879   6.152   1.077
14755TIP3    H244188   7.892   6.028   0.991
14756TIP3   OH244189   8.543   6.082   0.339
14756TIP3    H144190   8.499   6.009   0.383
14756TIP3    H244191   8.617   6.041   0.294
14757TIP3   OH244192   0.083   6.115   0.263
14757TIP3    H144193   0.115   6.051   0.326
14757TIP3    H244194   0.143   6.107   0.188
14758TIP3   OH244195   8.210   5.565   0.530
14758TIP3    H144196   8.242   5.508   0.600
14758TIP3    H244197   8.288   5.589   0.481
14759TIP3   OH244198   8.748   5.796   0.376
14759TIP3    H144199   8.743   5.806   0.471
14759TIP3    H244200   8.742   5.701   0.361
14760TIP3   OH244201   8.496   5.493   0.833
14760TIP3    H144202   8.401   5.480   0.827
14760TIP3    H244203   8.532   5.442   0.760
14761TIP3   OH244204   8.549   5.343   0.606
14761TIP3    H144205   8.510   5.349   0.519
14761TIP3    H244206   8.644   5.348   0.590
14762TIP3   OH244207   0.415   5.617   0.282
14762TIP3    H144208   0.393   5.580   0.197
14762TIP3    H244209   0.389   5.709   0.276
14763TIP3   OH244210   8.342   6.378   0.525
14763TIP3    H144211   8.435   6.364   0.508
14763TIP3    H244212   8.311   6.426   0.447
14764TIP3   OH244213   7.797   5.804   0.663
14764TIP3    H144214   7.891   5.822   0.671
14764TIP3    H244215   7.788   5.713   0.689
14765TIP3   OH244216   7.768   6.294   1.067
14765TIP3    H144217   7.759   6.365   1.003
14765TIP3    H244218   7.681   6.284   1.105
14766TIP3   OH244219   7.883   6.195   1.473
14766TIP3    H144220   7.808   6.240   1.435
14766TIP3    H244221   7.913   6.253   1.543
14767TIP3   OH244222   0.685   6.608   1.144
14767TIP3    H144223   0.683   6.651   1.230
14767TIP3    H244224   0.740   6.664   1.090
14768TIP3   OH244225   0.634   6.645   1.416
14768TIP3    H144226   0.596   6.558   1.406
14768TIP3    H244227   0.675   6.643   1.503
14769TIP3   OH244228   0.563   5.843   0.603
14769TIP3    H144229   0.629   5.905   0.572
14769TIP3    H244230   0.604   5.801   0.679
14770TIP3   OH244231   0.671   5.692   0.801
14770TIP3    H144232   0.615   5.653   0.868
14770TIP3    H244233   0.750   5.717   0.847
14771TIP3   OH244234   0.721   6.107   1.204
14771TIP3    H144235   0.657   6.075   1.141
14771TIP3    H244236   0.743   6.195   1.174
14772TIP3   OH244237   0.567   6.378   1.446
14772TIP3    H144238   0.548   6.339   1.532
14772TIP3    H244239   0.517   6.325   1.385
14773TIP3   OH244240   0.610   5.601   0.473
14773TIP3    H144241   0.542   5.602   0.405
14773TIP3    H244242   0.597   5.683   0.521
14774TIP3   OH244243   0.476   5.272   0.380
14774TIP3    H144244   0.500   5.340   0.317
14774TIP3    H244245   0.412   5.218   0.335
14775TIP3   OH244246   0.485   5.566   0.967
14775TIP3    H144247   0.501   5.473   0.951
14775TIP3    H244248   0.489   5.575   1.062
14776TIP3   OH244249   0.499   5.305   0.852
14776TIP3    H144250   0.561   5.261   0.912
14776TIP3    H244251   0.549   5.316   0.771
14777TIP3   OH244252   0.256   6.496   0.814
14777TIP3    H144253   0.306   6.480   0.734
14777TIP3    H244254   0.301   6.570   0.856
14778TIP3   OH244255   0.188   6.781   1.734
14778TIP3    H144256   0.232   6.708   1.689
14778TIP3    H244257   0.259   6.830   1.776
14779TIP3   OH244258   8.793   6.595   1.443
14779TIP3    H144259   8.726   6.601   1.374
14779TIP3    H244260   8.802   6.685   1.474
14780TIP3   OH244261   0.145   6.499   1.470
14780TIP3    H144262   0.054   6.526   1.461
14780TIP3    H244263   0.194   6.562   1.417
14781TIP3   OH244264   0.325   6.688   1.360
14781TIP3    H144265   0.326   6.775   1.320
14781TIP3    H244266   0.359   6.630   1.293
14782TIP3   OH244267   8.222   6.163   1.412
14782TIP3    H144268   8.255   6.089   1.361
14782TIP3    H244269   8.301   6.205   1.447
14783TIP3   OH244270   8.460   6.299   1.457
14783TIP3    H144271   8.486   6.292   1.365
14783TIP3    H244272   8.541   6.318   1.504
14784TIP3   OH244273   7.896   6.206   0.767
14784TIP3    H144274   7.848   6.133   0.804
14784TIP3    H244275   7.829   6.267   0.738
14785TIP3   OH244276   8.603   6.311   0.474
14785TIP3    H144277   8.687   6.336   0.436
14785TIP3    H244278   8.573   6.237   0.422
14786TIP3   OH244279   0.395   6.442   0.580
14786TIP3    H144280   0.391   6.347   0.572
14786TIP3    H244281   0.354   6.474   0.500
14787TIP3   OH244282   7.918   6.131   0.500
14787TIP3    H144283   7.919   6.151   0.593
14787TIP3    H244284   8.000   6.085   0.484
14788TIP3   OH244285   0.641   6.627   1.691
14788TIP3    H144286   0.558   6.581   1.679
14788TIP3    H244287   0.616   6.711   1.729
14789TIP3   OH244288   0.871   5.467   0.785
14789TIP3    H144289   0.799   5.514   0.743
14789TIP3    H244290   0.899   5.403   0.719
14790TIP3   OH244291   0.941   5.734   0.860
14790TIP3    H144292   0.945   5.640   0.843
14790TIP3    H244293   0.984   5.773   0.784
14791TIP3   OH244294   1.743   6.252   0.423
14791TIP3    H144295   1.717   6.160   0.418
14791TIP3    H244296   1.839   6.250   0.415
14792TIP3   OH244297   0.757   6.010   0.495
14792TIP3    H144298   0.730   6.032   0.406
14792TIP3    H244299   0.781   6.095   0.534
14793TIP3   OH244300   1.682   5.622   0.055
14793TIP3    H144301   1.731   5.683   0.110
14793TIP3    H244302   1.688   5.538   0.101
14794TIP3   OH244303   1.694   6.531   0.423
14794TIP3    H144304   1.705   6.437   0.405
14794TIP3    H244305   1.630   6.560   0.358
14795TIP3   OH244306   1.090   5.790   0.643
14795TIP3    H144307   1.069   5.779   0.550
14795TIP3    H244308   1.154   5.721   0.661
14796TIP3   OH244309   8.170   2.194   7.041
14796TIP3    H144310   8.172   2.286   7.013
14796TIP3    H244311   8.262   2.167   7.042
14797TIP3   OH244312   0.788   6.355   1.104
14797TIP3    H144313   0.878   6.382   1.120
14797TIP3    H244314   0.737   6.436   1.117
14798TIP3   OH244315   1.546   6.670   0.230
14798TIP3    H144316   1.504   6.641   0.149
14798TIP3    H244317   1.503   6.753   0.251
14799TIP3   OH244318   0.953   6.512   0.569
14799TIP3    H144319   0.990   6.497   0.655
14799TIP3    H244320   0.908   6.430   0.547
14800TIP3   OH244321   7.680   2.391   7.122
14800TIP3    H144322   7.732   2.319   7.086
14800TIP3    H244323   7.714   2.404   7.210
14801TIP3   OH244324   1.798   6.633   0.121
14801TIP3    H144325   1.716   6.637   0.171
14801TIP3    H244326   1.861   6.595   0.183
14802TIP3   OH244327   7.958   1.633   7.172
14802TIP3    H144328   7.903   1.626   7.094
14802TIP3    H244329   8.044   1.660   7.138
14803TIP3   OH244330   0.875   5.262   0.594
14803TIP3    H144331   0.896   5.269   0.501
14803TIP3    H244332   0.781   5.283   0.599
14804TIP3   OH244333   1.244   5.391   0.263
14804TIP3    H144334   1.168   5.407   0.207
14804TIP3    H244335   1.313   5.446   0.226
14805TIP3   OH244336   1.429   6.007   0.290
14805TIP3    H144337   1.389   5.920   0.280
14805TIP3    H244338   1.430   6.021   0.385
14806TIP3   OH244339   1.648   6.115   0.154
14806TIP3    H144340   1.612   6.204   0.157
14806TIP3    H244341   1.582   6.062   0.199
14807TIP3   OH244342   2.113   6.413   0.026
14807TIP3    H144343   2.071   6.330   0.049
14807TIP3    H244344   2.146   6.398  -0.063
14808TIP3   OH244345   1.284   6.331   0.635
14808TIP3    H144346   1.262   6.393   0.565
14808TIP3    H244347   1.287   6.246   0.592
14809TIP3   OH244348   0.836   5.573   0.318
14809TIP3    H144349   0.889   5.650   0.335
14809TIP3    H244350   0.761   5.581   0.376
14810TIP3   OH244351   1.441   6.098   0.559
14810TIP3    H144352   1.482   6.184   0.566
14810TIP3    H244353   1.512   6.036   0.574
14811TIP3   OH244354   1.204   6.530   0.459
14811TIP3    H144355   1.112   6.537   0.484
14811TIP3    H244356   1.235   6.621   0.459
14812TIP3   OH244357   7.857   1.959   7.147
14812TIP3    H144358   7.866   1.976   7.241
14812TIP3    H244359   7.775   1.910   7.140
14813TIP3   OH244360   8.195   2.466   7.001
14813TIP3    H144361   8.236   2.543   6.961
14813TIP3    H244362   8.115   2.500   7.042
14814TIP3   OH244363   1.006   6.514   1.207
14814TIP3    H144364   1.059   6.445   1.248
14814TIP3    H244365   1.034   6.595   1.252
14815TIP3   OH244366   7.215   1.937   7.193
14815TIP3    H144367   7.225   1.845   7.168
14815TIP3    H244368   7.192   1.934   7.286
14816TIP3   OH244369   1.217   6.154   0.192
14816TIP3    H144370   1.294   6.113   0.232
14816TIP3    H244371   1.231   6.248   0.205
14817TIP3   OH244372   0.942   5.822   0.394
14817TIP3    H144373   0.884   5.873   0.450
14817TIP3    H244374   0.971   5.883   0.326
14818TIP3   OH244375   1.524   6.358   0.159
14818TIP3    H144376   1.435   6.371   0.191
14818TIP3    H244377   1.535   6.423   0.090
14819TIP3   OH244378   1.263   6.423   0.216
14819TIP3    H144379   1.238   6.491   0.153
14819TIP3    H244380   1.242   6.460   0.302
14820TIP3   OH244381   0.975   6.022   0.193
14820TIP3    H144382   1.046   6.085   0.202
14820TIP3    H244383   1.010   5.956   0.132
14821TIP3   OH244384   0.885   5.294   0.319
14821TIP3    H144385   0.875   5.389   0.312
14821TIP3    H244386   0.823   5.258   0.256
14822TIP3   OH244387   0.795   6.276   0.582
14822TIP3    H144388   0.764   6.318   0.662
14822TIP3    H244389   0.747   6.320   0.512
14823TIP3   OH244390   7.368   2.141   7.094
14823TIP3    H144391   7.319   2.068   7.133
14823TIP3    H244392   7.441   2.099   7.048
14824TIP3   OH244393   7.810   2.185   7.000
14824TIP3    H144394   7.844   2.111   7.051
14824TIP3    H244395   7.862   2.184   6.919
14825TIP3   OH244396   1.104   5.826   0.055
14825TIP3    H144397   1.154   5.799   0.132
14825TIP3    H244398   1.170   5.838  -0.013
14826TIP3   OH244399   7.603   1.855   7.149
14826TIP3    H144400   7.585   1.866   7.242
14826TIP3    H244401   7.586   1.763   7.131
14827TIP3   OH244402   1.288   5.765   0.269
14827TIP3    H144403   1.307   5.736   0.358
14827TIP3    H244404   1.327   5.698   0.213
14828TIP3   OH244405   1.399   5.574   0.112
14828TIP3    H144406   1.373   5.581   0.021
14828TIP3    H244407   1.495   5.580   0.110
14829TIP3   OH244408   8.182   1.710   7.018
14829TIP3    H144409   8.153   1.653   6.947
14829TIP3    H244410   8.143   1.795   6.997
14830TIP3   OH244411   1.243   6.634   0.037
14830TIP3    H144412   1.331   6.613   0.008
14830TIP3    H244413   1.202   6.678  -0.037
14831TIP3   OH244414   0.704   6.018   0.209
14831TIP3    H144415   0.799   6.030   0.205
14831TIP3    H244416   0.689   5.931   0.174
14832TIP3   OH244417   0.598   6.600   0.671
14832TIP3    H144418   0.534   6.546   0.625
14832TIP3    H244419   0.649   6.538   0.723
14833TIP3   OH244420   0.749   6.427   0.825
14833TIP3    H144421   0.739   6.364   0.896
14833TIP3    H244422   0.801   6.498   0.863
14834TIP3   OH244423   1.989   6.835   0.282
14834TIP3    H144424   2.023   6.752   0.248
14834TIP3    H244425   2.055   6.900   0.259
14835TIP3   OH244426   0.996   6.866   1.218
14835TIP3    H144427   0.905   6.893   1.232
14835TIP3    H244428   1.045   6.907   1.290
14836TIP3   OH244429   1.207   6.791   1.066
14836TIP3    H144430   1.134   6.821   1.121
14836TIP3    H244431   1.201   6.844   0.987
14837TIP3   OH244432   0.916   6.618   0.960
14837TIP3    H144433   0.946   6.600   1.050
14837TIP3    H244434   0.981   6.574   0.904
14838TIP3   OH244435   1.086   6.473   0.805
14838TIP3    H144436   1.109   6.380   0.815
14838TIP3    H244437   1.168   6.516   0.782
14839TIP3   OH244438   1.354   6.568   0.775
14839TIP3    H144439   1.373   6.484   0.733
14839TIP3    H244440   1.345   6.547   0.868
14840TIP3   OH244441   0.684   6.410   0.372
14840TIP3    H144442   0.603   6.378   0.335
14840TIP3    H244443   0.691   6.500   0.341
14841TIP3   OH244444   7.430   2.365   7.233
14841TIP3    H144445   7.511   2.393   7.190
14841TIP3    H244446   7.398   2.293   7.179
14842TIP3   OH244447   2.204   6.676   0.060
14842TIP3    H144448   2.162   6.590   0.049
14842TIP3    H244449   2.163   6.731  -0.006
14843TIP3   OH244450   0.805   6.400   0.025
14843TIP3    H144451   0.807   6.408   0.121
14843TIP3    H244452   0.886   6.354   0.003
14844TIP3   OH244453   0.050   2.580   6.684
14844TIP3    H144454   0.106   2.605   6.758
14844TIP3    H244455   0.037   2.662   6.636
14845TIP3   OH244456   8.463   2.449   7.071
14845TIP3    H144457   8.369   2.447   7.053
14845TIP3    H244458   8.471   2.510   7.145
14846TIP3   OH244459   8.508   2.463   6.797
14846TIP3    H144460   8.504   2.463   6.893
14846TIP3    H244461   8.593   2.424   6.777
14847TIP3   OH244462   5.330   7.488   0.921
14847TIP3    H144463   5.388   7.562   0.900
14847TIP3    H244464   5.353   7.421   0.855
14848TIP3   OH244465   4.749   7.504   1.088
14848TIP3    H144466   4.782   7.501   0.998
14848TIP3    H244467   4.817   7.551   1.137
14849TIP3   OH244468   5.422   7.746   0.872
14849TIP3    H144469   5.472   7.825   0.850
14849TIP3    H244470   5.350   7.777   0.926
14850TIP3   OH244471   5.064   7.513   0.925
14850TIP3    H144472   5.156   7.496   0.947
14850TIP3    H244473   5.045   7.451   0.855
14851TIP3   OH244474   5.270   6.939   1.105
14851TIP3    H144475   5.306   6.867   1.053
14851TIP3    H244476   5.324   7.015   1.082
14852TIP3   OH244477   5.414   7.743   1.207
14852TIP3    H144478   5.415   7.648   1.209
14852TIP3    H244479   5.359   7.766   1.132
14853TIP3   OH244480   6.848   7.310   1.182
14853TIP3    H144481   6.819   7.394   1.216
14853TIP3    H244482   6.798   7.298   1.101
14854TIP3   OH244483   7.007   7.599   1.324
14854TIP3    H144484   7.047   7.577   1.408
14854TIP3    H244485   7.054   7.545   1.261
14855TIP3   OH244486   6.815   8.092   1.241
14855TIP3    H144487   6.841   8.001   1.235
14855TIP3    H244488   6.847   8.121   1.327
14856TIP3   OH244489   7.037   6.787   1.256
14856TIP3    H144490   7.087   6.705   1.255
14856TIP3    H244491   7.004   6.796   1.167
14857TIP3   OH244492   6.831   7.515   0.969
14857TIP3    H144493   6.787   7.482   0.890
14857TIP3    H244494   6.764   7.565   1.014
14858TIP3   OH244495   5.727   7.340   1.231
14858TIP3    H144496   5.660   7.273   1.244
14858TIP3    H244497   5.686   7.404   1.173
14859TIP3   OH244498   7.215   7.819   1.421
14859TIP3    H144499   7.135   7.822   1.473
14859TIP3    H244500   7.188   7.849   1.334
14860TIP3   OH244501   6.834   7.874   1.029
14860TIP3    H144502   6.903   7.809   1.014
14860TIP3    H244503   6.877   7.958   1.012
14861TIP3   OH244504   7.032   7.693   0.987
14861TIP3    H144505   6.967   7.625   0.972
14861TIP3    H244506   7.116   7.647   0.983
14862TIP3   OH244507   6.682   7.245   0.969
14862TIP3    H144508   6.610   7.239   1.032
14862TIP3    H244509   6.661   7.179   0.903
14863TIP3   OH244510   6.690   6.875   0.640
14863TIP3    H144511   6.757   6.910   0.698
14863TIP3    H244512   6.737   6.819   0.578
14864TIP3   OH244513   7.461   7.338   1.439
14864TIP3    H144514   7.448   7.409   1.501
14864TIP3    H244515   7.456   7.379   1.353
14865TIP3   OH244516   7.058   7.258   0.966
14865TIP3    H144517   7.024   7.308   1.040
14865TIP3    H244518   7.137   7.216   1.000
14866TIP3   OH244519   6.865   7.005   0.798
14866TIP3    H144520   6.853   7.100   0.787
14866TIP3    H244521   6.949   6.987   0.757
14867TIP3   OH244522   6.638   7.683   1.047
14867TIP3    H144523   6.693   7.761   1.047
14867TIP3    H244524   6.549   7.717   1.056
14868TIP3   OH244525   7.289   6.302   0.790
14868TIP3    H144526   7.219   6.331   0.848
14868TIP3    H244527   7.322   6.382   0.750
14869TIP3   OH244528   6.066   7.013   1.288
14869TIP3    H144529   6.025   6.935   1.250
14869TIP3    H244530   6.111   6.981   1.366
14870TIP3   OH244531   7.193   7.664   0.411
14870TIP3    H144532   7.189   7.756   0.388
14870TIP3    H244533   7.284   7.638   0.392
14871TIP3   OH244534   6.468   7.969   0.840
14871TIP3    H144535   6.441   7.957   0.749
14871TIP3    H244536   6.445   8.060   0.860
14872TIP3   OH244537   5.927   7.796   1.305
14872TIP3    H144538   6.019   7.817   1.317
14872TIP3    H244539   5.923   7.701   1.314
14873TIP3   OH244540   6.698   7.898   0.509
14873TIP3    H144541   6.752   7.827   0.473
14873TIP3    H244542   6.730   7.909   0.598
14874TIP3   OH244543   6.733   7.934   0.778
14874TIP3    H144544   6.642   7.942   0.806
14874TIP3    H244545   6.779   7.900   0.855
14875TIP3   OH244546   6.975   6.983   0.522
14875TIP3    H144547   6.912   7.000   0.452
14875TIP3    H244548   7.034   7.058   0.520
14876TIP3   OH244549   6.715   6.449   0.722
14876TIP3    H144550   6.658   6.525   0.732
14876TIP3    H244551   6.656   6.374   0.729
14877TIP3   OH244552   6.779   6.904   1.303
14877TIP3    H144553   6.722   6.981   1.302
14877TIP3    H244554   6.859   6.932   1.259
14878TIP3   OH244555   7.030   6.971   1.472
14878TIP3    H144556   6.943   7.010   1.476
14878TIP3    H244557   7.032   6.926   1.387
14879TIP3   OH244558   6.339   6.398   0.836
14879TIP3    H144559   6.285   6.404   0.915
14879TIP3    H244560   6.305   6.467   0.779
14880TIP3   OH244561   6.229   6.756   1.192
14880TIP3    H144562   6.299   6.692   1.199
14880TIP3    H244563   6.244   6.799   1.108
14881TIP3   OH244564   6.095   6.753   0.904
14881TIP3    H144565   6.022   6.692   0.902
14881TIP3    H244566   6.156   6.720   0.838
14882TIP3   OH244567   6.417   7.221   1.044
14882TIP3    H144568   6.390   7.130   1.029
14882TIP3    H244569   6.418   7.261   0.957
14883TIP3   OH244570   6.940   6.553   0.834
14883TIP3    H144571   6.852   6.525   0.808
14883TIP3    H244572   6.955   6.634   0.784
14884TIP3   OH244573   6.937   6.826   0.995
14884TIP3    H144574   7.019   6.798   0.954
14884TIP3    H244575   6.897   6.884   0.930
14885TIP3   OH244576   6.664   7.445   0.759
14885TIP3    H144577   6.623   7.532   0.751
14885TIP3    H244578   6.606   7.396   0.817
14886TIP3   OH244579   7.428   6.949   0.708
14886TIP3    H144580   7.363   6.898   0.659
14886TIP3    H244581   7.412   7.039   0.681
14887TIP3   OH244582   7.123   7.741   0.669
14887TIP3    H144583   7.097   7.662   0.716
14887TIP3    H244584   7.144   7.711   0.580
14888TIP3   OH244585   6.165   7.583   1.233
14888TIP3    H144586   6.196   7.668   1.264
14888TIP3    H244587   6.104   7.555   1.301
14889TIP3   OH244588   5.711   6.828   0.938
14889TIP3    H144589   5.747   6.906   0.896
14889TIP3    H244590   5.717   6.846   1.032
14890TIP3   OH244591   6.459   7.358   1.274
14890TIP3    H144592   6.457   7.454   1.264
14890TIP3    H244593   6.447   7.324   1.185
14891TIP3   OH244594   6.138   7.834   1.028
14891TIP3    H144595   6.069   7.872   1.083
14891TIP3    H244596   6.216   7.836   1.084
14892TIP3   OH244597   6.863   7.497   0.563
14892TIP3    H144598   6.939   7.499   0.622
14892TIP3    H244599   6.792   7.464   0.617
14893TIP3   OH244600   7.189   7.936   0.378
14893TIP3    H144601   7.195   7.993   0.301
14893TIP3    H244602   7.123   7.978   0.433
14894TIP3   OH244603   7.075   7.475   0.731
14894TIP3    H144604   7.027   7.396   0.755
14894TIP3    H244605   7.167   7.449   0.735
14895TIP3   OH244606   6.246   7.433   0.579
14895TIP3    H144607   6.282   7.355   0.538
14895TIP3    H244608   6.185   7.400   0.645
14896TIP3   OH244609   6.131   7.525   0.844
14896TIP3    H144610   6.182   7.457   0.889
14896TIP3    H244611   6.195   7.593   0.824
14897TIP3   OH244612   6.052   7.100   1.026
14897TIP3    H144613   6.045   7.080   1.120
14897TIP3    H244614   6.010   7.185   1.016
14898TIP3   OH244615   7.018   6.557   1.089
14898TIP3    H144616   6.984   6.561   0.999
14898TIP3    H244617   6.939   6.549   1.143
14899TIP3   OH244618   6.504   7.659   0.740
14899TIP3    H144619   6.425   7.691   0.783
14899TIP3    H244620   6.519   7.722   0.669
14900TIP3   OH244621   6.643   6.673   1.329
14900TIP3    H144622   6.682   6.760   1.334
14900TIP3    H244623   6.714   6.614   1.356
14901TIP3   OH244624   6.258   7.755   0.803
14901TIP3    H144625   6.227   7.820   0.740
14901TIP3    H244626   6.222   7.784   0.887
14902TIP3   OH244627   6.304   6.291   1.183
14902TIP3    H144628   6.295   6.382   1.156
14902TIP3    H244629   6.392   6.286   1.222
14903TIP3   OH244630   7.264   7.166   1.356
14903TIP3    H144631   7.184   7.181   1.407
14903TIP3    H244632   7.331   7.216   1.401
14904TIP3   OH244633   5.899   7.324   0.955
14904TIP3    H144634   5.912   7.407   1.001
14904TIP3    H244635   5.959   7.328   0.881
14905TIP3   OH244636   5.889   6.565   0.956
14905TIP3    H144637   5.821   6.632   0.964
14905TIP3    H244638   5.857   6.492   1.009
14906TIP3   OH244639   7.195   8.148   1.351
14906TIP3    H144640   7.136   8.174   1.280
14906TIP3    H244641   7.282   8.149   1.312
14907TIP3   OH244642   5.671   7.632   1.313
14907TIP3    H144643   5.581   7.660   1.329
14907TIP3    H244644   5.695   7.675   1.231
14908TIP3   OH244645   6.389   7.644   0.467
14908TIP3    H144646   6.350   7.571   0.516
14908TIP3    H244647   6.462   7.605   0.419
14909TIP3   OH244648   6.822   7.693   0.385
14909TIP3    H144649   6.855   7.627   0.447
14909TIP3    H244650   6.879   7.684   0.309
14910TIP3   OH244651   6.036   7.082   0.533
14910TIP3    H144652   6.057   7.028   0.610
14910TIP3    H244653   6.121   7.097   0.491
14911TIP3   OH244654   6.559   7.346   0.515
14911TIP3    H144655   6.593   7.358   0.603
14911TIP3    H244656   6.569   7.252   0.498
14912TIP3   OH244657   6.296   6.972   1.014
14912TIP3    H144658   6.208   7.010   1.005
14912TIP3    H244659   6.310   6.926   0.931
14913TIP3   OH244660   6.353   6.888   0.754
14913TIP3    H144661   6.341   6.872   0.660
14913TIP3    H244662   6.415   6.961   0.757
14914TIP3   OH244663   7.148   7.179   0.431
14914TIP3    H144664   7.135   7.138   0.346
14914TIP3    H244665   7.119   7.269   0.419
14915TIP3   OH244666   6.181   7.955   0.634
14915TIP3    H144667   6.272   7.943   0.608
14915TIP3    H244668   6.140   8.000   0.560
14916TIP3   OH244669   5.640   7.309   0.860
14916TIP3    H144670   5.726   7.313   0.902
14916TIP3    H244671   5.656   7.266   0.777
14917TIP3   OH244672   7.457   8.179   1.292
14917TIP3    H144673   7.480   8.238   1.363
14917TIP3    H244674   7.514   8.205   1.220
14918TIP3   OH244675   7.524   8.215   1.584
14918TIP3    H144676   7.471   8.136   1.576
14918TIP3    H244677   7.614   8.184   1.579
14919TIP3   OH244678   7.335   7.404   0.765
14919TIP3    H144679   7.392   7.473   0.730
14919TIP3    H244680   7.394   7.344   0.810
14920TIP3   OH244681   7.490   7.224   0.893
14920TIP3    H144682   7.426   7.190   0.957
14920TIP3    H244683   7.554   7.271   0.946
14921TIP3   OH244684   7.570   7.712   1.468
14921TIP3    H144685   7.614   7.652   1.408
14921TIP3    H244686   7.521   7.771   1.410
14922TIP3   OH244687   7.347   8.015   1.543
14922TIP3    H144688   7.287   8.078   1.503
14922TIP3    H244689   7.332   7.934   1.496
14923TIP3   OH244690   7.369   7.188   0.590
14923TIP3    H144691   7.293   7.175   0.533
14923TIP3    H244692   7.346   7.264   0.643
14924TIP3   OH244693   7.259   6.825   0.534
14924TIP3    H144694   7.184   6.873   0.499
14924TIP3    H244695   7.245   6.734   0.508
14925TIP3   OH244696   7.274   7.129   1.066
14925TIP3    H144697   7.279   7.036   1.088
14925TIP3    H244698   7.261   7.173   1.150
14926TIP3   OH244699   7.211   6.555   0.480
14926TIP3    H144700   7.273   6.533   0.549
14926TIP3    H244701   7.127   6.524   0.513
14927TIP3   OH244702   7.248   6.794   0.951
14927TIP3    H144703   7.251   6.700   0.969
14927TIP3    H244704   7.338   6.823   0.961
14928TIP3   OH244705   7.301   6.534   1.040
14928TIP3    H144706   7.275   6.572   1.124
14928TIP3    H244707   7.258   6.449   1.037
14929TIP3   OH244708   7.419   6.500   0.650
14929TIP3    H144709   7.473   6.436   0.604
14929TIP3    H244710   7.477   6.576   0.662
14930TIP3   OH244711   6.986   8.081   0.946
14930TIP3    H144712   7.043   8.059   0.873
14930TIP3    H244713   7.043   8.124   1.010
14931TIP3   OH244714   6.905   8.149   1.490
14931TIP3    H144715   6.851   8.121   1.564
14931TIP3    H244716   6.970   8.208   1.529
14932TIP3   OH244717   7.122   8.322   1.546
14932TIP3    H144718   7.106   8.404   1.500
14932TIP3    H244719   7.145   8.260   1.476
14933TIP3   OH244720   7.516   6.506   1.265
14933TIP3    H144721   7.461   6.444   1.218
14933TIP3    H244722   7.495   6.591   1.226
14934TIP3   OH244723   7.121   6.317   1.008
14934TIP3    H144724   7.078   6.401   1.028
14934TIP3    H244725   7.055   6.251   1.030
14935TIP3   OH244726   5.676   7.758   1.064
14935TIP3    H144727   5.648   7.668   1.050
14935TIP3    H244728   5.664   7.800   0.979
14936TIP3   OH244729   6.038   6.273   1.252
14936TIP3    H144730   6.000   6.267   1.164
14936TIP3    H244731   6.132   6.264   1.238
14937TIP3   OH244732   6.580   6.300   1.202
14937TIP3    H144733   6.648   6.346   1.252
14937TIP3    H244734   6.577   6.346   1.119
14938TIP3   OH244735   6.435   7.893   0.571
14938TIP3    H144736   6.522   7.913   0.538
14938TIP3    H244737   6.409   7.814   0.523
14939TIP3   OH244738   7.144   8.005   0.732
14939TIP3    H144739   7.140   7.910   0.721
14939TIP3    H244740   7.104   8.040   0.653
14940TIP3   OH244741   5.811   7.758   0.585
14940TIP3    H144742   5.827   7.777   0.678
14940TIP3    H244743   5.892   7.717   0.555
14941TIP3   OH244744   8.639   7.531   0.660
14941TIP3    H144745   8.610   7.619   0.633
14941TIP3    H244746   8.567   7.473   0.635
14942TIP3   OH244747   8.633   7.523   1.078
14942TIP3    H144748   8.691   7.505   1.152
14942TIP3    H244749   8.594   7.438   1.057
14943TIP3   OH244750   7.979   7.430   1.415
14943TIP3    H144751   7.961   7.339   1.441
14943TIP3    H244752   8.054   7.423   1.356
14944TIP3   OH244753   0.002   7.832   0.753
14944TIP3    H144754  -0.006   7.764   0.820
14944TIP3    H244755   0.024   7.911   0.802
14945TIP3   OH244756   7.945   7.817   1.124
14945TIP3    H144757   7.927   7.723   1.121
14945TIP3    H244758   8.039   7.824   1.108
14946TIP3   OH244759   7.701   7.079   0.773
14946TIP3    H144760   7.632   7.132   0.811
14946TIP3    H244761   7.661   7.037   0.697
14947TIP3   OH244762   7.696   7.366   1.011
14947TIP3    H144763   7.764   7.308   1.046
14947TIP3    H244764   7.742   7.447   0.991
14948TIP3   OH244765   8.568   8.268   0.769
14948TIP3    H144766   8.591   8.206   0.700
14948TIP3    H244767   8.572   8.216   0.850
14949TIP3   OH244768   8.447   7.741   1.091
14949TIP3    H144769   8.492   7.661   1.064
14949TIP3    H244770   8.517   7.799   1.122
14950TIP3   OH244771   0.559   7.059   1.086
14950TIP3    H144772   0.572   7.144   1.128
14950TIP3    H244773   0.597   7.069   0.999
14951TIP3   OH244774   8.854   7.228   1.120
14951TIP3    H144775   8.888   7.143   1.148
14951TIP3    H244776   8.813   7.211   1.035
14952TIP3   OH244777   8.263   6.939   1.085
14952TIP3    H144778   8.209   6.974   1.014
14952TIP3    H244779   8.251   6.845   1.080
14953TIP3   OH244780   0.005   6.995   0.719
14953TIP3    H144781   0.067   6.988   0.791
14953TIP3    H244782   0.057   7.029   0.645
14954TIP3   OH244783   7.908   7.196   1.110
14954TIP3    H144784   7.983   7.168   1.162
14954TIP3    H244785   7.872   7.115   1.074
14955TIP3   OH244786   8.259   7.302   1.006
14955TIP3    H144787   8.353   7.286   1.013
14955TIP3    H244788   8.223   7.218   0.976
14956TIP3   OH244789   0.604   7.270   1.261
14956TIP3    H144790   0.524   7.321   1.249
14956TIP3    H244791   0.647   7.309   1.337
14957TIP3   OH244792   8.263   6.909   1.554
14957TIP3    H144793   8.178   6.952   1.552
14957TIP3    H244794   8.246   6.826   1.601
14958TIP3   OH244795   8.540   7.750   0.518
14958TIP3    H144796   8.498   7.717   0.439
14958TIP3    H244797   8.486   7.824   0.545
14959TIP3   OH244798   8.284   7.670   1.305
14959TIP3    H144799   8.227   7.741   1.335
14959TIP3    H244800   8.334   7.708   1.232
14960TIP3   OH244801   0.160   7.015   0.942
14960TIP3    H144802   0.122   6.991   1.026
14960TIP3    H244803   0.216   7.090   0.961
14961TIP3   OH244804   8.096   7.063   1.269
14961TIP3    H144805   8.149   7.100   1.339
14961TIP3    H244806   8.158   7.016   1.214
14962TIP3   OH244807   8.123   7.879   1.403
14962TIP3    H144808   8.109   7.967   1.367
14962TIP3    H244809   8.038   7.854   1.440
14963TIP3   OH244810   7.505   7.586   0.650
14963TIP3    H144811   7.474   7.606   0.562
14963TIP3    H244812   7.526   7.672   0.688
14964TIP3   OH244813   0.033   8.076   0.894
14964TIP3    H144814  -0.054   8.070   0.933
14964TIP3    H244815   0.034   8.161   0.849
14965TIP3   OH244816   0.363   6.954   1.263
14965TIP3    H144817   0.275   6.970   1.229
14965TIP3    H244818   0.421   6.979   1.191
14966TIP3   OH244819   8.581   6.604   1.269
14966TIP3    H144820   8.561   6.516   1.238
14966TIP3    H244821   8.502   6.632   1.315
14967TIP3   OH244822   8.649   8.112   0.553
14967TIP3    H144823   8.700   8.031   0.543
14967TIP3    H244824   8.708   8.181   0.524
14968TIP3   OH244825   8.789   7.881   0.506
14968TIP3    H144826   8.715   7.820   0.505
14968TIP3    H244827   8.838   7.858   0.584
14969TIP3   OH244828   0.270   7.971   1.234
14969TIP3    H144829   0.256   7.895   1.178
14969TIP3    H244830   0.259   8.046   1.175
14970TIP3   OH244831   8.465   7.370   0.511
14970TIP3    H144832   8.381   7.411   0.491
14970TIP3    H244833   8.511   7.368   0.427
14971TIP3   OH244834   8.433   7.176   0.198
14971TIP3    H144835   8.499   7.224   0.248
14971TIP3    H244836   8.483   7.107   0.153
14972TIP3   OH244837   0.453   7.626   1.115
14972TIP3    H144838   0.370   7.674   1.111
14972TIP3    H244839   0.492   7.639   1.029
14973TIP3   OH244840   8.822   7.454   0.473
14973TIP3    H144841   8.769   7.484   0.547
14973TIP3    H244842   8.906   7.430   0.512
14974TIP3   OH244843   0.146   7.487   1.419
14974TIP3    H144844   0.144   7.574   1.460
14974TIP3    H244845   0.068   7.483   1.365
14975TIP3   OH244846   8.054   7.429   0.861
14975TIP3    H144847   8.011   7.364   0.805
14975TIP3    H244848   8.127   7.381   0.901
14976TIP3   OH244849   8.200   7.865   1.016
14976TIP3    H144850   8.175   7.846   0.925
14976TIP3    H244851   8.285   7.823   1.026
14977TIP3   OH244852   8.189   7.417   1.246
14977TIP3    H144853   8.215   7.387   1.159
14977TIP3    H244854   8.226   7.505   1.253
14978TIP3   OH244855   8.695   8.074   1.026
14978TIP3    H144856   8.684   8.153   1.078
14978TIP3    H244857   8.682   8.002   1.088
14979TIP3   OH244858   8.322   7.967   1.575
14979TIP3    H144859   8.260   8.027   1.617
14979TIP3    H244860   8.268   7.914   1.516
14980TIP3   OH244861   8.653   7.318   0.303
14980TIP3    H144862   8.713   7.374   0.352
14980TIP3    H244863   8.683   7.322   0.213
14981TIP3   OH244864   8.031   7.601   1.622
14981TIP3    H144865   8.024   7.551   1.541
14981TIP3    H244866   7.941   7.616   1.650
14982TIP3   OH244867   8.401   7.987   0.559
14982TIP3    H144868   8.482   8.038   0.566
14982TIP3    H244869   8.341   8.042   0.510
14983TIP3   OH244870   8.120   8.147   1.637
14983TIP3    H144871   8.113   8.157   1.542
14983TIP3    H244872   8.029   8.155   1.668
14984TIP3   OH244873   0.263   6.542   0.357
14984TIP3    H144874   0.188   6.563   0.413
14984TIP3    H244875   0.274   6.619   0.301
14985TIP3   OH244876   7.903   7.264   0.687
14985TIP3    H144877   7.838   7.324   0.649
14985TIP3    H244878   7.851   7.189   0.717
14986TIP3   OH244879   6.013   3.737   7.078
14986TIP3    H144880   5.942   3.800   7.092
14986TIP3    H244881   5.999   3.704   6.989
14987TIP3   OH244882   7.755   7.630   1.650
14987TIP3    H144883   7.687   7.654   1.587
14987TIP3    H244884   7.707   7.614   1.731
14988TIP3   OH244885   7.522   7.905   1.267
14988TIP3    H144886   7.616   7.916   1.281
14988TIP3    H244887   7.485   7.991   1.288
14989TIP3   OH244888   0.493   8.323   1.307
14989TIP3    H144889   0.505   8.230   1.329
14989TIP3    H244890   0.416   8.350   1.357
14990TIP3   OH244891   8.510   8.114   1.436
14990TIP3    H144892   8.498   8.204   1.466
14990TIP3    H244893   8.444   8.064   1.485
14991TIP3   OH244894   8.291   8.204   0.385
14991TIP3    H144895   8.248   8.180   0.303
14991TIP3    H244896   8.251   8.288   0.409
14992TIP3   OH244897   7.727   8.067   0.765
14992TIP3    H144898   7.775   8.055   0.848
14992TIP3    H244899   7.676   7.986   0.755
14993TIP3   OH244900   8.490   8.149   0.017
14993TIP3    H144901   8.540   8.074  -0.015
14993TIP3    H244902   8.525   8.165   0.105
14994TIP3   OH244903   8.547   8.190   0.287
14994TIP3    H144904   8.460   8.191   0.326
14994TIP3    H244905   8.604   8.158   0.356
14995TIP3   OH244906   0.390   7.455   1.577
14995TIP3    H144907   0.303   7.471   1.539
14995TIP3    H244908   0.406   7.362   1.562
14996TIP3   OH244909   7.879   7.890   1.558
14996TIP3    H144910   7.931   7.875   1.636
14996TIP3    H244911   7.816   7.817   1.557
14997TIP3   OH244912   8.347   6.701   1.386
14997TIP3    H144913   8.257   6.671   1.394
14997TIP3    H244914   8.349   6.785   1.431
14998TIP3   OH244915   8.848   6.822   1.600
14998TIP3    H144916   8.925   6.801   1.653
14998TIP3    H244917   8.774   6.798   1.656
14999TIP3   OH244918   0.148   7.223   1.516
14999TIP3    H144919   0.115   7.217   1.605
14999TIP3    H244920   0.135   7.315   1.491
15000TIP3   OH244921   8.731   7.298   0.041
15000TIP3    H144922   8.687   7.300  -0.043
15000TIP3    H244923   8.816   7.340   0.025
15001TIP3   OH244924   8.443   6.723   0.357
15001TIP3    H144925   8.407   6.726   0.446
15001TIP3    H244926   8.406   6.643   0.319
15002TIP3   OH244927   8.263   7.223   1.427
15002TIP3    H144928   8.252   7.264   1.512
15002TIP3    H244929   8.241   7.292   1.364
15003TIP3   OH244930   8.116   7.085   0.906
15003TIP3    H144931   8.024   7.082   0.932
15003TIP3    H244932   8.117   7.046   0.818
15004TIP3   OH244933   8.591   7.167   0.646
15004TIP3    H144934   8.544   7.240   0.605
15004TIP3    H244935   8.649   7.134   0.577
15005TIP3   OH244936   8.783   7.416   1.723
15005TIP3    H144937   8.757   7.409   1.815
15005TIP3    H244938   8.875   7.441   1.726
15006TIP3   OH244939   8.753   7.175   0.871
15006TIP3    H144940   8.687   7.196   0.805
15006TIP3    H244941   8.803   7.103   0.833
15007TIP3   OH244942   8.110   6.700   0.337
15007TIP3    H144943   8.101   6.702   0.432
15007TIP3    H244944   8.032   6.744   0.304
15008TIP3   OH244945   7.788   6.724   1.147
15008TIP3    H144946   7.810   6.815   1.129
15008TIP3    H244947   7.724   6.700   1.080
15009TIP3   OH244948   7.584   6.727   0.650
15009TIP3    H144949   7.626   6.753   0.568
15009TIP3    H244950   7.524   6.800   0.670
15010TIP3   OH244951   8.804   7.436   1.285
15010TIP3    H144952   8.829   7.368   1.223
15010TIP3    H244953   8.761   7.389   1.357
15011TIP3   OH244954   8.510   6.892   0.962
15011TIP3    H144955   8.436   6.914   1.019
15011TIP3    H244956   8.582   6.875   1.022
15012TIP3   OH244957   7.859   6.963   0.969
15012TIP3    H144958   7.807   6.990   0.893
15012TIP3    H244959   7.909   6.887   0.938
15013TIP3   OH244960   8.126   6.960   0.664
15013TIP3    H144961   8.220   6.979   0.653
15013TIP3    H244962   8.087   6.984   0.579
15014TIP3   OH244963   8.929   6.969   1.187
15014TIP3    H144964   8.902   6.991   1.276
15014TIP3    H244965   8.863   6.906   1.156
15015TIP3   OH244966   8.008   6.992   0.420
15015TIP3    H144967   7.946   6.941   0.368
15015TIP3    H244968   8.063   7.037   0.356
15016TIP3   OH244969   3.169   0.275   1.407
15016TIP3    H144970   3.169   0.299   1.315
15016TIP3    H244971   3.246   0.318   1.444
15017TIP3   OH244972   8.530   7.255   1.061
15017TIP3    H144973   8.593   7.204   1.010
15017TIP3    H244974   8.528   7.212   1.146
15018TIP3   OH244975   8.015   6.747   0.899
15018TIP3    H144976   8.046   6.695   0.974
15018TIP3    H244977   8.063   6.712   0.824
15019TIP3   OH244978   8.512   7.161   1.324
15019TIP3    H144979   8.425   7.176   1.359
15019TIP3    H244980   8.570   7.212   1.381
15020TIP3   OH244981   8.224   7.497   0.453
15020TIP3    H144982   8.149   7.441   0.432
15020TIP3    H244983   8.199   7.542   0.534
15021TIP3   OH244984   0.219   7.763   1.059
15021TIP3    H144985   0.257   7.810   0.985
15021TIP3    H244986   0.140   7.722   1.024
15022TIP3   OH244987   8.695   6.825   0.356
15022TIP3    H144988   8.602   6.803   0.356
15022TIP3    H244989   8.697   6.920   0.371
15023TIP3   OH244990   8.639   7.843   1.472
15023TIP3    H144991   8.678   7.817   1.555
15023TIP3    H244992   8.600   7.929   1.490
15024TIP3   OH244993   8.754   7.088   0.431
15024TIP3    H144994   8.849   7.091   0.442
15024TIP3    H244995   8.733   7.165   0.379
15025TIP3   OH244996   7.940   7.540   1.084
15025TIP3    H144997   7.981   7.512   1.002
15025TIP3    H244998   7.964   7.471   1.147
15026TIP3   OH244999   8.380   7.662   0.302
15026TIP3    H145000   8.333   7.745   0.299
15026TIP3    H245001   8.324   7.604   0.353
15027TIP3   OH245002   8.574   7.612   1.705
15027TIP3    H145003   8.520   7.584   1.631
15027TIP3    H245004   8.651   7.555   1.702
15028TIP3   OH245005   8.778   8.143   1.360
15028TIP3    H145006   8.684   8.125   1.369
15028TIP3    H245007   8.803   8.177   1.446
15029TIP3   OH245008   0.267   7.171   0.249
15029TIP3    H145009   0.208   7.126   0.188
15029TIP3    H245010   0.276   7.259   0.213
15030TIP3   OH245011   0.516   8.031   1.335
15030TIP3    H145012   0.421   8.026   1.322
15030TIP3    H245013   0.554   8.010   1.250
15031TIP3   OH245014   0.019   7.973   0.190
15031TIP3    H145015  -0.012   7.936   0.273
15031TIP3    H245016   0.017   7.899   0.129
15032TIP3   OH245017   8.891   7.628   0.953
15032TIP3    H145018   8.800   7.609   0.977
15032TIP3    H245019   8.924   7.546   0.918
15033TIP3   OH245020   8.047   7.861   0.777
15033TIP3    H145021   8.043   7.936   0.717
15033TIP3    H245022   7.959   7.856   0.814
15034TIP3   OH245023   7.616   7.156   0.477
15034TIP3    H145024   7.660   7.237   0.501
15034TIP3    H245025   7.527   7.166   0.513
15035TIP3   OH245026   8.127   7.619   0.672
15035TIP3    H145027   8.111   7.707   0.707
15035TIP3    H245028   8.103   7.560   0.743
15036TIP3   OH245029   8.334   8.187   1.221
15036TIP3    H145030   8.371   8.259   1.170
15036TIP3    H245031   8.408   8.153   1.272
15037TIP3   OH245032   7.963   8.082   0.624
15037TIP3    H145033   7.875   8.088   0.661
15037TIP3    H245034   7.995   8.172   0.626
15038TIP3   OH245035   8.679   7.853   1.200
15038TIP3    H145036   8.664   7.848   1.295
15038TIP3    H245037   8.762   7.808   1.187
15039TIP3   OH245038   8.668   7.724   0.073
15039TIP3    H145039   8.717   7.696   0.151
15039TIP3    H245040   8.583   7.680   0.081
15040TIP3   OH245041   8.933   8.341   1.234
15040TIP3    H145042   8.863   8.280   1.258
15040TIP3    H245043   8.895   8.395   1.165
15041TIP3   OH245044   6.137   3.987   7.163
15041TIP3    H145045   6.177   4.071   7.140
15041TIP3    H245046   6.057   4.010   7.210
15042TIP3   OH245047   8.843   7.638   0.264
15042TIP3    H145048   8.822   7.586   0.342
15042TIP3    H245049   8.939   7.639   0.261
15043TIP3   OH245050   7.750   8.077   1.376
15043TIP3    H145051   7.804   8.021   1.433
15043TIP3    H245052   7.773   8.166   1.402
15044TIP3   OH245053   8.025   7.689   0.087
15044TIP3    H145054   8.034   7.597   0.061
15044TIP3    H245055   8.011   7.685   0.181
15045TIP3   OH245056   7.968   7.708   0.358
15045TIP3    H145057   8.028   7.682   0.429
15045TIP3    H245058   7.966   7.804   0.362
15046TIP3   OH245059   7.701   7.408   0.565
15046TIP3    H145060   7.636   7.458   0.614
15046TIP3    H245061   7.722   7.463   0.490
15047TIP3   OH245062   8.852   7.046   1.440
15047TIP3    H145063   8.932   7.090   1.469
15047TIP3    H245064   8.845   6.969   1.496
15048TIP3   OH245065   8.766   6.777   0.621
15048TIP3    H145066   8.744   6.796   0.529
15048TIP3    H245067   8.806   6.857   0.653
15049TIP3   OH245068   8.237   7.892   0.294
15049TIP3    H145069   8.153   7.915   0.332
15049TIP3    H245070   8.259   7.965   0.236
15050TIP3   OH245071   8.408   6.974   0.716
15050TIP3    H145072   8.466   7.044   0.687
15050TIP3    H245073   8.438   6.953   0.804
15051TIP3   OH245074   8.701   7.282   1.487
15051TIP3    H145075   8.725   7.320   1.572
15051TIP3    H245076   8.749   7.199   1.483
15052TIP3   OH245077   8.580   6.678   0.794
15052TIP3    H145078   8.564   6.754   0.850
15052TIP3    H245079   8.650   6.706   0.734
15053TIP3   OH245080   7.988   7.980   0.371
15053TIP3    H145081   7.966   8.052   0.312
15053TIP3    H245082   7.977   8.018   0.459
15054TIP3   OH245083   8.087   6.690   0.618
15054TIP3    H145084   8.077   6.783   0.636
15054TIP3    H245085   8.181   6.675   0.620
15055TIP3   OH245086   0.415   7.191   1.489
15055TIP3    H145087   0.320   7.184   1.496
15055TIP3    H245088   0.435   7.173   1.397
15056TIP3   OH245089   0.078   7.368   0.870
15056TIP3    H145090   0.001   7.312   0.883
15056TIP3    H245091   0.146   7.329   0.926
15057TIP3   OH245092   7.723   7.577   0.346
15057TIP3    H145093   7.795   7.641   0.354
15057TIP3    H245094   7.755   7.513   0.282
15058TIP3   OH245095   7.637   6.882   0.431
15058TIP3    H145096   7.648   6.976   0.448
15058TIP3    H245097   7.561   6.877   0.373
15059TIP3   OH245098   0.064   8.342   0.813
15059TIP3    H145099   0.024   8.393   0.743
15059TIP3    H245100   0.158   8.352   0.800
15060TIP3   OH245101   8.079   6.639   1.385
15060TIP3    H145102   8.051   6.627   1.294
15060TIP3    H245103   8.069   6.552   1.425
15061TIP3   OH245104   7.550   7.849   0.740
15061TIP3    H145105   7.508   7.884   0.819
15061TIP3    H245106   7.504   7.891   0.668
15062TIP3   OH245107   8.209   8.338   1.822
15062TIP3    H145108   8.304   8.340   1.832
15062TIP3    H245109   8.192   8.267   1.759
15063TIP3   OH245110   5.208   3.696   7.242
15063TIP3    H145111   5.160   3.627   7.288
15063TIP3    H245112   5.280   3.651   7.199
15064TIP3   OH245113   8.841   8.234   1.612
15064TIP3    H145114   8.852   8.162   1.674
15064TIP3    H245115   8.919   8.288   1.624
15065TIP3   OH245116   5.647   3.736   7.173
15065TIP3    H145117   5.676   3.667   7.232
15065TIP3    H245118   5.690   3.718   7.090
15066TIP3   OH245119   7.846   7.382   0.201
15066TIP3    H145120   7.896   7.356   0.278
15066TIP3    H245121   7.913   7.395   0.133
15067TIP3   OH245122   8.511   7.875   1.758
15067TIP3    H145123   8.443   7.887   1.692
15067TIP3    H245124   8.535   7.783   1.751
15068TIP3   OH245125   8.414   7.605   0.036
15068TIP3    H145126   8.390   7.615   0.128
15068TIP3    H245127   8.395   7.513   0.016
15069TIP3   OH245128   0.041   7.915   1.372
15069TIP3    H145129   0.120   7.946   1.328
15069TIP3    H245130  -0.021   7.988   1.363
15070TIP3   OH245131   8.014   7.318   0.418
15070TIP3    H145132   7.989   7.280   0.502
15070TIP3    H245133   8.064   7.249   0.374
15071TIP3   OH245134   8.237   7.408   1.635
15071TIP3    H145135   8.178   7.482   1.647
15071TIP3    H245136   8.316   7.446   1.597
15072TIP3   OH245137   8.162   7.147   0.254
15072TIP3    H145138   8.132   7.150   0.163
15072TIP3    H245139   8.257   7.154   0.248
15073TIP3   OH245140   8.859   7.785   1.721
15073TIP3    H145141   8.923   7.766   1.651
15073TIP3    H245142   8.884   7.726   1.792
15074TIP3   OH245143   5.987   3.227   7.200
15074TIP3    H145144   5.977   3.189   7.113
15074TIP3    H245145   5.962   3.319   7.189
15075TIP3   OH245146   8.527   6.958   1.529
15075TIP3    H145147   8.547   7.008   1.450
15075TIP3    H245148   8.432   6.959   1.534
15076TIP3   OH245149   8.442   7.524   1.480
15076TIP3    H145150   8.517   7.502   1.425
15076TIP3    H245151   8.387   7.580   1.424
15077TIP3   OH245152   0.144   7.485   1.773
15077TIP3    H145153   0.215   7.422   1.790
15077TIP3    H245154   0.185   7.570   1.788
15078TIP3   OH245155   0.168   7.740   1.532
15078TIP3    H145156   0.116   7.800   1.478
15078TIP3    H245157   0.259   7.758   1.508
15079TIP3   OH245158   8.594   6.761   1.707
15079TIP3    H145159   8.571   6.833   1.648
15079TIP3    H245160   8.550   6.685   1.670
15080TIP3   OH245161   0.042   7.139   1.752
15080TIP3    H145162  -0.049   7.145   1.782
15080TIP3    H245163   0.072   7.055   1.786
15081TIP3   OH245164   7.982   8.191   0.191
15081TIP3    H145165   8.071   8.171   0.163
15081TIP3    H245166   7.943   8.235   0.116
15082TIP3   OH245167   7.451   7.575   0.361
15082TIP3    H145168   7.546   7.585   0.357
15082TIP3    H245169   7.434   7.489   0.324
15083TIP3   OH245170   7.356   8.153   0.819
15083TIP3    H145171   7.287   8.102   0.777
15083TIP3    H245172   7.397   8.092   0.880
15084TIP3   OH245173   7.493   7.984   0.988
15084TIP3    H145174   7.470   7.927   1.061
15084TIP3    H245175   7.553   8.048   1.026
15085TIP3   OH245176   3.303  -0.002   0.803
15085TIP3    H145177   3.321   0.021   0.894
15085TIP3    H245178   3.357   0.058   0.752
15086TIP3   OH245179   0.350   8.421   1.082
15086TIP3    H145180   0.302   8.338   1.076
15086TIP3    H245181   0.419   8.404   1.147
15087TIP3   OH245182   0.378   8.100   1.650
15087TIP3    H145183   0.308   8.119   1.713
15087TIP3    H245184   0.424   8.184   1.639
15088TIP3   OH245185   0.219   7.622   0.274
15088TIP3    H145186   0.280   7.689   0.243
15088TIP3    H245187   0.263   7.582   0.349
15089TIP3   OH245188   0.359   7.491   0.472
15089TIP3    H145189   0.293   7.455   0.531
15089TIP3    H245190   0.423   7.531   0.530
15090TIP3   OH245191   0.400   7.899   0.896
15090TIP3    H145192   0.454   7.830   0.857
15090TIP3    H245193   0.407   7.972   0.835
15091TIP3   OH245194   0.205   8.188   1.082
15091TIP3    H145195   0.139   8.232   1.135
15091TIP3    H245196   0.155   8.146   1.012
15092TIP3   OH245197   0.264   7.407   0.110
15092TIP3    H145198   0.192   7.405   0.047
15092TIP3    H245199   0.245   7.482   0.166
15093TIP3   OH245200   0.108   7.064   0.055
15093TIP3    H145201   0.065   7.098  -0.024
15093TIP3    H245202   0.101   6.969   0.046
15094TIP3   OH245203   0.150   7.357   0.603
15094TIP3    H145204   0.155   7.263   0.589
15094TIP3    H245205   0.130   7.366   0.696
15095TIP3   OH245206   7.732   7.545   1.335
15095TIP3    H145207   7.712   7.455   1.309
15095TIP3    H245208   7.826   7.545   1.351
15096TIP3   OH245209   0.429   7.790   1.469
15096TIP3    H145210   0.494   7.724   1.445
15096TIP3    H245211   0.455   7.868   1.419
15097TIP3   OH245212   0.598   7.578   1.449
15097TIP3    H145213   0.524   7.539   1.496
15097TIP3    H245214   0.670   7.518   1.464
15098TIP3   OH245215   0.073   6.794   0.022
15098TIP3    H145216   0.141   6.765   0.083
15098TIP3    H245217  -0.007   6.751   0.053
15099TIP3   OH245218   0.145   7.081   0.489
15099TIP3    H145219   0.190   6.998   0.502
15099TIP3    H245220   0.187   7.119   0.412
15100TIP3   OH245221   0.293   7.250   1.011
15100TIP3    H145222   0.375   7.268   0.964
15100TIP3    H245223   0.305   7.292   1.096
15101TIP3   OH245224   0.358   7.400   1.241
15101TIP3    H145225   0.287   7.429   1.298
15101TIP3    H245226   0.392   7.480   1.200
15102TIP3   OH245227   0.261   6.832   0.541
15102TIP3    H145228   0.304   6.818   0.625
15102TIP3    H245229   0.200   6.759   0.532
15103TIP3   OH245230   7.616   7.098   1.490
15103TIP3    H145231   7.682   7.077   1.424
15103TIP3    H245232   7.579   7.181   1.461
15104TIP3   OH245233   0.650   7.134   1.612
15104TIP3    H145234   0.562   7.160   1.584
15104TIP3    H245235   0.668   7.055   1.561
15105TIP3   OH245236   0.303   6.744   0.175
15105TIP3    H145237   0.351   6.684   0.119
15105TIP3    H245238   0.359   6.821   0.181
15106TIP3   OH245239   7.640   6.709   0.915
15106TIP3    H145240   7.617   6.618   0.934
15106TIP3    H245241   7.635   6.716   0.819
15107TIP3   OH245242   8.800   8.304   0.444
15107TIP3    H145243   8.858   8.293   0.369
15107TIP3    H245244   8.839   8.376   0.494
15108TIP3   OH245245   8.102   8.160   1.362
15108TIP3    H145246   8.050   8.231   1.324
15108TIP3    H245247   8.186   8.165   1.317
15109TIP3   OH245248   2.555  -0.011   1.516
15109TIP3    H145249   2.594  -0.018   1.603
15109TIP3    H245250   2.619   0.039   1.464
15110TIP3   OH245251   2.743   0.137   1.383
15110TIP3    H145252   2.803   0.087   1.327
15110TIP3    H245253   2.800   0.186   1.441
15111TIP3   OH245254   0.553   6.902   1.468
15111TIP3    H145255   0.476   6.924   1.415
15111TIP3    H245256   0.571   6.810   1.448
15112TIP3   OH245257   7.761   8.355   1.423
15112TIP3    H145258   7.677   8.394   1.399
15112TIP3    H245259   7.788   8.401   1.502
15113TIP3   OH245260   2.047  -0.006   1.252
15113TIP3    H145261   1.966  -0.008   1.304
15113TIP3    H245262   2.021   0.035   1.170
15114TIP3   OH245263   2.467   0.010   1.058
15114TIP3    H145264   2.393   0.023   0.998
15114TIP3    H245265   2.475   0.093   1.104
15115TIP3   OH245266   8.662   8.336   1.113
15115TIP3    H145267   8.572   8.357   1.089
15115TIP3    H245268   8.715   8.401   1.066
15116TIP3   OH245269   2.929   0.112   1.012
15116TIP3    H145270   2.931   0.200   0.973
15116TIP3    H245271   2.964   0.055   0.944
15117TIP3   OH245272   7.677   8.160   1.122
15117TIP3    H145273   7.699   8.133   1.212
15117TIP3    H245274   7.750   8.128   1.069
15118TIP3   OH245275   7.884   8.046   0.991
15118TIP3    H145276   7.897   7.966   1.042
15118TIP3    H245277   7.969   8.090   0.995
15119TIP3   OH245278   8.148   8.141   1.017
15119TIP3    H145279   8.168   8.049   1.001
15119TIP3    H245280   8.204   8.166   1.091
15120TIP3   OH245281   8.719   6.793   1.115
15120TIP3    H145282   8.675   6.726   1.167
15120TIP3    H245283   8.783   6.745   1.062
15121TIP3   OH245284   0.300   6.711   1.007
15121TIP3    H145285   0.335   6.759   0.932
15121TIP3    H245286   0.205   6.724   1.001
15122TIP3   OH245287   0.413   6.779   0.766
15122TIP3    H145288   0.480   6.718   0.737
15122TIP3    H245289   0.451   6.866   0.753
15123TIP3   OH245290   8.019   6.583   1.120
15123TIP3    H145291   7.929   6.614   1.132
15123TIP3    H245292   8.009   6.492   1.092
15124TIP3   OH245293   7.714   6.395   0.672
15124TIP3    H145294   7.760   6.446   0.605
15124TIP3    H245295   7.729   6.444   0.753
15125TIP3   OH245296   8.427   6.512   0.945
15125TIP3    H145297   8.484   6.569   0.893
15125TIP3    H245298   8.381   6.571   1.005
15126TIP3   OH245299   0.021   6.666   0.977
15126TIP3    H145300   0.032   6.629   0.889
15126TIP3    H245301   0.023   6.589   1.035
15127TIP3   OH245302   0.080   6.619   0.546
15127TIP3    H145303   0.000   6.667   0.571
15127TIP3    H245304   0.068   6.532   0.584
15128TIP3   OH245305   7.430   7.964   0.521
15128TIP3    H145306   7.347   7.935   0.482
15128TIP3    H245307   7.438   8.055   0.494
15129TIP3   OH245308   7.883   6.532   0.503
15129TIP3    H145309   7.932   6.471   0.447
15129TIP3    H245310   7.950   6.581   0.550
15130TIP3   OH245311   8.360   6.722   0.622
15130TIP3    H145312   8.424   6.672   0.673
15130TIP3    H245313   8.372   6.812   0.649
15131TIP3   OH245314   8.237   8.115   0.120
15131TIP3    H145315   8.318   8.144   0.080
15131TIP3    H245316   8.206   8.045   0.062
15132TIP3   OH245317   0.053   8.246   0.218
15132TIP3    H145318   0.046   8.151   0.210
15132TIP3    H245319   0.008   8.281   0.141
15133TIP3   OH245320   7.545   7.953   0.175
15133TIP3    H145321   7.546   7.968   0.269
15133TIP3    H245322   7.627   7.907   0.157
15134TIP3   OH245323   3.214   0.005   1.403
15134TIP3    H145324   3.141  -0.024   1.348
15134TIP3    H245325   3.201   0.099   1.412
15135TIP3   OH245326   1.532   7.784   0.148
15135TIP3    H145327   1.503   7.871   0.122
15135TIP3    H245328   1.461   7.726   0.119
15136TIP3   OH245329   1.512   7.781   0.556
15136TIP3    H145330   1.554   7.762   0.640
15136TIP3    H245331   1.471   7.699   0.530
15137TIP3   OH245332   0.830   7.637   0.911
15137TIP3    H145333   0.871   7.590   0.983
15137TIP3    H245334   0.904   7.669   0.858
15138TIP3   OH245335   1.805   8.079   0.240
15138TIP3    H145336   1.780   8.020   0.311
15138TIP3    H245337   1.826   8.161   0.283
15139TIP3   OH245338   0.822   8.059   0.592
15139TIP3    H145339   0.804   7.966   0.604
15139TIP3    H245340   0.918   8.065   0.588
15140TIP3   OH245341   0.505   7.265   0.386
15140TIP3    H145342   0.466   7.349   0.413
15140TIP3    H245343   0.432   7.217   0.347
15141TIP3   OH245344   0.585   7.586   0.611
15141TIP3    H145345   0.634   7.508   0.635
15141TIP3    H245346   0.652   7.651   0.589
15142TIP3   OH245347   4.422   0.134   0.254
15142TIP3    H145348   4.452   0.065   0.194
15142TIP3    H245349   4.406   0.088   0.336
15143TIP3   OH245350   1.339   8.006   0.573
15143TIP3    H145351   1.381   7.925   0.543
15143TIP3    H245352   1.411   8.059   0.607
15144TIP3   OH245353   1.720   7.495   0.619
15144TIP3    H145354   1.732   7.405   0.650
15144TIP3    H245355   1.699   7.485   0.527
15145TIP3   OH245356   1.095   7.150   0.568
15145TIP3    H145357   1.073   7.223   0.510
15145TIP3    H245358   1.041   7.077   0.536
15146TIP3   OH245359   1.799   7.254   0.217
15146TIP3    H145360   1.866   7.235   0.283
15146TIP3    H245361   1.849   7.285   0.141
15147TIP3   OH245362   0.720   7.361   0.698
15147TIP3    H145363   0.804   7.346   0.740
15147TIP3    H245364   0.725   7.310   0.617
15148TIP3   OH245365   1.141   7.563   0.512
15148TIP3    H145366   1.236   7.548   0.513
15148TIP3    H245367   1.104   7.481   0.478
15149TIP3   OH245368   1.062   7.132   1.017
15149TIP3    H145369   1.011   7.171   0.946
15149TIP3    H245370   1.008   7.144   1.095
15150TIP3   OH245371   7.366   3.807   7.275
15150TIP3    H145372   7.327   3.778   7.193
15150TIP3    H245373   7.314   3.883   7.301
15151TIP3   OH245374   1.177   7.929   0.783
15151TIP3    H145375   1.122   7.998   0.821
15151TIP3    H245376   1.223   7.972   0.712
15152TIP3   OH245377   1.962   7.256   0.448
15152TIP3    H145378   2.005   7.246   0.533
15152TIP3    H245379   1.988   7.343   0.418
15153TIP3   OH245380   0.966   7.259   0.790
15153TIP3    H145381   1.023   7.333   0.812
15153TIP3    H245382   1.012   7.215   0.718
15154TIP3   OH245383   1.017   8.124   0.895
15154TIP3    H145384   1.008   8.215   0.868
15154TIP3    H245385   0.937   8.105   0.944
15155TIP3   OH245386   0.394   7.804   0.164
15155TIP3    H145387   0.372   7.823   0.073
15155TIP3    H245388   0.405   7.890   0.205
15156TIP3   OH245389   1.846   8.323   0.372
15156TIP3    H145390   1.760   8.314   0.412
15156TIP3    H245391   1.842   8.406   0.324
15157TIP3   OH245392   1.414   6.827   0.711
15157TIP3    H145393   1.385   6.737   0.730
15157TIP3    H245394   1.360   6.882   0.767
15158TIP3   OH245395   1.546   8.359   0.053
15158TIP3    H145396   1.598   8.280   0.036
15158TIP3    H245397   1.598   8.431   0.017
15159TIP3   OH245398   1.688   8.134  -0.004
15159TIP3    H145399   1.618   8.069  -0.009
15159TIP3    H245400   1.739   8.108   0.073
15160TIP3   OH245401   2.079   8.227   0.724
15160TIP3    H145402   2.057   8.153   0.668
15160TIP3    H245403   2.076   8.303   0.665
15161TIP3   OH245404   7.291   3.429   7.264
15161TIP3    H145405   7.208   3.474   7.245
15161TIP3    H245406   7.338   3.428   7.181
15162TIP3   OH245407   7.263   3.235   6.952
15162TIP3    H145408   7.328   3.285   7.001
15162TIP3    H245409   7.313   3.168   6.906
15163TIP3   OH245410   2.230   7.904   0.567
15163TIP3    H145411   2.151   7.958   0.565
15163TIP3    H245412   2.263   7.907   0.477
15164TIP3   OH245413   7.648   3.522   7.221
15164TIP3    H145414   7.596   3.549   7.297
15164TIP3    H245415   7.734   3.500   7.258
15165TIP3   OH245416   1.897   7.750   0.857
15165TIP3    H145417   1.897   7.829   0.911
15165TIP3    H245418   1.806   7.740   0.829
15166TIP3   OH245419   0.943   7.693   0.362
15166TIP3    H145420   0.911   7.632   0.297
15166TIP3    H245421   1.017   7.649   0.403
15167TIP3   OH245422   1.087   8.110   0.505
15167TIP3    H145423   1.067   8.099   0.412
15167TIP3    H245424   1.176   8.076   0.515
15168TIP3   OH245425   1.042   7.695   0.735
15168TIP3    H145426   1.082   7.659   0.655
15168TIP3    H245427   1.092   7.775   0.752
15169TIP3   OH245428   1.612   8.301   0.505
15169TIP3    H145429   1.588   8.385   0.544
15169TIP3    H245430   1.592   8.236   0.573
15170TIP3   OH245431   1.208   8.214   1.078
15170TIP3    H145432   1.146   8.274   1.120
15170TIP3    H245433   1.154   8.163   1.017
15171TIP3   OH245434   7.480   3.380   7.057
15171TIP3    H145435   7.539   3.438   7.104
15171TIP3    H245436   7.509   3.385   6.966
15172TIP3   OH245437   0.964   7.800   1.162
15172TIP3    H145438   0.964   7.889   1.198
15172TIP3    H245439   0.873   7.772   1.167
15173TIP3   OH245440   1.296   8.242   0.047
15173TIP3    H145441   1.379   8.289   0.058
15173TIP3    H245442   1.242   8.302  -0.004
15174TIP3   OH245443   0.994   8.368   1.151
15174TIP3    H145444   0.977   8.392   1.059
15174TIP3    H245445   0.907   8.358   1.189
15175TIP3   OH245446   7.995   2.611   7.126
15175TIP3    H145447   7.910   2.628   7.167
15175TIP3    H245448   8.008   2.683   7.064
15176TIP3   OH245449   0.830   7.527   0.162
15176TIP3    H145450   0.749   7.569   0.135
15176TIP3    H245451   0.807   7.435   0.177
15177TIP3   OH245452   7.813   3.991   6.669
15177TIP3    H145453   7.813   4.085   6.650
15177TIP3    H245454   7.902   3.962   6.649
15178TIP3   OH245455   0.600   7.942   1.092
15178TIP3    H145456   0.530   7.922   1.029
15178TIP3    H245457   0.636   7.857   1.117
15179TIP3   OH245458   0.456   8.134   0.746
15179TIP3    H145459   0.546   8.156   0.768
15179TIP3    H245460   0.405   8.210   0.776
15180TIP3   OH245461   5.273   0.202   0.735
15180TIP3    H145462   5.300   0.112   0.750
15180TIP3    H245463   5.200   0.216   0.796
15181TIP3   OH245464   1.405   8.310   0.910
15181TIP3    H145465   1.403   8.405   0.916
15181TIP3    H245466   1.334   8.280   0.967
15182TIP3   OH245467   7.123   4.253   7.144
15182TIP3    H145468   7.082   4.237   7.059
15182TIP3    H245469   7.089   4.339   7.171
15183TIP3   OH245470   0.605   8.331   0.283
15183TIP3    H145471   0.672   8.328   0.351
15183TIP3    H245472   0.529   8.287   0.321
15184TIP3   OH245473   7.317   4.205   6.768
15184TIP3    H145474   7.368   4.132   6.733
15184TIP3    H245475   7.354   4.221   6.854
15185TIP3   OH245476   7.377   4.254   7.034
15185TIP3    H145477   7.296   4.244   7.084
15185TIP3    H245478   7.447   4.237   7.097
15186TIP3   OH245479   0.790   8.136   1.054
15186TIP3    H145480   0.840   8.133   1.136
15186TIP3    H245481   0.722   8.070   1.065
15187TIP3   OH245482   1.168   6.935   0.837
15187TIP3    H145483   1.078   6.911   0.814
15187TIP3    H245484   1.160   7.015   0.888
15188TIP3   OH245485   7.560   3.365   6.796
15188TIP3    H145486   7.517   3.365   6.710
15188TIP3    H245487   7.643   3.410   6.780
15189TIP3   OH245488   7.269   2.780   7.110
15189TIP3    H145489   7.230   2.788   7.197
15189TIP3    H245490   7.235   2.697   7.075
15190TIP3   OH245491   1.131   7.469   0.873
15190TIP3    H145492   1.088   7.477   0.958
15190TIP3    H245493   1.106   7.550   0.827
15191TIP3   OH245494   1.001   7.349   0.405
15191TIP3    H145495   0.912   7.324   0.430
15191TIP3    H245496   1.011   7.316   0.315
15192TIP3   OH245497   1.481   7.420   0.133
15192TIP3    H145498   1.434   7.493   0.094
15192TIP3    H245499   1.539   7.389   0.064
15193TIP3   OH245500   1.643   7.437   0.358
15193TIP3    H145501   1.576   7.454   0.292
15193TIP3    H245502   1.695   7.365   0.321
15194TIP3   OH245503   0.974   7.487   1.098
15194TIP3    H145504   0.994   7.546   1.171
15194TIP3    H245505   0.948   7.405   1.140
15195TIP3   OH245506   6.937   2.760   7.091
15195TIP3    H145507   6.927   2.763   7.186
15195TIP3    H245508   6.859   2.803   7.057
15196TIP3   OH245509   0.544   7.001   0.688
15196TIP3    H145510   0.613   7.042   0.740
15196TIP3    H245511   0.583   6.985   0.603
15197TIP3   OH245512   0.457   6.975   0.192
15197TIP3    H145513   0.503   7.011   0.116
15197TIP3    H245514   0.393   7.043   0.215
15198TIP3   OH245515   1.635   7.687   0.791
15198TIP3    H145516   1.667   7.620   0.730
15198TIP3    H245517   1.611   7.637   0.870
15199TIP3   OH245518   1.358   7.137   0.456
15199TIP3    H145519   1.278   7.138   0.509
15199TIP3    H245520   1.428   7.121   0.519
15200TIP3   OH245521   0.765   7.220   0.466
15200TIP3    H145522   0.677   7.223   0.428
15200TIP3    H245523   0.796   7.131   0.448
15201TIP3   OH245524   1.014   7.225   0.160
15201TIP3    H145525   1.109   7.234   0.150
15201TIP3    H245526   0.980   7.241   0.072
15202TIP3   OH245527   1.750   7.225   0.664
15202TIP3    H145528   1.677   7.164   0.650
15202TIP3    H245529   1.807   7.211   0.588
15203TIP3   OH245530   6.838   3.052   7.177
15203TIP3    H145531   6.776   3.002   7.124
15203TIP3    H245532   6.892   3.098   7.113
15204TIP3   OH245533   5.069   0.493   0.786
15204TIP3    H145534   5.037   0.543   0.711
15204TIP3    H245535   5.035   0.539   0.862
15205TIP3   OH245536   0.945   8.048   1.287
15205TIP3    H145537   1.027   8.063   1.334
15205TIP3    H245538   0.878   8.047   1.356
15206TIP3   OH245539   1.413   7.511   0.543
15206TIP3    H145540   1.483   7.465   0.496
15206TIP3    H245541   1.418   7.476   0.632
15207TIP3   OH245542   0.909   6.976   0.445
15207TIP3    H145543   0.874   6.901   0.494
15207TIP3    H245544   0.937   6.939   0.361
15208TIP3   OH245545   1.405   7.432   0.811
15208TIP3    H145546   1.319   7.468   0.833
15208TIP3    H245547   1.463   7.467   0.879
15209TIP3   OH245548   7.053   3.566   7.208
15209TIP3    H145549   6.977   3.512   7.184
15209TIP3    H245550   7.028   3.606   7.291
15210TIP3   OH245551   1.992   8.037   0.541
15210TIP3    H145552   2.021   8.089   0.466
15210TIP3    H245553   1.913   7.992   0.511
15211TIP3   OH245554   7.521   2.885   7.120
15211TIP3    H145555   7.428   2.863   7.111
15211TIP3    H245556   7.522   2.980   7.125
15212TIP3   OH245557   1.549   8.076   0.961
15212TIP3    H145558   1.596   8.082   1.044
15212TIP3    H245559   1.498   8.157   0.957
15213TIP3   OH245560   7.578   3.151   7.186
15213TIP3    H145561   7.674   3.156   7.196
15213TIP3    H245562   7.556   3.227   7.132
15214TIP3   OH245563   0.807   7.768   0.591
15214TIP3    H145564   0.846   7.752   0.505
15214TIP3    H245565   0.875   7.743   0.653
15215TIP3   OH245566   7.211   3.723   7.053
15215TIP3    H145567   7.163   3.806   7.049
15215TIP3    H245568   7.156   3.666   7.105
15216TIP3   OH245569   0.703   7.719   1.224
15216TIP3    H145570   0.726   7.703   1.316
15216TIP3    H245571   0.626   7.665   1.209
15217TIP3   OH245572   1.425   7.821   1.260
15217TIP3    H145573   1.355   7.783   1.208
15217TIP3    H245574   1.437   7.761   1.333
15218TIP3   OH245575   1.676   8.366   0.826
15218TIP3    H145576   1.585   8.340   0.837
15218TIP3    H245577   1.701   8.405   0.909
15219TIP3   OH245578   7.993   3.237   7.002
15219TIP3    H145579   7.936   3.191   6.941
15219TIP3    H245580   8.000   3.325   6.967
15220TIP3   OH245581   2.338   8.324   0.784
15220TIP3    H145582   2.249   8.298   0.807
15220TIP3    H245583   2.363   8.263   0.715
15221TIP3   OH245584   7.733   4.050   6.936
15221TIP3    H145585   7.710   3.978   6.994
15221TIP3    H245586   7.752   4.008   6.852
15222TIP3   OH245587   1.763   7.893   0.451
15222TIP3    H145588   1.672   7.872   0.473
15222TIP3    H245589   1.795   7.816   0.405
15223TIP3   OH245590   0.944   8.122   0.262
15223TIP3    H145591   0.939   8.196   0.201
15223TIP3    H245592   0.859   8.121   0.306
15224TIP3   OH245593   6.431   3.202   7.230
15224TIP3    H145594   6.478   3.280   7.256
15224TIP3    H245595   6.352   3.202   7.284
15225TIP3   OH245596   1.025   7.875   0.167
15225TIP3    H145597   1.008   7.965   0.196
15225TIP3    H245598   0.998   7.820   0.240
15226TIP3   OH245599   4.186   0.040   0.713
15226TIP3    H145600   4.223   0.112   0.661
15226TIP3    H245601   4.261  -0.002   0.754
15227TIP3   OH245602   0.836   8.341   0.116
15227TIP3    H145603   0.750   8.348   0.158
15227TIP3    H245604   0.872   8.429   0.121
15228TIP3   OH245605   1.580   8.090   0.687
15228TIP3    H145606   1.571   8.080   0.782
15228TIP3    H245607   1.661   8.044   0.666
15229TIP3   OH245608   7.499   3.789   6.825
15229TIP3    H145609   7.551   3.764   6.901
15229TIP3    H245610   7.415   3.744   6.837
15230TIP3   OH245611   4.795   0.176   0.699
15230TIP3    H145612   4.731   0.107   0.714
15230TIP3    H245613   4.761   0.224   0.623
15231TIP3   OH245614   7.831   4.267   6.639
15231TIP3    H145615   7.881   4.342   6.606
15231TIP3    H245616   7.750   4.306   6.673
15232TIP3   OH245617   0.902   7.247   1.221
15232TIP3    H145618   0.807   7.232   1.229
15232TIP3    H245619   0.934   7.245   1.311
15233TIP3   OH245620   7.674   3.711   7.019
15233TIP3    H145621   7.659   3.655   7.094
15233TIP3    H245622   7.770   3.717   7.012
15234TIP3   OH245623   0.650   8.322   0.880
15234TIP3    H145624   0.703   8.266   0.937
15234TIP3    H245625   0.660   8.410   0.916
15235TIP3   OH245626   6.840   3.751   6.837
15235TIP3    H145627   6.854   3.659   6.814
15235TIP3    H245628   6.831   3.750   6.933
15236TIP3   OH245629   6.805   3.771   7.114
15236TIP3    H145630   6.880   3.748   7.169
15236TIP3    H245631   6.801   3.867   7.119
15237TIP3   OH245632   0.598   7.638   0.063
15237TIP3    H145633   0.532   7.682   0.116
15237TIP3    H245634   0.621   7.702  -0.005
15238TIP3   OH245635   0.839   6.419   1.440
15238TIP3    H145636   0.856   6.461   1.356
15238TIP3    H245637   0.747   6.394   1.437
15239TIP3   OH245638   1.643   7.041   0.120
15239TIP3    H145639   1.623   7.060   0.028
15239TIP3    H245640   1.690   7.119   0.150
15240TIP3   OH245641   7.061   3.948   7.047
15240TIP3    H145642   6.980   3.978   7.088
15240TIP3    H245643   7.088   4.021   6.991
15241TIP3   OH245644   1.293   7.231   0.202
15241TIP3    H145645   1.356   7.298   0.176
15241TIP3    H245646   1.314   7.212   0.294
15242TIP3   OH245647   1.577   7.540   1.020
15242TIP3    H145648   1.509   7.545   1.087
15242TIP3    H245649   1.658   7.526   1.068
15243TIP3   OH245650   1.456   6.933   0.288
15243TIP3    H145651   1.430   7.009   0.341
15243TIP3    H245652   1.525   6.966   0.231
15244TIP3   OH245653   6.815   4.045   7.130
15244TIP3    H145654   6.800   4.118   7.070
15244TIP3    H245655   6.799   4.083   7.217
15245TIP3   OH245656   0.971   6.950   0.104
15245TIP3    H145657   0.959   7.041   0.131
15245TIP3    H245658   1.065   6.936   0.108
15246TIP3   OH245659   1.838   7.645   0.338
15246TIP3    H145660   1.763   7.586   0.347
15246TIP3    H245661   1.910   7.600   0.382
15247TIP3   OH245662   6.564   3.634   7.133
15247TIP3    H145663   6.637   3.696   7.137
15247TIP3    H245664   6.583   3.581   7.055
15248TIP3   OH245665   6.463   2.925   7.239
15248TIP3    H145666   6.471   3.020   7.241
15248TIP3    H245667   6.422   2.906   7.155
15249TIP3   OH245668   4.832   0.194   0.277
15249TIP3    H145669   4.788   0.245   0.209
15249TIP3    H245670   4.925   0.211   0.264
15250TIP3   OH245671   0.901   6.858   0.820
15250TIP3    H145672   0.872   6.824   0.735
15250TIP3    H245673   0.901   6.782   0.877
15251TIP3   OH245674   3.566   0.213   1.290
15251TIP3    H145675   3.650   0.217   1.337
15251TIP3    H245676   3.542   0.121   1.293
15252TIP3   OH245677   3.994   0.081   1.410
15252TIP3    H145678   4.045   0.159   1.392
15252TIP3    H245679   3.992   0.034   1.327
15253TIP3   OH245680   7.003   3.951   6.730
15253TIP3    H145681   6.952   3.882   6.773
15253TIP3    H245682   7.077   3.905   6.690
15254TIP3   OH245683   4.732   0.084   1.063
15254TIP3    H145684   4.747   0.017   1.129
15254TIP3    H245685   4.809   0.141   1.069
15255TIP3   OH245686   7.447   3.994   6.652
15255TIP3    H145687   7.479   3.930   6.715
15255TIP3    H245688   7.508   3.988   6.578
15256TIP3   OH245689   0.752   8.004   1.482
15256TIP3    H145690   0.777   7.911   1.480
15256TIP3    H245691   0.664   8.005   1.443
15257TIP3   OH245692   6.667   3.454   6.951
15257TIP3    H145693   6.718   3.429   7.028
15257TIP3    H245694   6.732   3.465   6.881
15258TIP3   OH245695   1.376   8.094   1.264
15258TIP3    H145696   1.319   8.119   1.190
15258TIP3    H245697   1.399   8.003   1.247
15259TIP3   OH245698   7.239   3.668   6.785
15259TIP3    H145699   7.220   3.677   6.878
15259TIP3    H245700   7.225   3.575   6.767
15260TIP3   OH245701   1.863   8.159   0.877
15260TIP3    H145702   1.940   8.190   0.829
15260TIP3    H245703   1.793   8.220   0.853
15261TIP3   OH245704   0.885   7.755   1.471
15261TIP3    H145705   0.964   7.731   1.423
15261TIP3    H245706   0.914   7.765   1.562
15262TIP3   OH245707   6.844   3.389   7.159
15262TIP3    H145708   6.828   3.357   7.248
15262TIP3    H245709   6.894   3.319   7.117
15263TIP3   OH245710   1.216   7.701   1.120
15263TIP3    H145711   1.129   7.742   1.123
15263TIP3    H245712   1.249   7.722   1.033
15264TIP3   OH245713   6.989   3.206   7.007
15264TIP3    H145714   6.960   3.210   6.915
15264TIP3    H245715   7.085   3.213   7.002
15265TIP3   OH245716   1.721   8.075   1.192
15265TIP3    H145717   1.794   8.040   1.142
15265TIP3    H245718   1.731   8.037   1.279
15266TIP3   OH245719   7.782   3.494   6.690
15266TIP3    H145720   7.769   3.454   6.604
15266TIP3    H245721   7.759   3.587   6.677
15267TIP3   OH245722   1.345   7.488   1.220
15267TIP3    H145723   1.318   7.409   1.172
15267TIP3    H245724   1.291   7.557   1.183
15268TIP3   OH245725   1.290   7.279   1.046
15268TIP3    H145726   1.291   7.309   0.954
15268TIP3    H245727   1.216   7.219   1.050
15269TIP3   OH245728   1.355   7.751   0.892
15269TIP3    H145729   1.446   7.772   0.869
15269TIP3    H245730   1.304   7.821   0.851
15270TIP3   OH245731   1.929   7.959   1.045
15270TIP3    H145732   1.916   8.032   0.984
15270TIP3    H245733   2.023   7.946   1.047
15271TIP3   OH245734   1.162   7.561   1.432
15271TIP3    H145735   1.114   7.479   1.444
15271TIP3    H245736   1.240   7.536   1.384
15272TIP3   OH245737   1.461   7.016   0.925
15272TIP3    H145738   1.494   7.100   0.958
15272TIP3    H245739   1.536   6.958   0.928
15273TIP3   OH245740   1.017   7.319   1.492
15273TIP3    H145741   1.084   7.252   1.504
15273TIP3    H245742   1.015   7.366   1.575
15274TIP3   OH245743   6.810   4.252   6.946
15274TIP3    H145744   6.899   4.230   6.919
15274TIP3    H245745   6.774   4.300   6.871
15275TIP3   OH245746   6.290   3.647   7.159
15275TIP3    H145747   6.383   3.656   7.141
15275TIP3    H245748   6.264   3.567   7.113
15276TIP3   OH245749   0.247   8.411   0.319
15276TIP3    H145750   0.187   8.353   0.274
15276TIP3    H245751   0.298   8.354   0.376
15277TIP3   OH245752   0.412   8.259   0.481
15277TIP3    H145753   0.401   8.183   0.538
15277TIP3    H245754   0.457   8.324   0.536
15278TIP3   OH245755   5.096   0.266   0.255
15278TIP3    H145756   5.117   0.301   0.341
15278TIP3    H245757   5.137   0.327   0.193
15279TIP3   OH245758   5.115   0.294   0.530
15279TIP3    H145759   5.071   0.209   0.527
15279TIP3    H245760   5.178   0.286   0.601
15280TIP3   OH245761   7.952   3.706   7.013
15280TIP3    H145762   8.011   3.776   6.985
15280TIP3    H245763   7.997   3.666   7.088
15281TIP3   OH245764   8.078   3.561   7.209
15281TIP3    H145765   8.012   3.524   7.268
15281TIP3    H245766   8.150   3.587   7.267
15282TIP3   OH245767   2.179   8.173   0.379
15282TIP3    H145768   2.226   8.103   0.335
15282TIP3    H245769   2.173   8.243   0.314
15283TIP3   OH245770   4.990   0.046   0.552
15283TIP3    H145771   4.920   0.083   0.606
15283TIP3    H245772   4.943  -0.002   0.484
15284TIP3   OH245773   7.992   3.476   6.866
15284TIP3    H145774   7.921   3.475   6.802
15284TIP3    H245775   7.977   3.555   6.917
15285TIP3   OH245776   7.837   3.128   6.808
15285TIP3    H145777   7.796   3.163   6.729
15285TIP3    H245778   7.830   3.033   6.798
15286TIP3   OH245779   1.944   7.624   0.082
15286TIP3    H145780   1.945   7.529   0.070
15286TIP3    H245781   1.913   7.637   0.171
15287TIP3   OH245782   0.565   7.674   0.869
15287TIP3    H145783   0.555   7.644   0.779
15287TIP3    H245784   0.660   7.671   0.885
15288TIP3   OH245785   7.802   2.859   6.777
15288TIP3    H145786   7.871   2.829   6.837
15288TIP3    H245787   7.723   2.815   6.808
15289TIP3   OH245788   7.863   3.154   7.242
15289TIP3    H145789   7.899   3.066   7.248
15289TIP3    H245790   7.906   3.193   7.166
15290TIP3   OH245791   2.063   7.516   0.433
15290TIP3    H145792   2.145   7.540   0.389
15290TIP3    H245793   2.063   7.567   0.514
15291TIP3   OH245794   2.076   7.688   0.645
15291TIP3    H145795   2.012   7.717   0.710
15291TIP3    H245796   2.125   7.767   0.623
15292TIP3   OH245797   0.748   7.353   1.480
15292TIP3    H145798   0.844   7.353   1.483
15292TIP3    H245799   0.722   7.285   1.542
15293TIP3   OH245800   2.019   7.094   0.019
15293TIP3    H145801   2.066   7.076   0.101
15293TIP3    H245802   1.962   7.019   0.007
15294TIP3   OH245803   0.747   7.083   0.861
15294TIP3    H145804   0.800   7.003   0.858
15294TIP3    H245805   0.809   7.153   0.841
15295TIP3   OH245806   0.536   7.343   0.914
15295TIP3    H145807   0.588   7.329   0.835
15295TIP3    H245808   0.563   7.429   0.946
15296TIP3   OH245809   8.028   2.808   6.936
15296TIP3    H145810   8.071   2.744   6.879
15296TIP3    H245811   8.087   2.883   6.937
15297TIP3   OH245812   0.530   6.848   0.422
15297TIP3    H145813   0.444   6.835   0.461
15297TIP3    H245814   0.512   6.900   0.343
15298TIP3   OH245815   7.606   4.366   7.195
15298TIP3    H145816   7.667   4.356   7.122
15298TIP3    H245817   7.645   4.433   7.250
15299TIP3   OH245818   0.736   6.935   1.257
15299TIP3    H145819   0.680   6.931   1.335
15299TIP3    H245820   0.680   6.972   1.189
15300TIP3   OH245821   0.767   8.339   1.301
15300TIP3    H145822   0.672   8.329   1.290
15300TIP3    H245823   0.782   8.329   1.395
15301TIP3   OH245824   3.960   0.006   0.866
15301TIP3    H145825   3.901   0.069   0.825
15301TIP3    H245826   4.044   0.020   0.824
15302TIP3   OH245827   4.386   0.186   0.906
15302TIP3    H145828   4.422   0.199   0.993
15302TIP3    H245829   4.442   0.240   0.849
15303TIP3   OH245830   4.599   0.340   0.824
15303TIP3    H145831   4.654   0.280   0.775
15303TIP3    H245832   4.651   0.363   0.901
15304TIP3   OH245833   3.605   0.217   0.901
15304TIP3    H145834   3.516   0.245   0.878
15304TIP3    H245835   3.630   0.276   0.972
15305TIP3   OH245836   3.822   0.203   0.734
15305TIP3    H145837   3.743   0.210   0.788
15305TIP3    H245838   3.797   0.241   0.650
15306TIP3   OH245839   4.265   0.231   0.525
15306TIP3    H145840   4.191   0.243   0.466
15306TIP3    H245841   4.276   0.316   0.567
15307TIP3   OH245842   4.527   0.170   0.573
15307TIP3    H145843   4.435   0.190   0.556
15307TIP3    H245844   4.575   0.242   0.532
15308TIP3   OH245845   4.727   0.342   0.483
15308TIP3    H145846   4.733   0.430   0.446
15308TIP3    H245847   4.761   0.285   0.414
15309TIP3   OH245848   3.541   0.038   0.633
15309TIP3    H145849   3.562   0.012   0.723
15309TIP3    H245850   3.615   0.006   0.581
15310TIP3   OH245851   0.775   8.309   0.494
15310TIP3    H145852   0.783   8.223   0.535
15310TIP3    H245853   0.862   8.347   0.500
15311TIP3   OH245854   1.037   8.386   0.512
15311TIP3    H145855   1.058   8.294   0.497
15311TIP3    H245856   1.091   8.411   0.587
15312TIP3   OH245857   1.577   7.022   0.593
15312TIP3    H145858   1.523   6.959   0.642
15312TIP3    H245859   1.641   6.968   0.547
15313TIP3   OH245860   2.064   6.988   0.520
15313TIP3    H145861   2.158   6.992   0.504
15313TIP3    H245862   2.027   7.057   0.465
15314TIP3   OH245863   2.170   7.057   0.246
15314TIP3    H145864   2.243   6.996   0.258
15314TIP3    H245865   2.212   7.142   0.234
15315TIP3   OH245866   0.818   6.752   0.580
15315TIP3    H145867   0.728   6.720   0.590
15315TIP3    H245868   0.869   6.673   0.562
15316TIP3   OH245869   0.657   6.656   0.252
15316TIP3    H145870   0.683   6.704   0.173
15316TIP3    H245871   0.622   6.723   0.310
15317TIP3   OH245872   1.291   6.788   0.463
15317TIP3    H145873   1.345   6.836   0.400
15317TIP3    H245874   1.328   6.812   0.548
15318TIP3   OH245875   1.790   6.864   0.470
15318TIP3    H145876   1.842   6.875   0.390
15318TIP3    H245877   1.740   6.784   0.456
15319TIP3   OH245878   1.844   6.879   0.010
15319TIP3    H145879   1.768   6.928   0.041
15319TIP3    H245880   1.835   6.793   0.051
15320TIP3   OH245881   0.763   6.781   0.012
15320TIP3    H145882   0.810   6.719  -0.044
15320TIP3    H245883   0.832   6.837   0.048
15321TIP3   OH245884   1.244   6.980   0.105
15321TIP3    H145885   1.304   6.927   0.158
15321TIP3    H245886   1.260   7.070   0.132
15322TIP3   OH245887   7.065   4.173   6.875
15322TIP3    H145888   7.148   4.200   6.835
15322TIP3    H245889   7.033   4.103   6.818
15323TIP3   OH245890   7.763   4.319   6.971
15323TIP3    H145891   7.757   4.224   6.963
15323TIP3    H245892   7.722   4.352   6.890
15324TIP3   OH245893   6.438   4.148   6.948
15324TIP3    H145894   6.515   4.134   7.003
15324TIP3    H245895   6.401   4.060   6.937
15325TIP3   OH245896   5.021   0.236   0.854
15325TIP3    H145897   4.946   0.210   0.801
15325TIP3    H245898   5.040   0.326   0.827
15326TIP3   OH245899   0.311   3.900   6.977
15326TIP3    H145900   0.255   3.965   6.934
15326TIP3    H245901   0.279   3.816   6.944
15327TIP3   OH245902   8.226   3.332   7.134
15327TIP3    H145903   8.191   3.418   7.156
15327TIP3    H245904   8.152   3.284   7.096
15328TIP3   OH245905   2.375   7.804   0.082
15328TIP3    H145906   2.421   7.724   0.108
15328TIP3    H245907   2.445   7.869   0.071
15329TIP3   OH245908   0.210   4.638   6.987
15329TIP3    H145909   0.263   4.563   6.959
15329TIP3    H245910   0.190   4.620   7.079
15330TIP3   OH245911   2.531   7.586   0.160
15330TIP3    H145912   2.622   7.579   0.189
15330TIP3    H245913   2.528   7.537   0.078
15331TIP3   OH245914   8.857   3.548   7.294
15331TIP3    H145915   8.940   3.571   7.252
15331TIP3    H245916   8.816   3.487   7.233
15332TIP3   OH245917   0.145   4.075   6.834
15332TIP3    H145918   0.058   4.035   6.840
15332TIP3    H245919   0.129   4.169   6.836
15333TIP3   OH245920   2.730   8.355   0.356
15333TIP3    H145921   2.797   8.419   0.383
15333TIP3    H245922   2.679   8.339   0.436
15334TIP3   OH245923   8.127   3.894   6.904
15334TIP3    H145924   8.092   3.915   6.817
15334TIP3    H245925   8.152   3.979   6.941
15335TIP3   OH245926   0.356   4.438   6.879
15335TIP3    H145927   0.407   4.357   6.883
15335TIP3    H245928   0.393   4.487   6.807
15336TIP3   OH245929   0.527   4.240   6.826
15336TIP3    H145930   0.509   4.248   6.732
15336TIP3    H245931   0.585   4.164   6.832
15337TIP3   OH245932   0.092   3.616   6.827
15337TIP3    H145933   0.044   3.660   6.898
15337TIP3    H245934   0.117   3.687   6.767
15338TIP3   OH245935   0.165   3.564   6.407
15338TIP3    H145936   0.246   3.580   6.455
15338TIP3    H245937   0.145   3.472   6.425
15339TIP3   OH245938   8.693   3.729   7.131
15339TIP3    H145939   8.649   3.675   7.065
15339TIP3    H245940   8.747   3.667   7.180
15340TIP3   OH245941   8.767   4.213   7.216
15340TIP3    H145942   8.731   4.180   7.134
15340TIP3    H245943   8.811   4.138   7.255
15341TIP3   OH245944   0.420   3.633   6.523
15341TIP3    H145945   0.495   3.668   6.571
15341TIP3    H245946   0.458   3.576   6.456
15342TIP3   OH245947   0.098   4.343   6.835
15342TIP3    H145948   0.182   4.383   6.860
15342TIP3    H245949   0.052   4.411   6.786
15343TIP3   OH245950   5.760   0.160   0.551
15343TIP3    H145951   5.706   0.237   0.537
15343TIP3    H245952   5.701   0.095   0.589
15344TIP3   OH245953   8.549   3.596   6.924
15344TIP3    H145954   8.469   3.640   6.895
15344TIP3    H245955   8.519   3.511   6.956
15345TIP3   OH245956   2.386   8.159   0.571
15345TIP3    H145957   2.316   8.175   0.507
15345TIP3    H245958   2.377   8.066   0.592
15346TIP3   OH245959   5.194   0.012   0.220
15346TIP3    H145960   5.278   0.020   0.264
15346TIP3    H245961   5.149   0.094   0.239
15347TIP3   OH245962   8.905   4.543   6.660
15347TIP3    H145963   8.853   4.524   6.583
15347TIP3    H245964   8.881   4.632   6.684
15348TIP3   OH245965   8.347   4.417   7.041
15348TIP3    H145966   8.323   4.461   7.123
15348TIP3    H245967   8.299   4.334   7.043
15349TIP3   OH245968   0.144   4.481   6.270
15349TIP3    H145969   0.182   4.399   6.237
15349TIP3    H245970   0.187   4.495   6.354
15350TIP3   OH245971   0.238   4.489   6.526
15350TIP3    H145972   0.165   4.500   6.588
15350TIP3    H245973   0.306   4.445   6.577
15351TIP3   OH245974   2.589   8.353   0.606
15351TIP3    H145975   2.558   8.376   0.694
15351TIP3    H245976   2.532   8.281   0.579
15352TIP3   OH245977   0.162   3.026   6.587
15352TIP3    H145978   0.237   2.987   6.632
15352TIP3    H245979   0.103   2.952   6.572
15353TIP3   OH245980   8.717   3.392   7.125
15353TIP3    H145981   8.636   3.353   7.158
15353TIP3    H245982   8.740   3.340   7.048
15354TIP3   OH245983   0.357   3.573   6.923
15354TIP3    H145984   0.263   3.592   6.929
15354TIP3    H245985   0.364   3.512   6.850
15355TIP3   OH245986   8.687   2.996   6.599
15355TIP3    H145987   8.682   3.002   6.694
15355TIP3    H245988   8.610   3.043   6.568
15356TIP3   OH245989   2.326   7.275   0.171
15356TIP3    H145990   2.420   7.291   0.180
15356TIP3    H245991   2.316   7.241   0.082
15357TIP3   OH245992   8.185   3.039   6.945
15357TIP3    H145993   8.233   3.072   6.869
15357TIP3    H245994   8.122   3.108   6.965
15358TIP3   OH245995   8.484   3.258   7.186
15358TIP3    H145996   8.394   3.273   7.159
15358TIP3    H245997   8.496   3.163   7.178
15359TIP3   OH245998   8.765   3.240   6.900
15359TIP3    H145999   8.854   3.271   6.882
15359TIP3    H246000   8.714   3.269   6.825
15360TIP3   OH246001   8.612   3.295   6.681
15360TIP3    H146002   8.544   3.250   6.631
15360TIP3    H246003   8.660   3.345   6.615
15361TIP3   OH246004   8.591   2.985   7.191
15361TIP3    H146005   8.614   2.899   7.228
15361TIP3    H246006   8.635   2.986   7.106
15362TIP3   OH246007   8.766   3.872   6.702
15362TIP3    H146008   8.721   3.788   6.691
15362TIP3    H246009   8.776   3.880   6.797
15363TIP3   OH246010   2.595   7.965   0.085
15363TIP3    H146011   2.649   7.964   0.005
15363TIP3    H246012   2.655   7.994   0.153
15364TIP3   OH246013   8.921   3.974   6.509
15364TIP3    H146014   8.899   4.067   6.517
15364TIP3    H246015   8.865   3.931   6.574
15365TIP3   OH246016   8.630   4.153   6.982
15365TIP3    H146017   8.636   4.239   6.940
15365TIP3    H246018   8.537   4.135   6.987
15366TIP3   OH246019   8.233   3.462   6.730
15366TIP3    H146020   8.276   3.545   6.753
15366TIP3    H246021   8.151   3.463   6.779
15367TIP3   OH246022   8.793   3.929   6.965
15367TIP3    H146023   8.739   4.006   6.976
15367TIP3    H246024   8.762   3.868   7.032
15368TIP3   OH246025   5.949   0.286   0.174
15368TIP3    H146026   6.003   0.335   0.112
15368TIP3    H246027   6.003   0.210   0.197
15369TIP3   OH246028   8.568   4.405   6.875
15369TIP3    H146029   8.490   4.417   6.929
15369TIP3    H246030   8.604   4.493   6.865
15370TIP3   OH246031   0.256   4.104   6.430
15370TIP3    H146032   0.330   4.042   6.425
15370TIP3    H246033   0.182   4.050   6.457
15371TIP3   OH246034   8.614   4.023   6.330
15371TIP3    H146035   8.635   3.935   6.299
15371TIP3    H246036   8.601   4.013   6.424
15372TIP3   OH246037   8.567   4.033   6.599
15372TIP3    H146038   8.640   3.995   6.647
15372TIP3    H246039   8.575   4.127   6.614
15373TIP3   OH246040   8.322   3.715   6.813
15373TIP3    H146041   8.257   3.762   6.866
15373TIP3    H246042   8.338   3.772   6.738
15374TIP3   OH246043   8.845   4.228   6.548
15374TIP3    H146044   8.759   4.251   6.581
15374TIP3    H246045   8.880   4.310   6.511
15375TIP3   OH246046   8.591   4.305   6.620
15375TIP3    H146047   8.554   4.370   6.561
15375TIP3    H246048   8.579   4.342   6.708
15376TIP3   OH246049   8.703   2.977   6.880
15376TIP3    H146050   8.714   3.071   6.895
15376TIP3    H246051   8.791   2.941   6.882
15377TIP3   OH246052   8.334   3.891   6.596
15377TIP3    H146053   8.402   3.958   6.604
15377TIP3    H246054   8.369   3.829   6.532
15378TIP3   OH246055   8.261   3.185   6.726
15378TIP3    H146056   8.270   3.280   6.735
15378TIP3    H246057   8.207   3.173   6.648
15379TIP3   OH246058   8.187   4.158   6.995
15379TIP3    H146059   8.144   4.198   7.070
15379TIP3    H246060   8.149   4.203   6.919
15380TIP3   OH246061   8.726   4.264   6.256
15380TIP3    H146062   8.678   4.189   6.292
15380TIP3    H246063   8.809   4.227   6.227
15381TIP3   OH246064   0.295   4.254   6.217
15381TIP3    H146065   0.290   4.194   6.291
15381TIP3    H246066   0.365   4.315   6.240
15382TIP3   OH246067   8.463   3.705   6.444
15382TIP3    H146068   8.511   3.674   6.521
15382TIP3    H246069   8.530   3.718   6.377
15383TIP3   OH246070   8.895   3.881   6.250
15383TIP3    H146071   8.908   3.901   6.342
15383TIP3    H246072   8.823   3.818   6.249
15384TIP3   OH246073   8.634   3.636   6.657
15384TIP3    H146074   8.613   3.602   6.744
15384TIP3    H246075   8.683   3.565   6.615
15385TIP3   OH246076   8.755   3.442   6.501
15385TIP3    H146077   8.716   3.451   6.414
15385TIP3    H246078   8.841   3.403   6.484
15386TIP3   OH246079   8.539   4.516   6.445
15386TIP3    H146080   8.634   4.520   6.446
15386TIP3    H246081   8.514   4.550   6.359
15387TIP3   OH246082   8.063   3.891   6.614
15387TIP3    H146083   8.158   3.901   6.609
15387TIP3    H246084   8.046   3.805   6.574
15388TIP3   OH246085   7.979   4.470   7.041
15388TIP3    H146086   7.910   4.414   7.008
15388TIP3    H246087   8.025   4.416   7.105
15389TIP3   OH246088   8.126   4.320   7.223
15389TIP3    H146089   8.127   4.265   7.301
15389TIP3    H246090   8.152   4.406   7.254
15390TIP3   OH246091   2.326   7.950   0.311
15390TIP3    H146092   2.313   7.916   0.223
15390TIP3    H246093   2.407   7.910   0.342
15391TIP3   OH246094   2.320   7.575   0.353
15391TIP3    H146095   2.371   7.551   0.276
15391TIP3    H246096   2.365   7.651   0.390
15392TIP3   OH246097   8.218   2.950   7.200
15392TIP3    H146098   8.129   2.918   7.210
15392TIP3    H246099   8.224   2.980   7.109
15393TIP3   OH246100   0.469   4.589   6.685
15393TIP3    H146101   0.524   4.581   6.607
15393TIP3    H246102   0.514   4.652   6.740
15394TIP3   OH246103   5.376   0.404   0.356
15394TIP3    H146104   5.322   0.483   0.353
15394TIP3    H246105   5.365   0.372   0.446
15395TIP3   OH246106   5.612   0.480   0.194
15395TIP3    H146107   5.666   0.473   0.273
15395TIP3    H246108   5.663   0.535   0.135
15396TIP3   OH246109   0.106   4.653   7.244
15396TIP3    H146110   0.024   4.673   7.198
15396TIP3    H246111   0.148   4.738   7.257
15397TIP3   OH246112   5.522   0.204   0.117
15397TIP3    H146113   5.520   0.108   0.115
15397TIP3    H246114   5.599   0.227   0.065
15398TIP3   OH246115   5.751   0.280  -0.012
15398TIP3    H146116   5.769   0.192  -0.046
15398TIP3    H246117   5.811   0.290   0.062
15399TIP3   OH246118   8.317   2.711   6.957
15399TIP3    H146119   8.370   2.752   6.888
15399TIP3    H246120   8.334   2.763   7.035
15400TIP3   OH246121   8.074   4.280   6.778
15400TIP3    H146122   7.990   4.247   6.747
15400TIP3    H246123   8.076   4.371   6.749
15401TIP3   OH246124   8.481   2.837   6.769
15401TIP3    H146125   8.527   2.777   6.710
15401TIP3    H246126   8.551   2.884   6.814
15402TIP3   OH246127   8.808   4.477   6.407
15402TIP3    H146128   8.883   4.502   6.354
15402TIP3    H246129   8.764   4.409   6.356
15403TIP3   OH246130   8.161   4.290   6.423
15403TIP3    H146131   8.166   4.302   6.518
15403TIP3    H246132   8.239   4.240   6.400
15404TIP3   OH246133   7.565   0.664   1.147
15404TIP3    H146134   7.513   0.630   1.074
15404TIP3    H246135   7.513   0.735   1.184
15405TIP3   OH246136   7.668   1.015   1.194
15405TIP3    H146137   7.722   0.936   1.181
15405TIP3    H246138   7.726   1.087   1.170
15406TIP3   OH246139   7.807   0.792   1.118
15406TIP3    H146140   7.727   0.740   1.120
15406TIP3    H246141   7.877   0.729   1.136
15407TIP3   OH246142   7.426   0.229   1.081
15407TIP3    H146143   7.375   0.308   1.100
15407TIP3    H246144   7.513   0.262   1.059
15408TIP3   OH246145   7.431   0.064   0.862
15408TIP3    H146146   7.445   0.118   0.940
15408TIP3    H246147   7.519   0.042   0.832
15409TIP3   OH246148   7.783   0.446   1.135
15409TIP3    H146149   7.717   0.496   1.182
15409TIP3    H246150   7.853   0.432   1.199
15410TIP3   OH246151   7.671   0.248   0.958
15410TIP3    H146152   7.726   0.305   1.012
15410TIP3    H246153   7.700   0.266   0.868
15411TIP3   OH246154   7.421   0.895   1.218
15411TIP3    H146155   7.500   0.947   1.228
15411TIP3    H246156   7.361   0.951   1.168
15412TIP3   OH246157   5.213   7.808   1.035
15412TIP3    H146158   5.142   7.759   1.077
15412TIP3    H246159   5.189   7.900   1.047
15413TIP3   OH246160   8.003   0.822   0.584
15413TIP3    H146161   7.997   0.914   0.559
15413TIP3    H246162   8.091   0.795   0.558
15414TIP3   OH246163   7.300   1.098   1.052
15414TIP3    H146164   7.258   1.082   0.968
15414TIP3    H246165   7.276   1.189   1.074
15415TIP3   OH246166   7.499   1.050   0.675
15415TIP3    H146167   7.550   0.979   0.637
15415TIP3    H246168   7.533   1.058   0.765
15416TIP3   OH246169   7.552   1.072   0.946
15416TIP3    H146170   7.465   1.078   0.985
15416TIP3    H246171   7.608   1.041   1.018
15417TIP3   OH246172   7.740   0.263   0.692
15417TIP3    H146173   7.699   0.275   0.606
15417TIP3    H246174   7.830   0.291   0.680
15418TIP3   OH246175   4.388   7.946   0.949
15418TIP3    H146176   4.388   8.041   0.967
15418TIP3    H246177   4.457   7.911   1.005
15419TIP3   OH246178   7.218   0.430   1.126
15419TIP3    H146179   7.157   0.360   1.101
15419TIP3    H246180   7.204   0.442   1.220
15420TIP3   OH246181   4.658   8.109   1.060
15420TIP3    H146182   4.583   8.103   1.118
15420TIP3    H246183   4.678   8.203   1.054
15421TIP3   OH246184   7.717  -0.022   1.009
15421TIP3    H146185   7.782  -0.002   1.076
15421TIP3    H246186   7.684   0.064   0.982
15422TIP3   OH246187   7.380   0.572   0.956
15422TIP3    H146188   7.338   0.658   0.950
15422TIP3    H246189   7.323   0.521   1.013
15423TIP3   OH246190   8.239   0.124   0.932
15423TIP3    H146191   8.176   0.052   0.933
15423TIP3    H246192   8.203   0.187   0.870
15424TIP3   OH246193   7.922   0.907   0.845
15424TIP3    H146194   7.881   0.846   0.906
15424TIP3    H246195   7.940   0.855   0.767
15425TIP3   OH246196   7.666   0.636   0.715
15425TIP3    H146197   7.722   0.611   0.789
15425TIP3    H246198   7.584   0.588   0.730
15426TIP3   OH246199   8.012   1.089   0.524
15426TIP3    H146200   8.037   1.150   0.454
15426TIP3    H246201   7.935   1.130   0.564
15427TIP3   OH246202   7.852   0.562   0.897
15427TIP3    H146203   7.831   0.519   0.980
15427TIP3    H246204   7.948   0.565   0.895
15428TIP3   OH246205   7.038   0.607   0.738
15428TIP3    H146206   7.045   0.515   0.713
15428TIP3    H246207   7.020   0.606   0.832
15429TIP3   OH246208   6.992   0.612   1.008
15429TIP3    H146209   7.070   0.586   1.058
15429TIP3    H246210   6.986   0.707   1.021
15430TIP3   OH246211   7.244   0.804   0.952
15430TIP3    H146212   7.162   0.832   0.994
15430TIP3    H246213   7.266   0.875   0.892
15431TIP3   OH246214   6.992   0.888   1.035
15431TIP3    H146215   6.976   0.948   0.962
15431TIP3    H246216   6.949   0.929   1.110
15432TIP3   OH246217   6.733   0.499   0.994
15432TIP3    H146218   6.811   0.553   1.007
15432TIP3    H246219   6.765   0.424   0.943
15433TIP3   OH246220   8.026   1.290   1.498
15433TIP3    H146221   7.978   1.329   1.425
15433TIP3    H246222   8.007   1.197   1.493
15434TIP3   OH246223   7.190   0.811   0.634
15434TIP3    H146224   7.141   0.740   0.677
15434TIP3    H246225   7.263   0.767   0.591
15435TIP3   OH246226   7.628   0.847   0.551
15435TIP3    H146227   7.659   0.779   0.611
15435TIP3    H246228   7.687   0.841   0.475
15436TIP3   OH246229   6.858   0.285   0.865
15436TIP3    H146230   6.911   0.262   0.942
15436TIP3    H246231   6.922   0.306   0.797
15437TIP3   OH246232   7.413   0.512   0.690
15437TIP3    H146233   7.389   0.526   0.781
15437TIP3    H246234   7.392   0.420   0.673
15438TIP3   OH246235   7.054   0.213   1.069
15438TIP3    H146236   7.036   0.143   1.132
15438TIP3    H246237   7.093   0.168   0.994
15439TIP3   OH246238   7.159   0.086   0.856
15439TIP3    H146239   7.134   0.074   0.764
15439TIP3    H246240   7.254   0.079   0.856
15440TIP3   OH246241   7.978   0.341   0.575
15440TIP3    H146242   7.954   0.304   0.490
15440TIP3    H246243   7.953   0.433   0.568
15441TIP3   OH246244   6.980   1.087   0.846
15441TIP3    H146245   7.072   1.086   0.818
15441TIP3    H246246   6.934   1.129   0.774
15442TIP3   OH246247   8.274   1.415   1.489
15442TIP3    H146248   8.190   1.373   1.505
15442TIP3    H246249   8.299   1.386   1.401
15443TIP3   OH246250   8.128   0.567   0.908
15443TIP3    H146251   8.182   0.637   0.873
15443TIP3    H246252   8.173   0.539   0.988
15444TIP3   OH246253   8.260   0.462   1.122
15444TIP3    H146254   8.193   0.426   1.181
15444TIP3    H246255   8.329   0.493   1.181
15445TIP3   OH246256   8.172   0.335   0.767
15445TIP3    H146257   8.105   0.331   0.698
15445TIP3    H246258   8.154   0.416   0.814
15446TIP3   OH246259   8.040   0.044   0.697
15446TIP3    H146260   8.041   0.113   0.631
15446TIP3    H246261   8.050  -0.037   0.648
15447TIP3   OH246262   8.025   0.348   1.254
15447TIP3    H146263   7.982   0.284   1.198
15447TIP3    H246264   8.037   0.303   1.338
15448TIP3   OH246265   5.068   8.173   0.609
15448TIP3    H146266   5.080   8.122   0.689
15448TIP3    H246267   4.974   8.192   0.607
15449TIP3   OH246268   5.103   8.356   1.206
15449TIP3    H146269   5.078   8.278   1.257
15449TIP3    H246270   5.105   8.326   1.116
15450TIP3   OH246271   0.943   1.317   7.237
15450TIP3    H146272   0.927   1.384   7.303
15450TIP3    H246273   0.972   1.365   7.159
15451TIP3   OH246274   5.374   8.054   0.854
15451TIP3    H146275   5.390   8.008   0.772
15451TIP3    H246276   5.406   8.143   0.838
15452TIP3   OH246277   7.818   1.211   1.093
15452TIP3    H146278   7.867   1.204   1.010
15452TIP3    H246279   7.867   1.275   1.144
15453TIP3   OH246280   7.246   1.032   0.783
15453TIP3    H146281   7.328   1.060   0.742
15453TIP3    H246282   7.212   0.964   0.724
15454TIP3   OH246283   7.961   1.176   0.857
15454TIP3    H146284   7.954   1.081   0.856
15454TIP3    H246285   7.917   1.204   0.777
15455TIP3   OH246286   0.532   0.698   0.848
15455TIP3    H146287   0.508   0.783   0.813
15455TIP3    H246288   0.472   0.636   0.806
15456TIP3   OH246289   0.563   0.730   1.166
15456TIP3    H146290   0.542   0.652   1.216
15456TIP3    H246291   0.552   0.703   1.074
15457TIP3   OH246292   0.811   0.993   0.902
15457TIP3    H146293   0.817   0.925   0.969
15457TIP3    H246294   0.834   1.074   0.948
15458TIP3   OH246295   8.689   0.987   1.325
15458TIP3    H146296   8.682   0.894   1.301
15458TIP3    H246297   8.770   0.992   1.377
15459TIP3   OH246298   8.436   0.339   0.944
15459TIP3    H146299   8.373   0.397   0.986
15459TIP3    H246300   8.383   0.270   0.904
15460TIP3   OH246301   8.482   0.539   1.270
15460TIP3    H146302   8.542   0.476   1.310
15460TIP3    H246303   8.537   0.615   1.250
15461TIP3   OH246304   0.479   1.418   0.925
15461TIP3    H146305   0.499   1.357   0.854
15461TIP3    H246306   0.486   1.365   1.004
15462TIP3   OH246307   0.335   0.910   1.226
15462TIP3    H146308   0.376   0.833   1.187
15462TIP3    H246309   0.408   0.970   1.243
15463TIP3   OH246310   1.399   0.232   1.235
15463TIP3    H146311   1.410   0.315   1.282
15463TIP3    H246312   1.422   0.252   1.145
15464TIP3   OH246313   0.770   0.381   1.279
15464TIP3    H146314   0.828   0.305   1.283
15464TIP3    H246315   0.726   0.372   1.194
15465TIP3   OH246316   0.197   0.121   1.251
15465TIP3    H146317   0.136   0.167   1.194
15465TIP3    H246318   0.141   0.076   1.315
15466TIP3   OH246319   0.816   0.165   0.856
15466TIP3    H146320   0.883   0.155   0.924
15466TIP3    H246321   0.864   0.201   0.781
15467TIP3   OH246322   8.674   0.395   1.406
15467TIP3    H146323   8.766   0.410   1.428
15467TIP3    H246324   8.653   0.312   1.448
15468TIP3   OH246325   0.158   0.547   1.163
15468TIP3    H146326   0.254   0.542   1.167
15468TIP3    H246327   0.132   0.463   1.125
15469TIP3   OH246328   1.432   0.455   1.392
15469TIP3    H146329   1.343   0.489   1.398
15469TIP3    H246330   1.474   0.483   1.473
15470TIP3   OH246331   0.423   0.900   0.695
15470TIP3    H146332   0.394   0.878   0.607
15470TIP3    H246333   0.381   0.984   0.714
15471TIP3   OH246334   0.206   0.840   1.459
15471TIP3    H146335   0.138   0.905   1.476
15471TIP3    H246336   0.246   0.868   1.377
15472TIP3   OH246337   0.996   0.186   1.058
15472TIP3    H146338   0.968   0.155   1.144
15472TIP3    H246339   1.050   0.263   1.077
15473TIP3   OH246340  -0.015   0.181   1.471
15473TIP3    H146341   0.048   0.250   1.493
15473TIP3    H246342   0.030   0.100   1.493
15474TIP3   OH246343   8.900   1.018   1.516
15474TIP3    H146344   8.896   1.113   1.505
15474TIP3    H246345   8.868   1.003   1.605
15475TIP3   OH246346   8.302   0.752   0.799
15475TIP3    H146347   8.275   0.774   0.710
15475TIP3    H246348   8.328   0.836   0.838
15476TIP3   OH246349   0.842   1.245   1.035
15476TIP3    H146350   0.753   1.244   1.071
15476TIP3    H246351   0.848   1.329   0.990
15477TIP3   OH246352   1.180   0.163   1.397
15477TIP3    H146353   1.098   0.158   1.347
15477TIP3    H246354   1.248   0.179   1.331
15478TIP3   OH246355   6.469   8.114   1.454
15478TIP3    H146356   6.403   8.050   1.481
15478TIP3    H246357   6.447   8.193   1.505
15479TIP3   OH246358   0.558   1.275   0.698
15479TIP3    H146359   0.609   1.195   0.687
15479TIP3    H246360   0.617   1.346   0.673
15480TIP3   OH246361   0.711   1.056   0.652
15480TIP3    H146362   0.706   0.977   0.599
15480TIP3    H246363   0.747   1.027   0.736
15481TIP3   OH246364   1.059   1.136   1.411
15481TIP3    H146365   1.059   1.060   1.352
15481TIP3    H246366   1.054   1.211   1.352
15482TIP3   OH246367   0.380   0.548   0.665
15482TIP3    H146368   0.294   0.588   0.648
15482TIP3    H246369   0.421   0.544   0.578
15483TIP3   OH246370   0.348   0.340   0.350
15483TIP3    H146371   0.413   0.390   0.399
15483TIP3    H246372   0.400   0.274   0.303
15484TIP3   OH246373   1.263   0.791   1.249
15484TIP3    H146374   1.184   0.845   1.245
15484TIP3    H246375   1.315   0.821   1.174
15485TIP3   OH246376   0.718   0.635   0.636
15485TIP3    H146377   0.667   0.660   0.714
15485TIP3    H246378   0.801   0.604   0.671
15486TIP3   OH246379   0.972   0.651   1.551
15486TIP3    H146380   0.969   0.738   1.590
15486TIP3    H246381   0.884   0.637   1.515
15487TIP3   OH246382   8.839   0.666   1.039
15487TIP3    H146383   8.803   0.606   0.974
15487TIP3    H246384   8.918   0.622   1.071
15488TIP3   OH246385   0.105   1.057   1.156
15488TIP3    H146386   0.067   1.031   1.072
15488TIP3    H246387   0.180   0.999   1.167
15489TIP3   OH246388   0.040   0.630   1.394
15489TIP3    H146389   0.082   0.604   1.312
15489TIP3    H246390   0.096   0.700   1.428
15490TIP3   OH246391   0.606   1.252   1.180
15490TIP3    H146392   0.618   1.299   1.262
15490TIP3    H246393   0.599   1.160   1.206
15491TIP3   OH246394   0.563   0.491   0.456
15491TIP3    H146395   0.619   0.551   0.506
15491TIP3    H246396   0.593   0.500   0.365
15492TIP3   OH246397   0.309   1.155   0.715
15492TIP3    H146398   0.393   1.202   0.714
15492TIP3    H246399   0.251   1.210   0.663
15493TIP3   OH246400   7.013   8.101   0.510
15493TIP3    H146401   6.937   8.124   0.564
15493TIP3    H246402   7.024   8.177   0.452
15494TIP3   OH246403   8.733   0.510   0.842
15494TIP3    H146404   8.649   0.532   0.803
15494TIP3    H246405   8.730   0.415   0.855
15495TIP3   OH246406   0.898   1.089   0.069
15495TIP3    H146407   0.892   1.181   0.044
15495TIP3    H246408   0.988   1.064   0.045
15496TIP3   OH246409   8.405   1.052   1.368
15496TIP3    H146410   8.493   1.016   1.354
15496TIP3    H246411   8.415   1.109   1.445
15497TIP3   OH246412   1.315   1.437   1.457
15497TIP3    H146413   1.260   1.359   1.449
15497TIP3    H246414   1.274   1.487   1.528
15498TIP3   OH246415   0.439   1.238   1.583
15498TIP3    H146416   0.446   1.325   1.623
15498TIP3    H246417   0.347   1.213   1.597
15499TIP3   OH246418   0.201   1.378   0.538
15499TIP3    H146419   0.156   1.356   0.457
15499TIP3    H246420   0.161   1.460   0.567
15500TIP3   OH246421   8.541   1.228   0.919
15500TIP3    H146422   8.584   1.217   1.004
15500TIP3    H246423   8.488   1.149   0.908
15501TIP3   OH246424   0.402   1.310   0.167
15501TIP3    H146425   0.451   1.236   0.132
15501TIP3    H246426   0.438   1.323   0.255
15502TIP3   OH246427   0.455   1.354   0.437
15502TIP3    H146428   0.368   1.358   0.476
15502TIP3    H246429   0.509   1.313   0.505
15503TIP3   OH246430   1.214   0.609   1.684
15503TIP3    H146431   1.130   0.627   1.641
15503TIP3    H246432   1.231   0.517   1.665
15504TIP3   OH246433   0.967   0.409   1.691
15504TIP3    H146434   0.971   0.447   1.778
15504TIP3    H246435   0.952   0.483   1.633
15505TIP3   OH246436   0.646   0.488   0.198
15505TIP3    H146437   0.595   0.482   0.118
15505TIP3    H246438   0.730   0.526   0.170
15506TIP3   OH246439   6.305   8.275   0.443
15506TIP3    H146440   6.276   8.282   0.533
15506TIP3    H246441   6.257   8.200   0.407
15507TIP3   OH246442   0.143   0.397   1.496
15507TIP3    H146443   0.181   0.407   1.583
15507TIP3    H246444   0.111   0.484   1.473
15508TIP3   OH246445   0.083   0.313   1.041
15508TIP3    H146446   0.011   0.285   1.098
15508TIP3    H246447   0.050   0.298   0.952
15509TIP3   OH246448   0.521   0.349   0.788
15509TIP3    H146449   0.472   0.421   0.749
15509TIP3    H246450   0.578   0.318   0.718
15510TIP3   OH246451   0.685   0.350   1.016
15510TIP3    H146452   0.610   0.374   0.961
15510TIP3    H246453   0.726   0.277   0.971
15511TIP3   OH246454   5.953   8.259   0.481
15511TIP3    H146455   5.952   8.263   0.576
15511TIP3    H246456   5.874   8.305   0.454
15512TIP3   OH246457   5.596   8.380   1.282
15512TIP3    H146458   5.582   8.466   1.242
15512TIP3    H246459   5.567   8.318   1.215
15513TIP3   OH246460   5.438   8.317   0.822
15513TIP3    H146461   5.472   8.344   0.736
15513TIP3    H246462   5.391   8.393   0.855
15514TIP3   OH246463   0.726   0.578   1.465
15514TIP3    H146464   0.739   0.512   1.397
15514TIP3    H246465   0.633   0.571   1.487
15515TIP3   OH246466   0.394   0.088   1.051
15515TIP3    H146467   0.334   0.088   1.126
15515TIP3    H246468   0.475   0.050   1.084
15516TIP3   OH246469   8.635   0.033   0.995
15516TIP3    H146470   8.599   0.102   1.049
15516TIP3    H246471   8.714   0.004   1.042
15517TIP3   OH246472   0.064   0.103   0.765
15517TIP3    H146473   0.157   0.128   0.763
15517TIP3    H246474   0.031   0.124   0.678
15518TIP3   OH246475   0.909   0.130   1.313
15518TIP3    H146476   0.901   0.156   1.405
15518TIP3    H246477   0.844   0.060   1.302
15519TIP3   OH246478   8.818   0.160   0.546
15519TIP3    H146479   8.755   0.110   0.494
15519TIP3    H246480   8.867   0.212   0.481
15520TIP3   OH246481   1.035   1.868   1.537
15520TIP3    H146482   1.025   1.889   1.444
15520TIP3    H246483   1.114   1.916   1.563
15521TIP3   OH246484   0.468   0.495   1.284
15521TIP3    H146485   0.443   0.449   1.204
15521TIP3    H246486   0.466   0.428   1.352
15522TIP3   OH246487   5.881   8.330   1.143
15522TIP3    H146488   5.870   8.255   1.200
15522TIP3    H246489   5.964   8.314   1.098
15523TIP3   OH246490   0.477   0.409   1.618
15523TIP3    H146491   0.439   0.360   1.545
15523TIP3    H246492   0.537   0.348   1.660
15524TIP3   OH246493   0.135   0.668   0.607
15524TIP3    H146494   0.058   0.616   0.583
15524TIP3    H246495   0.109   0.714   0.687
15525TIP3   OH246496   1.034   0.944   1.218
15525TIP3    H146497   1.074   0.989   1.143
15525TIP3    H246498   0.961   0.894   1.181
15526TIP3   OH246499   0.614   0.000   0.493
15526TIP3    H146500   0.522  -0.021   0.475
15526TIP3    H246501   0.615   0.095   0.505
15527TIP3   OH246502   0.600   0.989   1.564
15527TIP3    H146503   0.557   0.906   1.584
15527TIP3    H246504   0.537   1.056   1.591
15528TIP3   OH246505   0.672   0.261   0.571
15528TIP3    H146506   0.768   0.265   0.578
15528TIP3    H246507   0.649   0.338   0.518
15529TIP3   OH246508   8.705   0.715   1.272
15529TIP3    H146509   8.741   0.707   1.184
15529TIP3    H246510   8.774   0.681   1.329
15530TIP3   OH246511   0.290   0.832   0.453
15530TIP3    H146512   0.243   0.915   0.450
15530TIP3    H246513   0.233   0.774   0.504
15531TIP3   OH246514   0.683   1.296   1.457
15531TIP3    H146515   0.597   1.270   1.491
15531TIP3    H246516   0.745   1.243   1.507
15532TIP3   OH246517   1.082   0.345   0.396
15532TIP3    H146518   1.025   0.300   0.334
15532TIP3    H246519   1.088   0.435   0.362
15533TIP3   OH246520   0.821   1.156   0.332
15533TIP3    H146521   0.789   1.083   0.385
15533TIP3    H246522   0.840   1.116   0.246
15534TIP3   OH246523   0.832   0.793   1.103
15534TIP3    H146524   0.743   0.774   1.135
15534TIP3    H246525   0.863   0.710   1.068
15535TIP3   OH246526   8.852   1.040   0.922
15535TIP3    H146527   8.846   1.117   0.865
15535TIP3    H246528   8.762   1.016   0.939
15536TIP3   OH246529   8.409   0.330   0.619
15536TIP3    H146530   8.458   0.407   0.649
15536TIP3    H246531   8.329   0.331   0.671
15537TIP3   OH246532   0.045   0.803   0.822
15537TIP3    H146533   0.036   0.895   0.846
15537TIP3    H246534   0.009   0.755   0.896
15538TIP3   OH246535   0.232   1.351   1.379
15538TIP3    H146536   0.255   1.431   1.331
15538TIP3    H246537   0.314   1.302   1.383
15539TIP3   OH246538   8.769   1.256   0.769
15539TIP3    H146539   8.683   1.260   0.811
15539TIP3    H246540   8.802   1.346   0.774
15540TIP3   OH246541   0.592   0.996   1.288
15540TIP3    H146542   0.605   0.987   1.383
15540TIP3    H246543   0.607   0.908   1.254
15541TIP3   OH246544   0.590   0.895   0.227
15541TIP3    H146545   0.629   0.876   0.312
15541TIP3    H246546   0.506   0.849   0.228
15542TIP3   OH246547   0.818   1.535   1.428
15542TIP3    H146548   0.752   1.466   1.424
15542TIP3    H246549   0.808   1.582   1.346
15543TIP3   OH246550   0.890   1.361   0.020
15543TIP3    H146551   0.894   1.415  -0.060
15543TIP3    H246552   0.822   1.403   0.073
15544TIP3   OH246553   0.751   0.843   0.454
15544TIP3    H146554   0.732   0.771   0.514
15544TIP3    H246555   0.845   0.834   0.435
15545TIP3   OH246556   8.578   1.258   1.523
15545TIP3    H146557   8.672   1.253   1.507
15545TIP3    H246558   8.568   1.233   1.615
15546TIP3   OH246559   8.832   0.858   0.236
15546TIP3    H146560   8.842   0.767   0.208
15546TIP3    H246561   8.818   0.853   0.331
15547TIP3   OH246562   8.774   0.876   0.508
15547TIP3    H146563   8.837   0.850   0.575
15547TIP3    H246564   8.774   0.972   0.511
15548TIP3   OH246565   8.500   0.578   0.707
15548TIP3    H146566   8.435   0.625   0.758
15548TIP3    H246567   8.520   0.636   0.634
15549TIP3   OH246568   0.845   0.197   1.565
15549TIP3    H146569   0.892   0.267   1.611
15549TIP3    H246570   0.766   0.183   1.617
15550TIP3   OH246571   6.613   8.341   0.754
15550TIP3    H146572   6.593   8.365   0.663
15550TIP3    H246573   6.652   8.420   0.791
15551TIP3   OH246574   0.146   1.062   0.447
15551TIP3    H146575   0.061   1.086   0.482
15551TIP3    H246576   0.169   1.133   0.387
15552TIP3   OH246577   0.332   0.152   0.795
15552TIP3    H146578   0.392   0.224   0.778
15552TIP3    H246579   0.351   0.125   0.885
15553TIP3   OH246580   6.419   8.230   0.904
15553TIP3    H146581   6.437   8.267   0.990
15553TIP3    H246582   6.486   8.267   0.847
15554TIP3   OH246583   8.795   1.149   0.519
15554TIP3    H146584   8.776   1.220   0.458
15554TIP3    H246585   8.784   1.188   0.606
15555TIP3   OH246586   5.908   8.233   0.760
15555TIP3    H146587   5.934   8.323   0.779
15555TIP3    H246588   5.976   8.179   0.799
15556TIP3   OH246589   1.223   0.334   1.619
15556TIP3    H146590   1.131   0.337   1.645
15556TIP3    H246591   1.224   0.278   1.541
15557TIP3   OH246592   0.898   0.535   1.018
15557TIP3    H146593   0.823   0.476   1.029
15557TIP3    H246594   0.968   0.494   1.069
15558TIP3   OH246595   8.528   0.750   0.490
15558TIP3    H146596   8.600   0.811   0.501
15558TIP3    H246597   8.560   0.685   0.427
15559TIP3   OH246598   8.446   0.057   0.587
15559TIP3    H146599   8.458   0.150   0.606
15559TIP3    H246600   8.397   0.055   0.505
15560TIP3   OH246601   0.878   1.512   0.963
15560TIP3    H146602   0.830   1.565   0.900
15560TIP3    H246603   0.970   1.533   0.948
15561TIP3   OH246604   8.359   1.014   0.894
15561TIP3    H146605   8.317   1.052   0.970
15561TIP3    H246606   8.317   1.055   0.819
15562TIP3   OH246607   0.084   1.060   0.127
15562TIP3    H146608   0.037   0.989   0.170
15562TIP3    H246609   0.158   1.017   0.084
15563TIP3   OH246610   0.808   1.431   1.719
15563TIP3    H146611   0.738   1.365   1.726
15563TIP3    H246612   0.863   1.416   1.795
15564TIP3   OH246613   0.528   1.098   0.050
15564TIP3    H146614   0.565   1.034   0.111
15564TIP3    H246615   0.585   1.093  -0.027
15565TIP3   OH246616   8.649   0.555   0.342
15565TIP3    H146617   8.699   0.531   0.419
15565TIP3    H246618   8.715   0.568   0.273
15566TIP3   OH246619   0.342   0.772   0.190
15566TIP3    H146620   0.314   0.783   0.281
15566TIP3    H246621   0.321   0.681   0.170
15567TIP3   OH246622   0.852   1.121   1.594
15567TIP3    H146623   0.919   1.115   1.526
15567TIP3    H246624   0.788   1.054   1.569
15568TIP3   OH246625   8.824   0.496   0.550
15568TIP3    H146626   8.802   0.462   0.637
15568TIP3    H246627   8.874   0.427   0.509
15569TIP3   OH246628   0.072   0.321   0.390
15569TIP3    H146629   0.046   0.324   0.298
15569TIP3    H246630   0.168   0.325   0.387
15570TIP3   OH246631   0.870   0.596   0.075
15570TIP3    H146632   0.852   0.555  -0.010
15570TIP3    H246633   0.845   0.688   0.062
15571TIP3   OH246634   0.442   0.758   1.590
15571TIP3    H146635   0.439   0.665   1.611
15571TIP3    H246636   0.356   0.776   1.552
15572TIP3   OH246637   1.011   0.897   1.669
15572TIP3    H146638   0.954   0.974   1.676
15572TIP3    H246639   1.097   0.933   1.644
15573TIP3   OH246640   8.795   1.362   0.341
15573TIP3    H146641   8.883   1.339   0.312
15573TIP3    H246642   8.755   1.405   0.265
15574TIP3   OH246643   8.256   0.740   0.510
15574TIP3    H146644   8.350   0.753   0.504
15574TIP3    H246645   8.241   0.653   0.473
15575TIP3   OH246646   8.174   1.323   0.951
15575TIP3    H146647   8.106   1.274   0.906
15575TIP3    H246648   8.211   1.262   1.014
15576TIP3   OH246649   8.304   1.164   1.134
15576TIP3    H146650   8.310   1.098   1.204
15576TIP3    H246651   8.355   1.238   1.166
15577TIP3   OH246652   1.135   1.604   0.932
15577TIP3    H146653   1.149   1.691   0.970
15577TIP3    H246654   1.199   1.597   0.861
15578TIP3   OH246655   1.117   1.600   1.261
15578TIP3    H146656   1.073   1.518   1.237
15578TIP3    H246657   1.207   1.587   1.232
15579TIP3   OH246658   1.236   1.287   1.785
15579TIP3    H146659   1.147   1.304   1.816
15579TIP3    H246660   1.274   1.374   1.774
15580TIP3   OH246661   1.029   0.805   0.423
15580TIP3    H146662   1.085   0.876   0.391
15580TIP3    H246663   1.078   0.768   0.496
15581TIP3   OH246664   1.165   0.664   0.627
15581TIP3    H146665   1.092   0.625   0.675
15581TIP3    H246666   1.225   0.696   0.694
15582TIP3   OH246667   1.196   1.063   1.033
15582TIP3    H146668   1.272   1.006   1.020
15582TIP3    H246669   1.209   1.135   0.972
15583TIP3   OH246670   0.995   1.350   1.243
15583TIP3    H146671   0.912   1.369   1.287
15583TIP3    H246672   0.969   1.305   1.162
15584TIP3   OH246673   1.073   0.585   0.261
15584TIP3    H146674   1.004   0.582   0.194
15584TIP3    H246675   1.052   0.662   0.314
15585TIP3   OH246676   0.927   0.235   0.202
15585TIP3    H146677   0.881   0.273   0.127
15585TIP3    H246678   0.917   0.140   0.189
15586TIP3   OH246679   0.951   0.526   0.746
15586TIP3    H146680   0.959   0.432   0.730
15586TIP3    H246681   0.938   0.533   0.841
15587TIP3   OH246682   8.500   0.610   1.547
15587TIP3    H146683   8.460   0.598   1.460
15587TIP3    H246684   8.594   0.602   1.531
15588TIP3   OH246685   1.436   0.764   1.669
15588TIP3    H146686   1.348   0.727   1.678
15588TIP3    H246687   1.492   0.689   1.651
15589TIP3   OH246688   6.824   8.355   0.171
15589TIP3    H146689   6.886   8.326   0.237
15589TIP3    H246690   6.741   8.316   0.197
15590TIP3   OH246691   0.960   0.254   0.632
15590TIP3    H146692   1.005   0.170   0.647
15590TIP3    H246693   1.003   0.291   0.555
15591TIP3   OH246694   1.116   0.416   1.146
15591TIP3    H146695   1.200   0.433   1.102
15591TIP3    H246696   1.127   0.456   1.233
15592TIP3   OH246697   1.174   0.565   1.373
15592TIP3    H146698   1.100   0.594   1.426
15592TIP3    H246699   1.207   0.645   1.332
15593TIP3   OH246700   7.008   8.396   0.689
15593TIP3    H146701   7.053   8.382   0.772
15593TIP3    H246702   6.947   8.322   0.682
15594TIP3   OH246703   1.474   0.292   1.724
15594TIP3    H146704   1.383   0.316   1.705
15594TIP3    H246705   1.481   0.200   1.697
15595TIP3   OH246706   7.051   8.302   0.328
15595TIP3    H146707   7.098   8.244   0.269
15595TIP3    H246708   7.104   8.382   0.331
15596TIP3   OH246709   5.426   8.255   1.094
15596TIP3    H146710   5.373   8.177   1.078
15596TIP3    H246711   5.452   8.285   1.007
15597TIP3   OH246712   0.707   1.479   0.602
15597TIP3    H146713   0.757   1.461   0.522
15597TIP3    H246714   0.752   1.553   0.642
15598TIP3   OH246715  -0.018   1.292   1.489
15598TIP3    H146716  -0.054   1.379   1.473
15598TIP3    H246717   0.073   1.299   1.460
15599TIP3   OH246718   0.461   1.489   1.692
15599TIP3    H146719   0.459   1.534   1.777
15599TIP3    H246720   0.499   1.554   1.632
15600TIP3   OH246721   0.569   1.677   1.526
15600TIP3    H146722   0.576   1.630   1.443
15600TIP3    H246723   0.658   1.709   1.542
15601TIP3   OH246724   1.435   0.044   1.615
15601TIP3    H146725   1.346   0.011   1.606
15601TIP3    H246726   1.489  -0.035   1.617
15602TIP3   OH246727   8.573   1.548   1.547
15602TIP3    H146728   8.498   1.607   1.553
15602TIP3    H246729   8.535   1.460   1.551
15603TIP3   OH246730   8.809   1.546   1.417
15603TIP3    H146731   8.728   1.557   1.466
15603TIP3    H246732   8.787   1.575   1.328
15604TIP3   OH246733   0.298   1.566   1.217
15604TIP3    H146734   0.232   1.575   1.149
15604TIP3    H246735   0.309   1.654   1.252
15605TIP3   OH246736   0.564   1.539   1.289
15605TIP3    H146737   0.478   1.535   1.248
15605TIP3    H246738   0.621   1.576   1.221
15606TIP3   OH246739   0.791   1.661   1.176
15606TIP3    H146740   0.788   1.747   1.135
15606TIP3    H246741   0.821   1.602   1.106
15607TIP3   OH246742   8.475   1.342   1.275
15607TIP3    H146743   8.496   1.325   1.367
15607TIP3    H246744   8.546   1.300   1.226
15608TIP3   OH246745   8.681   1.208   1.156
15608TIP3    H146746   8.691   1.129   1.209
15608TIP3    H246747   8.768   1.247   1.155
15609TIP3   OH246748   0.043   1.321   1.166
15609TIP3    H146749   0.068   1.231   1.146
15609TIP3    H246750   0.090   1.342   1.246
15610TIP3   OH246751   6.556   8.353   1.124
15610TIP3    H146752   6.567   8.377   1.216
15610TIP3    H246753   6.645   8.346   1.090
15611TIP3   OH246754   7.068   8.273   1.143
15611TIP3    H146755   7.113   8.312   1.068
15611TIP3    H246756   6.977   8.301   1.133
15612TIP3   OH246757   7.175   8.343   0.903
15612TIP3    H146758   7.242   8.281   0.873
15612TIP3    H246759   7.215   8.429   0.893
15613TIP3   OH246760   5.823   8.095   1.277
15613TIP3    H146761   5.729   8.077   1.273
15613TIP3    H246762   5.861   8.041   1.208
15614TIP3   OH246763   5.639   7.916   0.835
15614TIP3    H146764   5.661   7.948   0.748
15614TIP3    H246765   5.639   7.994   0.890
15615TIP3   OH246766   6.225   8.061   1.180
15615TIP3    H146767   6.314   8.056   1.146
15615TIP3    H246768   6.217   8.150   1.215
15616TIP3   OH246769   6.801   8.274   1.045
15616TIP3    H146770   6.845   8.234   0.970
15616TIP3    H246771   6.800   8.205   1.111
15617TIP3   OH246772   6.825   8.181   0.691
15617TIP3    H146773   6.748   8.233   0.711
15617TIP3    H246774   6.806   8.094   0.728
15618TIP3   OH246775   8.245   1.127   0.673
15618TIP3    H146776   8.163   1.093   0.636
15618TIP3    H246777   8.251   1.217   0.640
15619TIP3   OH246778   5.721   8.078   0.628
15619TIP3    H146779   5.771   8.056   0.549
15619TIP3    H246780   5.778   8.138   0.676
15620TIP3   OH246781   6.237   8.286   0.704
15620TIP3    H146782   6.287   8.245   0.774
15620TIP3    H246783   6.237   8.379   0.725
15621TIP3   OH246784   0.148   1.283   0.270
15621TIP3    H146785   0.231   1.310   0.231
15621TIP3    H246786   0.116   1.212   0.213
15622TIP3   OH246787   0.850   1.424   0.370
15622TIP3    H146788   0.845   1.329   0.362
15622TIP3    H246789   0.806   1.457   0.292
15623TIP3   OH246790   8.357   1.125   0.325
15623TIP3    H146791   8.360   1.139   0.419
15623TIP3    H246792   8.438   1.077   0.305
15624TIP3   OH246793   1.079   1.598   1.534
15624TIP3    H146794   1.095   1.588   1.440
15624TIP3    H246795   1.095   1.691   1.551
15625TIP3   OH246796   2.338   0.903   0.319
15625TIP3    H146797   2.311   0.994   0.305
15625TIP3    H246798   2.269   0.852   0.278
15626TIP3   OH246799   2.340   0.947   0.713
15626TIP3    H146800   2.390   0.930   0.793
15626TIP3    H246801   2.305   0.862   0.687
15627TIP3   OH246802   1.687   0.806   1.068
15627TIP3    H146803   1.700   0.713   1.083
15627TIP3    H246804   1.746   0.828   0.996
15628TIP3   OH246805   2.607   1.243   0.384
15628TIP3    H146806   2.593   1.180   0.455
15628TIP3    H246807   2.630   1.325   0.428
15629TIP3   OH246808   1.624   1.239   0.763
15629TIP3    H146809   1.607   1.145   0.756
15629TIP3    H246810   1.719   1.247   0.750
15630TIP3   OH246811   1.318   0.441   0.541
15630TIP3    H146812   1.277   0.522   0.568
15630TIP3    H246813   1.249   0.392   0.496
15631TIP3   OH246814   1.395   0.739   0.782
15631TIP3    H146815   1.450   0.665   0.805
15631TIP3    H246816   1.452   0.797   0.733
15632TIP3   OH246817   2.271   1.678   0.406
15632TIP3    H146818   2.292   1.614   0.337
15632TIP3    H246819   2.279   1.629   0.487
15633TIP3   OH246820   2.142   1.163   0.729
15633TIP3    H146821   2.189   1.086   0.696
15633TIP3    H246822   2.211   1.223   0.758
15634TIP3   OH246823   3.170   0.464   0.727
15634TIP3    H146824   3.183   0.549   0.770
15634TIP3    H246825   3.210   0.475   0.640
15635TIP3   OH246826   2.540   0.626   0.748
15635TIP3    H146827   2.595   0.551   0.770
15635TIP3    H246828   2.535   0.624   0.652
15636TIP3   OH246829   1.913   0.299   0.724
15636TIP3    H146830   1.884   0.339   0.806
15636TIP3    H246831   1.837   0.248   0.695
15637TIP3   OH246832   2.596   0.432   0.342
15637TIP3    H146833   2.659   0.427   0.414
15637TIP3    H246834   2.648   0.457   0.266
15638TIP3   OH246835   1.570   0.537   0.861
15638TIP3    H146836   1.651   0.515   0.907
15638TIP3    H246837   1.571   0.483   0.782
15639TIP3   OH246838   1.956   0.637   0.695
15639TIP3    H146839   1.915   0.641   0.781
15639TIP3    H246840   1.890   0.598   0.638
15640TIP3   OH246841   3.214   0.683   0.887
15640TIP3    H146842   3.126   0.720   0.886
15640TIP3    H246843   3.254   0.717   0.966
15641TIP3   OH246844   2.216   1.130   0.201
15641TIP3    H146845   2.194   1.116   0.109
15641TIP3    H246846   2.181   1.216   0.223
15642TIP3   OH246847   1.989   1.101   0.952
15642TIP3    H146848   1.930   1.171   0.983
15642TIP3    H246849   2.035   1.140   0.878
15643TIP3   OH246850   2.766   0.449   0.554
15643TIP3    H146851   2.740   0.420   0.642
15643TIP3    H246852   2.831   0.518   0.570
15644TIP3   OH246853   1.818   1.297   1.048
15644TIP3    H146854   1.803   1.386   1.018
15644TIP3    H246855   1.739   1.275   1.099
15645TIP3   OH246856   1.197   0.997   0.299
15645TIP3    H146857   1.162   1.013   0.211
15645TIP3    H246858   1.220   1.084   0.331
15646TIP3   OH246859   2.637   1.489   0.522
15646TIP3    H146860   2.551   1.476   0.563
15646TIP3    H246861   2.630   1.573   0.478
15647TIP3   OH246862   2.970   0.369   0.901
15647TIP3    H146863   2.885   0.393   0.864
15647TIP3    H246864   3.034   0.394   0.834
15648TIP3   OH246865   2.220   0.017   0.898
15648TIP3    H146866   2.214  -0.075   0.925
15648TIP3    H246867   2.145   0.059   0.939
15649TIP3   OH246868   2.350   1.524   0.187
15649TIP3    H146869   2.402   1.445   0.174
15649TIP3    H246870   2.408   1.595   0.161
15650TIP3   OH246871   2.504   1.307   0.136
15650TIP3    H146872   2.511   1.232   0.077
15650TIP3    H246873   2.542   1.277   0.219
15651TIP3   OH246874   2.835   1.375   0.872
15651TIP3    H146875   2.832   1.302   0.809
15651TIP3    H246876   2.838   1.453   0.817
15652TIP3   OH246877   2.157   0.770   0.163
15652TIP3    H146878   2.082   0.823   0.137
15652TIP3    H246879   2.207   0.757   0.083
15653TIP3   OH246880   5.096   4.786   7.113
15653TIP3    H146881   5.162   4.834   7.163
15653TIP3    H246882   5.146   4.720   7.064
15654TIP3   OH246883   3.035   1.021   0.734
15654TIP3    H146884   2.955   1.072   0.725
15654TIP3    H246885   3.081   1.033   0.650
15655TIP3   OH246886   2.520   0.882   0.111
15655TIP3    H146887   2.467   0.900   0.188
15655TIP3    H246888   2.606   0.858   0.146
15656TIP3   OH246889   2.739   0.888   1.037
15656TIP3    H146890   2.740   0.971   1.085
15656TIP3    H246891   2.657   0.890   0.987
15657TIP3   OH246892   1.754   0.838   0.510
15657TIP3    H146893   1.698   0.805   0.440
15657TIP3    H246894   1.815   0.766   0.527
15658TIP3   OH246895   1.886   1.280   0.658
15658TIP3    H146896   1.861   1.268   0.566
15658TIP3    H246897   1.974   1.244   0.664
15659TIP3   OH246898   1.857   0.881   0.859
15659TIP3    H146899   1.905   0.871   0.777
15659TIP3    H246900   1.902   0.953   0.904
15660TIP3   OH246901   2.401   1.476   0.656
15660TIP3    H146902   2.381   1.559   0.699
15660TIP3    H246903   2.386   1.409   0.723
15661TIP3   OH246904   2.014   1.382   1.220
15661TIP3    H146905   1.958   1.442   1.268
15661TIP3    H246906   1.954   1.337   1.160
15662TIP3   OH246907   5.317   4.926   7.220
15662TIP3    H146908   5.374   4.986   7.266
15662TIP3    H246909   5.346   4.930   7.129
15663TIP3   OH246910   1.803   0.936   1.304
15663TIP3    H146911   1.778   1.027   1.320
15663TIP3    H246912   1.748   0.908   1.232
15664TIP3   OH246913   2.108   1.391   0.211
15664TIP3    H146914   2.189   1.442   0.208
15664TIP3    H246915   2.048   1.439   0.153
15665TIP3   OH246916   1.817   1.555   1.310
15665TIP3    H146917   1.796   1.570   1.218
15665TIP3    H246918   1.732   1.544   1.353
15666TIP3   OH246919   5.851   4.145   7.268
15666TIP3    H146920   5.773   4.173   7.316
15666TIP3    H246921   5.865   4.214   7.203
15667TIP3   OH246922   1.612   0.709   0.310
15667TIP3    H146923   1.536   0.755   0.275
15667TIP3    H246924   1.578   0.623   0.336
15668TIP3   OH246925   5.664   5.540   6.820
15668TIP3    H146926   5.658   5.634   6.799
15668TIP3    H246927   5.753   5.515   6.793
15669TIP3   OH246928   1.285   1.291   0.887
15669TIP3    H146929   1.378   1.282   0.868
15669TIP3    H246930   1.279   1.366   0.945
15670TIP3   OH246931   3.070   1.707   0.920
15670TIP3    H146932   3.076   1.613   0.935
15670TIP3    H246933   2.984   1.732   0.955
15671TIP3   OH246934   2.199   1.510   1.065
15671TIP3    H146935   2.185   1.603   1.082
15671TIP3    H246936   2.133   1.466   1.119
15672TIP3   OH246937   1.998   1.634   0.024
15672TIP3    H146938   1.953   1.612  -0.057
15672TIP3    H246939   1.956   1.715   0.054
15673TIP3   OH246940   1.428   1.490   0.401
15673TIP3    H146941   1.471   1.480   0.486
15673TIP3    H246942   1.377   1.410   0.391
15674TIP3   OH246943   5.165   5.762   6.919
15674TIP3    H146944   5.215   5.688   6.884
15674TIP3    H246945   5.200   5.775   7.008
15675TIP3   OH246946   5.218   5.805   7.189
15675TIP3    H146947   5.131   5.809   7.230
15675TIP3    H246948   5.274   5.767   7.257
15676TIP3   OH246949   2.966   0.849   1.209
15676TIP3    H146950   2.888   0.839   1.155
15676TIP3    H246951   2.992   0.759   1.231
15677TIP3   OH246952   1.604   1.277   1.220
15677TIP3    H146953   1.652   1.262   1.301
15677TIP3    H246954   1.519   1.234   1.234
15678TIP3   OH246955   1.986   0.131   1.016
15678TIP3    H146956   1.902   0.090   0.995
15678TIP3    H246957   1.968   0.225   1.011
15679TIP3   OH246958   2.525   0.221   1.225
15679TIP3    H146959   2.592   0.199   1.289
15679TIP3    H246960   2.443   0.216   1.274
15680TIP3   OH246961   2.750   0.629   1.128
15680TIP3    H146962   2.706   0.625   1.213
15680TIP3    H246963   2.732   0.718   1.097
15681TIP3   OH246964   5.399   4.909   6.956
15681TIP3    H146965   5.351   4.917   6.874
15681TIP3    H246966   5.482   4.954   6.939
15682TIP3   OH246967   2.141   0.143   0.020
15682TIP3    H146968   2.104   0.149   0.108
15682TIP3    H246969   2.103   0.064  -0.017
15683TIP3   OH246970   1.794   0.527   0.514
15683TIP3    H146971   1.718   0.482   0.552
15683TIP3    H246972   1.812   0.478   0.434
15684TIP3   OH246973   2.486   0.847   1.350
15684TIP3    H146974   2.456   0.782   1.413
15684TIP3    H246975   2.580   0.856   1.367
15685TIP3   OH246976   2.482   0.648   0.478
15685TIP3    H146977   2.434   0.708   0.420
15685TIP3    H246978   2.501   0.572   0.423
15686TIP3   OH246979   4.778   4.321   7.235
15686TIP3    H146980   4.763   4.319   7.329
15686TIP3    H246981   4.699   4.361   7.199
15687TIP3   OH246982   1.379   0.173   0.840
15687TIP3    H146983   1.451   0.212   0.891
15687TIP3    H246984   1.416   0.162   0.752
15688TIP3   OH246985   1.268   0.146   0.339
15688TIP3    H146986   1.313   0.181   0.262
15688TIP3    H246987   1.204   0.214   0.363
15689TIP3   OH246988   2.491   0.836   0.920
15689TIP3    H146989   2.520   0.766   0.861
15689TIP3    H246990   2.459   0.790   0.997
15690TIP3   OH246991   2.152   0.377   0.632
15690TIP3    H146992   2.070   0.335   0.658
15690TIP3    H246993   2.219   0.312   0.647
15691TIP3   OH246994   1.579   0.392   0.623
15691TIP3    H146995   1.489   0.397   0.592
15691TIP3    H246996   1.602   0.300   0.614
15692TIP3   OH246997   1.859   0.392   0.276
15692TIP3    H146998   1.936   0.427   0.232
15692TIP3    H246999   1.789   0.400   0.212
15693TIP3   OH247000   2.677   0.375   0.803
15693TIP3    H147001   2.640   0.388   0.890
15693TIP3    H247002   2.645   0.289   0.775
15694TIP3   OH247003   1.692   0.408   0.065
15694TIP3    H147004   1.630   0.357   0.013
15694TIP3    H247005   1.745   0.454   0.000
15695TIP3   OH247006   2.699   2.042   0.973
15695TIP3    H147007   2.739   2.065   0.889
15695TIP3    H247008   2.739   2.103   1.035
15696TIP3   OH247009   1.743   1.184   1.442
15696TIP3    H147010   1.821   1.216   1.486
15696TIP3    H247011   1.703   1.122   1.504
15697TIP3   OH247012   2.268   0.648   0.750
15697TIP3    H147013   2.363   0.640   0.748
15697TIP3    H247014   2.245   0.641   0.843
15698TIP3   OH247015   1.704   0.141   0.608
15698TIP3    H147016   1.679   0.065   0.661
15698TIP3    H247017   1.729   0.105   0.523
15699TIP3   OH247018   2.193   0.616   1.009
15699TIP3    H147019   2.124   0.675   1.037
15699TIP3    H247020   2.270   0.642   1.059
15700TIP3   OH247021   1.932   0.924   0.094
15700TIP3    H147022   1.856   0.871   0.070
15700TIP3    H247023   1.908   0.965   0.177
15701TIP3   OH247024   2.812   1.174   0.686
15701TIP3    H147025   2.847   1.220   0.610
15701TIP3    H247026   2.730   1.135   0.655
15702TIP3   OH247027   5.367   4.422   7.262
15702TIP3    H147028   5.272   4.408   7.266
15702TIP3    H247029   5.377   4.517   7.268
15703TIP3   OH247030   2.323   1.241   1.110
15703TIP3    H147031   2.382   1.232   1.185
15703TIP3    H247032   2.291   1.331   1.117
15704TIP3   OH247033   2.467   0.487   0.040
15704TIP3    H147034   2.558   0.508   0.059
15704TIP3    H247035   2.428   0.572   0.016
15705TIP3   OH247036   1.623   0.957   0.727
15705TIP3    H147037   1.657   0.926   0.643
15705TIP3    H247038   1.689   0.929   0.791
15706TIP3   OH247039   5.058   5.284   7.212
15706TIP3    H147040   5.011   5.368   7.211
15706TIP3    H247041   5.001   5.226   7.262
15707TIP3   OH247042   2.244   0.982   1.407
15707TIP3    H147043   2.181   0.919   1.373
15707TIP3    H247044   2.329   0.951   1.374
15708TIP3   OH247045   2.458   1.541   0.980
15708TIP3    H147046   2.364   1.524   0.984
15708TIP3    H247047   2.480   1.576   1.066
15709TIP3   OH247048   5.838   4.790   7.148
15709TIP3    H147049   5.783   4.743   7.085
15709TIP3    H247050   5.843   4.879   7.115
15710TIP3   OH247051   3.086   1.444   0.990
15710TIP3    H147052   3.002   1.441   1.035
15710TIP3    H247053   3.070   1.403   0.905
15711TIP3   OH247054   5.573   5.610   7.079
15711TIP3    H147055   5.547   5.537   7.135
15711TIP3    H247056   5.599   5.570   6.996
15712TIP3   OH247057   2.583   1.051   0.593
15712TIP3    H147058   2.494   1.025   0.616
15712TIP3    H247059   2.624   0.972   0.558
15713TIP3   OH247060   1.749   1.281   0.413
15713TIP3    H147061   1.753   1.358   0.355
15713TIP3    H247062   1.655   1.267   0.426
15714TIP3   OH247063   1.316   0.569   0.129
15714TIP3    H147064   1.352   0.656   0.146
15714TIP3    H247065   1.232   0.569   0.176
15715TIP3   OH247066   1.837   1.034   0.323
15715TIP3    H147067   1.820   1.124   0.352
15715TIP3    H247068   1.811   0.979   0.397
15716TIP3   OH247069   2.017   1.598   0.864
15716TIP3    H147070   2.051   1.674   0.816
15716TIP3    H247071   2.094   1.559   0.905
15717TIP3   OH247072   1.667   1.506   0.263
15717TIP3    H147073   1.579   1.513   0.299
15717TIP3    H247074   1.701   1.596   0.266
15718TIP3   OH247075   2.375   1.265   0.839
15718TIP3    H147076   2.361   1.253   0.933
15718TIP3    H247077   2.460   1.223   0.822
15719TIP3   OH247078   5.353   5.348   6.981
15719TIP3    H147079   5.391   5.332   7.067
15719TIP3    H247080   5.268   5.303   6.983
15720TIP3   OH247081   2.609   1.737   0.854
15720TIP3    H147082   2.537   1.676   0.871
15720TIP3    H247083   2.575   1.797   0.788
15721TIP3   OH247084   5.658   5.814   6.779
15721TIP3    H147085   5.660   5.866   6.698
15721TIP3    H247086   5.589   5.854   6.831
15722TIP3   OH247087   1.767   0.355   1.465
15722TIP3    H147088   1.732   0.400   1.388
15722TIP3    H247089   1.732   0.266   1.457
15723TIP3   OH247090   5.513   5.297   7.209
15723TIP3    H147091   5.494   5.222   7.264
15723TIP3    H247092   5.606   5.289   7.189
15724TIP3   OH247093   1.449   1.515   1.028
15724TIP3    H147094   1.512   1.464   1.078
15724TIP3    H247095   1.463   1.606   1.057
15725TIP3   OH247096   4.696   5.308   6.988
15725TIP3    H147097   4.705   5.217   6.960
15725TIP3    H247098   4.679   5.303   7.082
15726TIP3   OH247099   1.670   1.132  -0.008
15726TIP3    H147100   1.740   1.107   0.053
15726TIP3    H247101   1.668   1.228  -0.004
15727TIP3   OH247102   1.393   0.828   0.200
15727TIP3    H147103   1.327   0.875   0.250
15727TIP3    H247104   1.413   0.886   0.126
15728TIP3   OH247105   2.579   0.424   1.050
15728TIP3    H147106   2.644   0.482   1.089
15728TIP3    H247107   2.561   0.359   1.117
15729TIP3   OH247108   2.466   0.197   0.263
15729TIP3    H147109   2.442   0.207   0.171
15729TIP3    H247110   2.502   0.282   0.288
15730TIP3   OH247111   4.911   5.515   7.206
15730TIP3    H147112   4.824   5.538   7.239
15730TIP3    H247113   4.934   5.584   7.145
15731TIP3   OH247114   2.422   0.685   1.139
15731TIP3    H147115   2.440   0.743   1.213
15731TIP3    H247116   2.468   0.604   1.160
15732TIP3   OH247117   2.280   0.086   0.436
15732TIP3    H147118   2.307   0.127   0.518
15732TIP3    H247119   2.343   0.118   0.371
15733TIP3   OH247120   1.692   1.405   0.009
15733TIP3    H147121   1.672   1.477  -0.051
15733TIP3    H247122   1.681   1.443   0.096
15734TIP3   OH247123   1.781   0.109   0.244
15734TIP3    H147124   1.774   0.202   0.266
15734TIP3    H247125   1.873   0.088   0.257
15735TIP3   OH247126   3.013   0.563   1.122
15735TIP3    H147127   2.919   0.579   1.130
15735TIP3    H247128   3.022   0.510   1.043
15736TIP3   OH247129   2.704   0.810   0.512
15736TIP3    H147130   2.632   0.747   0.513
15736TIP3    H247131   2.775   0.766   0.559
15737TIP3   OH247132   4.391   5.197   7.252
15737TIP3    H147133   4.463   5.260   7.259
15737TIP3    H247134   4.422   5.133   7.187
15738TIP3   OH247135   1.339   0.291   0.119
15738TIP3    H147136   1.350   0.386   0.129
15738TIP3    H247137   1.282   0.281   0.043
15739TIP3   OH247138   2.639   1.756   0.445
15739TIP3    H147139   2.595   1.811   0.380
15739TIP3    H247140   2.732   1.765   0.424
15740TIP3   OH247141   7.673   8.402   0.984
15740TIP3    H147142   7.641   8.374   0.898
15740TIP3    H247143   7.666   8.324   1.038
15741TIP3   OH247144   1.252   1.270   0.374
15741TIP3    H147145   1.205   1.303   0.450
15741TIP3    H247146   1.208   1.310   0.299
15742TIP3   OH247147   1.474   1.800   1.463
15742TIP3    H147148   1.542   1.826   1.526
15742TIP3    H247149   1.490   1.707   1.448
15743TIP3   OH247150   1.905   1.744   1.498
15743TIP3    H147151   1.999   1.741   1.515
15743TIP3    H247152   1.891   1.677   1.431
15744TIP3   OH247153   4.848   5.511   6.880
15744TIP3    H147154   4.800   5.440   6.922
15744TIP3    H247155   4.922   5.467   6.838
15745TIP3   OH247156   2.507   1.621   1.235
15745TIP3    H147157   2.513   1.549   1.297
15745TIP3    H247158   2.587   1.672   1.250
15746TIP3   OH247159   5.292   5.550   6.802
15746TIP3    H147160   5.330   5.488   6.863
15746TIP3    H247161   5.348   5.545   6.724
15747TIP3   OH247162   4.515   5.005   7.102
15747TIP3    H147163   4.567   4.981   7.179
15747TIP3    H247164   4.579   5.017   7.033
15748TIP3   OH247165   2.166   1.247   1.408
15748TIP3    H147166   2.122   1.265   1.325
15748TIP3    H247167   2.201   1.159   1.399
15749TIP3   OH247168   5.104   5.224   6.948
15749TIP3    H147169   5.078   5.236   7.039
15749TIP3    H247170   5.082   5.133   6.928
15750TIP3   OH247171   2.623   1.325   1.032
15750TIP3    H147172   2.702   1.346   0.982
15750TIP3    H247173   2.561   1.394   1.009
15751TIP3   OH247174   1.672   0.963   1.605
15751TIP3    H147175   1.732   0.910   1.552
15751TIP3    H247176   1.722   0.985   1.683
15752TIP3   OH247177   1.721   0.751   0.048
15752TIP3    H147178   1.694   0.720   0.135
15752TIP3    H247179   1.767   0.676   0.010
15753TIP3   OH247180   2.053   0.819   1.288
15753TIP3    H147181   1.965   0.855   1.299
15753TIP3    H247182   2.083   0.855   1.205
15754TIP3   OH247183   4.825   4.753   7.169
15754TIP3    H147184   4.794   4.758   7.079
15754TIP3    H247185   4.920   4.761   7.163
15755TIP3   OH247186   2.500   1.162   1.394
15755TIP3    H147187   2.590   1.148   1.363
15755TIP3    H247188   2.491   1.101   1.467
15756TIP3   OH247189   5.617   5.043   6.844
15756TIP3    H147190   5.605   5.004   6.757
15756TIP3    H247191   5.597   5.136   6.830
15757TIP3   OH247192   2.145   0.586   1.394
15757TIP3    H147193   2.126   0.514   1.334
15757TIP3    H247194   2.110   0.664   1.349
15758TIP3   OH247195   2.099   0.408   1.179
15758TIP3    H147196   2.145   0.456   1.111
15758TIP3    H247197   2.007   0.408   1.151
15759TIP3   OH247198   2.165   0.923   1.063
15759TIP3    H147199   2.250   0.966   1.062
15759TIP3    H247200   2.105   0.987   1.026
15760TIP3   OH247201   2.742   0.853   1.457
15760TIP3    H147202   2.772   0.791   1.524
15760TIP3    H247203   2.821   0.901   1.433
15761TIP3   OH247204   2.752   1.129   1.168
15761TIP3    H147205   2.697   1.196   1.127
15761TIP3    H247206   2.841   1.151   1.142
15762TIP3   OH247207   2.041   0.683   1.632
15762TIP3    H147208   1.963   0.630   1.646
15762TIP3    H247209   2.073   0.656   1.546
15763TIP3   OH247210   2.246   0.188   1.288
15763TIP3    H147211   2.199   0.264   1.253
15763TIP3    H247212   2.186   0.115   1.276
15764TIP3   OH247213   2.391   0.644   1.504
15764TIP3    H147214   2.374   0.637   1.598
15764TIP3    H247215   2.309   0.617   1.463
15765TIP3   OH247216   2.610   0.565   1.349
15765TIP3    H147217   2.543   0.579   1.417
15765TIP3    H247218   2.689   0.541   1.398
15766TIP3   OH247219   2.849   0.515   1.477
15766TIP3    H147220   2.872   0.427   1.506
15766TIP3    H247221   2.842   0.566   1.558
15767TIP3   OH247222   1.839   0.508   1.683
15767TIP3    H147223   1.829   0.447   1.611
15767TIP3    H247224   1.894   0.462   1.747
15768TIP3   OH247225   2.339   0.162   1.544
15768TIP3    H147226   2.406   0.094   1.536
15768TIP3    H247227   2.303   0.170   1.456
15769TIP3   OH247228   2.441   0.372   1.690
15769TIP3    H147229   2.411   0.300   1.634
15769TIP3    H247230   2.369   0.436   1.688
15770TIP3   OH247231   4.658   5.813   7.097
15770TIP3    H147232   4.746   5.790   7.067
15770TIP3    H247233   4.617   5.855   7.021
15771TIP3   OH247234   4.118   5.191   7.277
15771TIP3    H147235   4.213   5.204   7.269
15771TIP3    H247236   4.102   5.106   7.237
15772TIP3   OH247237   1.054   1.579   0.465
15772TIP3    H147238   0.989   1.527   0.418
15772TIP3    H247239   1.098   1.516   0.523
15773TIP3   OH247240   1.195   1.405   0.628
15773TIP3    H147241   1.182   1.337   0.695
15773TIP3    H247242   1.251   1.470   0.671
15774TIP3   OH247243   2.903   1.795   0.394
15774TIP3    H147244   2.934   1.833   0.477
15774TIP3    H247245   2.965   1.828   0.329
15775TIP3   OH247246   2.911   1.851   0.677
15775TIP3    H147247   2.878   1.762   0.685
15775TIP3    H247248   2.995   1.849   0.722
15776TIP3   OH247249   2.896   1.511   1.194
15776TIP3    H147250   2.822   1.509   1.254
15776TIP3    H247251   2.939   1.595   1.211
15777TIP3   OH247252   5.786   5.256   7.173
15777TIP3    H147253   5.843   5.323   7.136
15777TIP3    H247254   5.836   5.217   7.245
15778TIP3   OH247255   2.959   0.918   0.098
15778TIP3    H147256   2.892   0.885   0.157
15778TIP3    H247257   3.025   0.956   0.156
15779TIP3   OH247258   2.965   1.303   0.503
15779TIP3    H147259   3.032   1.243   0.470
15779TIP3    H247260   2.963   1.375   0.439
15780TIP3   OH247261   2.803   1.600   0.714
15780TIP3    H147262   2.729   1.640   0.761
15780TIP3    H247263   2.763   1.554   0.640
15781TIP3   OH247264   5.830   5.032   7.017
15781TIP3    H147265   5.758   5.029   6.954
15781TIP3    H247266   5.812   5.109   7.071
15782TIP3   OH247267   5.690   4.674   6.948
15782TIP3    H147268   5.639   4.709   6.875
15782TIP3    H247269   5.685   4.579   6.939
15783TIP3   OH247270   2.752   0.788   0.237
15783TIP3    H147271   2.764   0.694   0.226
15783TIP3    H247272   2.745   0.801   0.332
15784TIP3   OH247273   1.408   0.874   1.025
15784TIP3    H147274   1.390   0.829   0.942
15784TIP3    H247275   1.502   0.861   1.039
15785TIP3   OH247276   3.012   1.182   1.094
15785TIP3    H147277   3.078   1.113   1.102
15785TIP3    H247278   3.016   1.208   1.002
15786TIP3   OH247279   3.186   0.981   1.135
15786TIP3    H147280   3.109   0.935   1.167
15786TIP3    H247281   3.248   0.911   1.114
15787TIP3   OH247282   5.656   4.401   6.921
15787TIP3    H147283   5.719   4.375   6.989
15787TIP3    H247284   5.572   4.368   6.953
15788TIP3   OH247285   2.755   0.508   0.125
15788TIP3    H147286   2.801   0.425   0.139
15788TIP3    H247287   2.794   0.545   0.046
15789TIP3   OH247288   2.909   0.670   0.638
15789TIP3    H147289   2.992   0.690   0.595
15789TIP3    H247290   2.919   0.702   0.728
15790TIP3   OH247291   2.961   0.802   0.876
15790TIP3    H147292   2.889   0.833   0.931
15790TIP3    H247293   2.990   0.880   0.828
15791TIP3   OH247294   1.568   0.531   1.634
15791TIP3    H147295   1.662   0.531   1.647
15791TIP3    H247296   1.537   0.449   1.673
15792TIP3   OH247297   3.418   0.396   1.427
15792TIP3    H147298   3.468   0.328   1.382
15792TIP3    H247299   3.382   0.450   1.357
15793TIP3   OH247300   2.867   0.257   0.176
15793TIP3    H147301   2.911   0.241   0.260
15793TIP3    H247302   2.808   0.183   0.165
15794TIP3   OH247303   1.591   0.246   1.004
15794TIP3    H147304   1.639   0.163   1.007
15794TIP3    H247305   1.659   0.313   1.011
15795TIP3   OH247306   1.365   0.492   1.058
15795TIP3    H147307   1.429   0.494   0.987
15795TIP3    H247308   1.395   0.560   1.119
15796TIP3   OH247309   3.265   0.516   1.232
15796TIP3    H147310   3.178   0.554   1.243
15796TIP3    H247311   3.251   0.441   1.174
15797TIP3   OH247312   5.880   4.347   7.080
15797TIP3    H147313   5.930   4.286   7.026
15797TIP3    H247314   5.936   4.425   7.084
15798TIP3   OH247315   1.342   0.016   0.568
15798TIP3    H147316   1.258   0.005   0.611
15798TIP3    H247317   1.323   0.069   0.490
15799TIP3   OH247318   2.492   1.730   0.088
15799TIP3    H147319   2.547   1.718   0.010
15799TIP3    H247320   2.534   1.801   0.136
15800TIP3   OH247321   1.587   0.093   1.385
15800TIP3    H147322   1.534   0.088   1.465
15800TIP3    H247323   1.529   0.134   1.321
15801TIP3   OH247324   1.573   1.531   1.457
15801TIP3    H147325   1.488   1.490   1.441
15801TIP3    H247326   1.596   1.505   1.546
15802TIP3   OH247327   1.797   1.575   1.026
15802TIP3    H147328   1.747   1.649   0.992
15802TIP3    H247329   1.880   1.578   0.977
15803TIP3   OH247330   2.175   1.781   1.109
15803TIP3    H147331   2.208   1.777   1.199
15803TIP3    H247332   2.243   1.826   1.061
15804TIP3   OH247333   2.395   1.920   1.019
15804TIP3    H147334   2.468   1.871   0.983
15804TIP3    H247335   2.434   1.978   1.085
15805TIP3   OH247336   3.197   0.278   1.108
15805TIP3    H147337   3.109   0.266   1.073
15805TIP3    H247338   3.236   0.191   1.105
15806TIP3   OH247339   1.456   1.799   1.062
15806TIP3    H147340   1.365   1.819   1.038
15806TIP3    H247341   1.478   1.866   1.127
15807TIP3   OH247342   1.685   1.798   0.908
15807TIP3    H147343   1.602   1.804   0.955
15807TIP3    H247344   1.665   1.822   0.818
15808TIP3   OH247345   2.088   1.810   0.703
15808TIP3    H147346   2.019   1.829   0.639
15808TIP3    H247347   2.106   1.894   0.745
15809TIP3   OH247348   2.345   1.731   0.734
15809TIP3    H147349   2.254   1.756   0.720
15809TIP3    H247350   2.396   1.802   0.694
15810TIP3   OH247351   2.538   1.910   0.648
15810TIP3    H147352   2.542   1.998   0.611
15810TIP3    H247353   2.573   1.853   0.579
15811TIP3   OH247354   1.365   1.583   0.773
15811TIP3    H147355   1.392   1.565   0.863
15811TIP3    H247356   1.437   1.553   0.719
15812TIP3   OH247357   1.572   1.476   0.637
15812TIP3    H147358   1.586   1.392   0.682
15812TIP3    H247359   1.658   1.518   0.637
15813TIP3   OH247360   1.837   1.560   0.656
15813TIP3    H147361   1.859   1.468   0.639
15813TIP3    H247362   1.890   1.583   0.732
15814TIP3   OH247363   2.337   0.176   0.691
15814TIP3    H147364   2.308   0.129   0.769
15814TIP3    H247365   2.433   0.168   0.692
15815TIP3   OH247366   2.912   0.122   0.635
15815TIP3    H147367   2.951   0.169   0.562
15815TIP3    H247368   2.825   0.161   0.645
15816TIP3   OH247369   3.022   0.201   0.400
15816TIP3    H147370   3.092   0.141   0.373
15816TIP3    H247371   3.058   0.288   0.386
15817TIP3   OH247372   7.580   8.301   0.746
15817TIP3    H147373   7.490   8.267   0.753
15817TIP3    H247374   7.634   8.223   0.736
15818TIP3   OH247375   7.412   8.214   0.410
15818TIP3    H147376   7.429   8.260   0.328
15818TIP3    H247377   7.370   8.280   0.466
15819TIP3   OH247378   8.049   8.340   0.633
15819TIP3    H147379   8.096   8.388   0.564
15819TIP3    H247380   8.085   8.375   0.714
15820TIP3   OH247381   2.613   0.128   0.664
15820TIP3    H147382   2.621   0.107   0.571
15820TIP3    H247383   2.623   0.044   0.709
15821TIP3   OH247384   2.688   0.043   0.178
15821TIP3    H147385   2.608   0.092   0.200
15821TIP3    H247386   2.675  -0.043   0.220
15822TIP3   OH247387   1.134   1.391   0.156
15822TIP3    H147388   1.051   1.361   0.119
15822TIP3    H247389   1.142   1.482   0.129
15823TIP3   OH247390   7.502   8.333   0.160
15823TIP3    H147391   7.547   8.271   0.103
15823TIP3    H247392   7.572   8.389   0.194
15824TIP3   OH247393   2.053   0.153   0.285
15824TIP3    H147394   2.126   0.116   0.336
15824TIP3    H247395   2.027   0.230   0.335
15825TIP3   OH247396   4.911   5.733   7.024
15825TIP3    H147397   4.994   5.760   6.985
15825TIP3    H247398   4.880   5.662   6.967
15826TIP3   OH247399   5.603   5.879   7.122
15826TIP3    H147400   5.598   5.783   7.115
15826TIP3    H247401   5.558   5.911   7.043
15827TIP3   OH247402   1.884   0.110   1.646
15827TIP3    H147403   1.826   0.166   1.698
15827TIP3    H247404   1.972   0.133   1.675
15828TIP3   OH247405   2.140   0.170   1.737
15828TIP3    H147406   2.203   0.180   1.665
15828TIP3    H247407   2.174   0.097   1.789
15829TIP3   OH247408   4.217   5.573   7.078
15829TIP3    H147409   4.218   5.582   7.173
15829TIP3    H247410   4.298   5.526   7.058
15830TIP3   OH247411   2.930   0.261   1.544
15830TIP3    H147412   2.947   0.239   1.635
15830TIP3    H247413   3.017   0.262   1.503
15831TIP3   OH247414   2.820   1.802   1.009
15831TIP3    H147415   2.757   1.754   0.955
15831TIP3    H247416   2.781   1.889   1.019
15832TIP3   OH247417   7.097   5.412   7.054
15832TIP3    H147418   7.055   5.491   7.020
15832TIP3    H247419   7.031   5.343   7.044
15833TIP3   OH247420   4.158   1.163   0.191
15833TIP3    H147421   4.224   1.121   0.246
15833TIP3    H247422   4.097   1.093   0.169
15834TIP3   OH247423   3.414   1.034   0.536
15834TIP3    H147424   3.440   0.972   0.604
15834TIP3    H247425   3.493   1.047   0.484
15835TIP3   OH247426   7.342   5.633   7.085
15835TIP3    H147427   7.349   5.566   7.152
15835TIP3    H247428   7.372   5.713   7.128
15836TIP3   OH247429   3.394   1.450   0.202
15836TIP3    H147430   3.371   1.357   0.201
15836TIP3    H247431   3.486   1.452   0.176
15837TIP3   OH247432   3.105   0.689   0.020
15837TIP3    H147433   3.068   0.774   0.044
15837TIP3    H247434   3.033   0.642  -0.023
15838TIP3   OH247435   3.180   1.002   0.243
15838TIP3    H147436   3.230   0.925   0.270
15838TIP3    H247437   3.247   1.066   0.218
15839TIP3   OH247438   7.009   6.141   7.092
15839TIP3    H147439   7.033   6.069   7.034
15839TIP3    H247440   7.088   6.157   7.145
15840TIP3   OH247441   3.911   1.390   0.169
15840TIP3    H147442   3.978   1.327   0.141
15840TIP3    H247443   3.949   1.475   0.150
15841TIP3   OH247444   4.983   0.736   0.220
15841TIP3    H147445   5.012   0.823   0.248
15841TIP3    H247446   5.016   0.729   0.130
15842TIP3   OH247447   3.678   0.569   0.222
15842TIP3    H147448   3.668   0.641   0.159
15842TIP3    H247449   3.630   0.496   0.182
15843TIP3   OH247450   7.370   4.862   7.111
15843TIP3    H147451   7.439   4.848   7.176
15843TIP3    H247452   7.415   4.900   7.036
15844TIP3   OH247453   3.318   0.780   0.330
15844TIP3    H147454   3.398   0.759   0.378
15844TIP3    H247455   3.325   0.730   0.249
15845TIP3   OH247456   3.759   0.965   0.136
15845TIP3    H147457   3.854   0.949   0.141
15845TIP3    H247458   3.722   0.884   0.102
15846TIP3   OH247459   5.105   0.944   0.369
15846TIP3    H147460   5.031   1.003   0.382
15846TIP3    H247461   5.132   0.919   0.458
15847TIP3   OH247462   3.670   0.560   0.663
15847TIP3    H147463   3.616   0.600   0.595
15847TIP3    H247464   3.619   0.569   0.744
15848TIP3   OH247465   6.950   5.603   6.928
15848TIP3    H147466   6.942   5.599   6.833
15848TIP3    H247467   6.907   5.684   6.953
15849TIP3   OH247468   3.752   1.303   0.381
15849TIP3    H147469   3.681   1.366   0.392
15849TIP3    H247470   3.807   1.340   0.312
15850TIP3   OH247471   4.600   0.655   0.027
15850TIP3    H147472   4.567   0.639   0.116
15850TIP3    H247473   4.656   0.732   0.036
15851TIP3   OH247474   3.549   0.669   0.440
15851TIP3    H147475   3.604   0.743   0.466
15851TIP3    H247476   3.596   0.629   0.367
15852TIP3   OH247477   3.527   1.449   0.453
15852TIP3    H147478   3.503   1.507   0.525
15852TIP3    H247479   3.450   1.447   0.397
15853TIP3   OH247480   5.955   5.431   7.040
15853TIP3    H147481   5.923   5.449   6.952
15853TIP3    H247482   5.975   5.518   7.076
15854TIP3   OH247483   7.366   5.886   7.194
15854TIP3    H147484   7.297   5.914   7.254
15854TIP3    H247485   7.365   5.950   7.123
15855TIP3   OH247486   4.789   0.586   0.356
15855TIP3    H147487   4.703   0.627   0.348
15855TIP3    H247488   4.845   0.635   0.295
15856TIP3   OH247489   4.013   0.251   0.393
15856TIP3    H147490   4.004   0.161   0.422
15856TIP3    H247491   3.937   0.296   0.430
15857TIP3   OH247492   7.114   5.946   6.923
15857TIP3    H147493   7.155   5.864   6.899
15857TIP3    H247494   7.178   6.013   6.901
15858TIP3   OH247495   7.257   5.728   6.843
15858TIP3    H147496   7.269   5.654   6.784
15858TIP3    H247497   7.290   5.697   6.928
15859TIP3   OH247498   6.933   5.238   6.893
15859TIP3    H147499   6.853   5.288   6.881
15859TIP3    H247500   6.983   5.252   6.813
15860TIP3   OH247501   6.907   5.009   6.630
15860TIP3    H147502   6.973   5.072   6.658
15860TIP3    H247503   6.937   4.926   6.667
15861TIP3   OH247504   4.928   1.281   0.187
15861TIP3    H147505   4.848   1.327   0.214
15861TIP3    H247506   4.956   1.326   0.108
15862TIP3   OH247507   7.276   5.318   6.866
15862TIP3    H147508   7.225   5.356   6.938
15862TIP3    H247509   7.358   5.290   6.907
15863TIP3   OH247510   6.530   5.305   7.259
15863TIP3    H147511   6.492   5.243   7.196
15863TIP3    H247512   6.603   5.257   7.298
15864TIP3   OH247513   3.651   1.463   0.116
15864TIP3    H147514   3.639   1.475   0.022
15864TIP3    H247515   3.743   1.437   0.126
15865TIP3   OH247516   3.627   1.068   0.353
15865TIP3    H147517   3.669   1.029   0.275
15865TIP3    H247518   3.669   1.153   0.362
15866TIP3   OH247519   4.216   1.740   0.122
15866TIP3    H147520   4.176   1.826   0.138
15866TIP3    H247521   4.266   1.722   0.201
15867TIP3   OH247522   3.856   1.666   0.574
15867TIP3    H147523   3.761   1.664   0.563
15867TIP3    H247524   3.879   1.576   0.596
15868TIP3   OH247525   7.125   5.180   6.684
15868TIP3    H147526   7.179   5.233   6.741
15868TIP3    H247527   7.159   5.197   6.596
15869TIP3   OH247528   3.552   1.139   0.794
15869TIP3    H147529   3.571   1.223   0.835
15869TIP3    H247530   3.457   1.137   0.786
15870TIP3   OH247531   6.853   5.858   6.957
15870TIP3    H147532   6.943   5.890   6.954
15870TIP3    H247533   6.804   5.918   6.902
15871TIP3   OH247534   3.563   1.944   0.913
15871TIP3    H147535   3.578   1.957   0.819
15871TIP3    H247536   3.559   1.849   0.923
15872TIP3   OH247537   7.628   4.423   6.749
15872TIP3    H147538   7.551   4.445   6.803
15872TIP3    H247539   7.638   4.499   6.691
15873TIP3   OH247540   6.394   5.153   7.061
15873TIP3    H147541   6.315   5.199   7.037
15873TIP3    H247542   6.365   5.064   7.081
15874TIP3   OH247543   7.461   5.791   6.310
15874TIP3    H147544   7.456   5.886   6.294
15874TIP3    H247545   7.547   5.766   6.276
15875TIP3   OH247546   3.104   1.319   0.746
15875TIP3    H147547   3.057   1.303   0.664
15875TIP3    H247548   3.155   1.240   0.761
15876TIP3   OH247549   2.992   1.533   0.348
15876TIP3    H147550   3.076   1.554   0.388
15876TIP3    H247551   2.936   1.608   0.368
15877TIP3   OH247552   3.871   1.933   0.545
15877TIP3    H147553   3.959   1.967   0.561
15877TIP3    H247554   3.877   1.840   0.567
15878TIP3   OH247555   6.747   6.043   6.780
15878TIP3    H147556   6.720   6.029   6.689
15878TIP3    H247557   6.724   6.135   6.797
15879TIP3   OH247558   6.961   6.020   6.405
15879TIP3    H147559   7.012   5.945   6.374
15879TIP3    H247560   6.997   6.038   6.492
15880TIP3   OH247561   7.008   6.066   6.676
15880TIP3    H147562   6.925   6.057   6.723
15880TIP3    H247563   7.074   6.037   6.739
15881TIP3   OH247564   4.831   1.106   0.687
15881TIP3    H147565   4.766   1.160   0.642
15881TIP3    H247566   4.862   1.045   0.619
15882TIP3   OH247567   3.313   1.485   0.698
15882TIP3    H147568   3.352   1.486   0.786
15882TIP3    H247569   3.239   1.426   0.705
15883TIP3   OH247570   3.775   0.352   0.509
15883TIP3    H147571   3.692   0.324   0.472
15883TIP3    H247572   3.755   0.432   0.557
15884TIP3   OH247573   4.299   0.455   0.680
15884TIP3    H147574   4.338   0.494   0.758
15884TIP3    H247575   4.213   0.425   0.709
15885TIP3   OH247576   4.527   1.052   0.628
15885TIP3    H147577   4.559   0.969   0.664
15885TIP3    H247578   4.482   1.026   0.547
15886TIP3   OH247579   7.219   5.217   6.430
15886TIP3    H147580   7.171   5.264   6.362
15886TIP3    H247581   7.311   5.237   6.413
15887TIP3   OH247582   6.931   4.600   6.759
15887TIP3    H147583   6.898   4.605   6.849
15887TIP3    H247584   6.892   4.520   6.724
15888TIP3   OH247585   3.719   0.866   0.516
15888TIP3    H147586   3.726   0.896   0.606
15888TIP3    H247587   3.694   0.945   0.466
15889TIP3   OH247588   3.603   0.761   0.040
15889TIP3    H147589   3.513   0.738   0.066
15889TIP3    H247590   3.613   0.722  -0.047
15890TIP3   OH247591   7.056   5.028   7.017
15890TIP3    H147592   7.011   5.103   6.979
15890TIP3    H247593   7.118   5.000   6.950
15891TIP3   OH247594   4.421   1.230   0.936
15891TIP3    H147595   4.424   1.142   0.898
15891TIP3    H247596   4.507   1.267   0.915
15892TIP3   OH247597   7.199   5.033   7.255
15892TIP3    H147598   7.141   5.047   7.180
15892TIP3    H247599   7.257   4.962   7.227
15893TIP3   OH247600   3.480   0.850   0.735
15893TIP3    H147601   3.547   0.904   0.778
15893TIP3    H247602   3.481   0.768   0.784
15894TIP3   OH247603   6.591   4.590   6.715
15894TIP3    H147604   6.580   4.582   6.810
15894TIP3    H247605   6.507   4.625   6.685
15895TIP3   OH247606   3.147   0.426   0.325
15895TIP3    H147607   3.216   0.462   0.382
15895TIP3    H247608   3.188   0.417   0.240
15896TIP3   OH247609   6.026   4.588   7.094
15896TIP3    H147610   6.073   4.623   7.018
15896TIP3    H247611   5.963   4.656   7.116
15897TIP3   OH247612   3.933   0.596   0.095
15897TIP3    H147613   3.867   0.581   0.162
15897TIP3    H247614   4.012   0.553   0.128
15898TIP3   OH247615   3.364   0.640   0.100
15898TIP3    H147616   3.276   0.643   0.062
15898TIP3    H247617   3.394   0.551   0.082
15899TIP3   OH247618   6.583   4.831   7.064
15899TIP3    H147619   6.677   4.847   7.055
15899TIP3    H247620   6.546   4.853   6.979
15900TIP3   OH247621   4.508   0.570   0.267
15900TIP3    H147622   4.441   0.594   0.331
15900TIP3    H247623   4.469   0.497   0.218
15901TIP3   OH247624   6.466   4.866   6.820
15901TIP3    H147625   6.406   4.812   6.769
15901TIP3    H247626   6.519   4.911   6.753
15902TIP3   OH247627   3.607   1.379   0.908
15902TIP3    H147628   3.651   1.463   0.898
15902TIP3    H247629   3.520   1.401   0.942
15903TIP3   OH247630   4.032   0.908   0.172
15903TIP3    H147631   4.105   0.881   0.116
15903TIP3    H247632   4.034   0.847   0.246
15904TIP3   OH247633   3.506   0.395   0.083
15904TIP3    H147634   3.477   0.320   0.134
15904TIP3    H247635   3.538   0.358   0.001
15905TIP3   OH247636   3.965   0.768   0.445
15905TIP3    H147637   3.873   0.795   0.453
15905TIP3    H247638   4.015   0.845   0.470
15906TIP3   OH247639   6.705   5.383   6.833
15906TIP3    H147640   6.629   5.328   6.813
15906TIP3    H247641   6.681   5.428   6.914
15907TIP3   OH247642   4.722   1.445   0.314
15907TIP3    H147643   4.747   1.529   0.275
15907TIP3    H247644   4.636   1.425   0.277
15908TIP3   OH247645   7.105   4.764   6.627
15908TIP3    H147646   7.046   4.706   6.675
15908TIP3    H247647   7.154   4.810   6.695
15909TIP3   OH247648   4.288   1.666   0.595
15909TIP3    H147649   4.314   1.593   0.650
15909TIP3    H247650   4.192   1.665   0.596
15910TIP3   OH247651   7.227   4.941   6.807
15910TIP3    H147652   7.320   4.941   6.831
15910TIP3    H247653   7.215   5.023   6.759
15911TIP3   OH247654   3.402   1.170   0.208
15911TIP3    H147655   3.451   1.157   0.127
15911TIP3    H247656   3.461   1.139   0.277
15912TIP3   OH247657   6.862   5.530   6.657
15912TIP3    H147658   6.814   5.613   6.657
15912TIP3    H247659   6.813   5.475   6.719
15913TIP3   OH247660   3.277   1.136   0.867
15913TIP3    H147661   3.325   1.135   0.950
15913TIP3    H247662   3.232   1.052   0.864
15914TIP3   OH247663   4.128   1.273   0.906
15914TIP3    H147664   4.040   1.244   0.882
15914TIP3    H247665   4.185   1.233   0.840
15915TIP3   OH247666   4.380   1.929   0.629
15915TIP3    H147667   4.319   1.954   0.560
15915TIP3    H247668   4.371   1.834   0.635
15916TIP3   OH247669   7.625   5.053   6.650
15916TIP3    H147670   7.559   5.015   6.591
15916TIP3    H247671   7.640   5.141   6.615
15917TIP3   OH247672   7.360   5.872   6.565
15917TIP3    H147673   7.350   5.809   6.636
15917TIP3    H247674   7.395   5.822   6.492
15918TIP3   OH247675   4.379   1.258   0.033
15918TIP3    H147676   4.292   1.245   0.071
15918TIP3    H247677   4.411   1.170   0.014
15919TIP3   OH247678   6.484   5.732   7.147
15919TIP3    H147679   6.513   5.823   7.155
15919TIP3    H247680   6.393   5.733   7.176
15920TIP3   OH247681   6.071   5.021   6.882
15920TIP3    H147682   6.114   5.104   6.903
15920TIP3    H247683   5.990   5.023   6.932
15921TIP3   OH247684   6.587   5.491   7.054
15921TIP3    H147685   6.556   5.577   7.083
15921TIP3    H247686   6.571   5.433   7.129
15922TIP3   OH247687   3.759   1.934   0.296
15922TIP3    H147688   3.837   1.936   0.241
15922TIP3    H247689   3.793   1.925   0.385
15923TIP3   OH247690   4.163   1.475   0.312
15923TIP3    H147691   4.238   1.424   0.343
15923TIP3    H247692   4.166   1.466   0.217
15924TIP3   OH247693   7.131   5.591   6.492
15924TIP3    H147694   7.197   5.566   6.556
15924TIP3    H247695   7.047   5.584   6.539
15925TIP3   OH247696   7.467   6.067   6.283
15925TIP3    H147697   7.518   6.143   6.256
15925TIP3    H247698   7.384   6.104   6.315
15926TIP3   OH247699   3.503   0.605   0.882
15926TIP3    H147700   3.408   0.605   0.888
15926TIP3    H247701   3.531   0.545   0.951
15927TIP3   OH247702   7.318   5.515   6.677
15927TIP3    H147703   7.307   5.446   6.741
15927TIP3    H247704   7.413   5.520   6.662
15928TIP3   OH247705   3.202   1.632   0.492
15928TIP3    H147706   3.246   1.588   0.564
15928TIP3    H247707   3.194   1.723   0.521
15929TIP3   OH247708   6.522   5.559   6.479
15929TIP3    H147709   6.505   5.468   6.453
15929TIP3    H247710   6.496   5.562   6.571
15930TIP3   OH247711   6.436   5.584   6.744
15930TIP3    H147712   6.487   5.554   6.819
15930TIP3    H247713   6.436   5.680   6.752
15931TIP3   OH247714   6.167   5.273   6.957
15931TIP3    H147715   6.098   5.317   7.007
15931TIP3    H247716   6.186   5.332   6.885
15932TIP3   OH247717   4.297   0.593   0.440
15932TIP3    H147718   4.303   0.684   0.467
15932TIP3    H247719   4.301   0.543   0.522
15933TIP3   OH247720   7.213   4.660   7.017
15933TIP3    H147721   7.167   4.708   6.949
15933TIP3    H247722   7.266   4.726   7.062
15934TIP3   OH247723   6.715   5.755   6.667
15934TIP3    H147724   6.634   5.777   6.713
15934TIP3    H247725   6.735   5.832   6.615
15935TIP3   OH247726   6.858   4.856   7.101
15935TIP3    H147727   6.926   4.919   7.076
15935TIP3    H247728   6.872   4.841   7.194
15936TIP3   OH247729   7.047   4.522   7.195
15936TIP3    H147730   7.069   4.564   7.278
15936TIP3    H247731   7.107   4.561   7.131
15937TIP3   OH247732   6.470   5.857   6.760
15937TIP3    H147733   6.443   5.917   6.691
15937TIP3    H247734   6.486   5.913   6.836
15938TIP3   OH247735   6.558   4.561   6.994
15938TIP3    H147736   6.545   4.650   7.027
15938TIP3    H247737   6.652   4.545   7.005
15939TIP3   OH247738   4.875   0.841   0.558
15939TIP3    H147739   4.783   0.832   0.533
15939TIP3    H247740   4.923   0.792   0.491
15940TIP3   OH247741   4.469   1.000  -0.007
15940TIP3    H147742   4.394   0.948   0.022
15940TIP3    H247743   4.545   0.957   0.031
15941TIP3   OH247744   6.190   5.448   6.739
15941TIP3    H147745   6.259   5.514   6.746
15941TIP3    H247746   6.223   5.386   6.674
15942TIP3   OH247747   6.093   4.743   6.876
15942TIP3    H147748   6.107   4.837   6.886
15942TIP3    H247749   6.029   4.735   6.805
15943TIP3   OH247750   7.506   6.198   7.141
15943TIP3    H147751   7.482   6.257   7.070
15943TIP3    H247752   7.601   6.192   7.136
15944TIP3   OH247753   3.514   0.269   0.474
15944TIP3    H147754   3.486   0.236   0.389
15944TIP3    H247755   3.513   0.192   0.531
15945TIP3   OH247756   6.000   5.693   7.109
15945TIP3    H147757   5.984   5.739   7.191
15945TIP3    H247758   5.974   5.755   7.040
15946TIP3   OH247759   3.343   2.075   0.993
15946TIP3    H147760   3.432   2.044   0.976
15946TIP3    H247761   3.295   1.997   1.020
15947TIP3   OH247762   6.649   5.771   6.360
15947TIP3    H147763   6.608   5.699   6.409
15947TIP3    H247764   6.725   5.730   6.318
15948TIP3   OH247765   7.087   5.799   6.297
15948TIP3    H147766   7.136   5.745   6.359
15948TIP3    H247767   7.141   5.801   6.218
15949TIP3   OH247768   3.251   1.336   1.212
15949TIP3    H147769   3.325   1.284   1.181
15949TIP3    H247770   3.187   1.332   1.140
15950TIP3   OH247771   6.319   5.262   6.585
15950TIP3    H147772   6.368   5.240   6.664
15950TIP3    H247773   6.385   5.274   6.517
15951TIP3   OH247774   4.057   1.540   0.930
15951TIP3    H147775   3.962   1.553   0.930
15951TIP3    H247776   4.068   1.445   0.932
15952TIP3   OH247777   6.811   5.427   6.406
15952TIP3    H147778   6.834   5.461   6.493
15952TIP3    H247779   6.716   5.426   6.405
15953TIP3   OH247780   4.660   1.613   0.543
15953TIP3    H147781   4.668   1.544   0.477
15953TIP3    H247782   4.635   1.691   0.493
15954TIP3   OH247783   3.440   1.145   1.091
15954TIP3    H147784   3.503   1.080   1.058
15954TIP3    H247785   3.456   1.149   1.185
15955TIP3   OH247786   6.489   5.209   6.800
15955TIP3    H147787   6.464   5.185   6.890
15955TIP3    H247788   6.531   5.130   6.765
15956TIP3   OH247789   3.753   0.958   0.778
15956TIP3    H147790   3.689   1.028   0.790
15956TIP3    H247791   3.834   1.004   0.754
15957TIP3   OH247792   6.622   5.015   6.648
15957TIP3    H147793   6.598   5.018   6.555
15957TIP3    H247794   6.717   5.021   6.649
15958TIP3   OH247795   7.449   5.319   6.311
15958TIP3    H147796   7.419   5.273   6.232
15958TIP3    H247797   7.414   5.407   6.302
15959TIP3   OH247798   3.902   0.755   0.892
15959TIP3    H147799   3.918   0.700   0.816
15959TIP3    H247800   3.845   0.825   0.859
15960TIP3   OH247801   3.938   0.605   0.668
15960TIP3    H147802   3.964   0.649   0.587
15960TIP3    H247803   3.844   0.594   0.660
15961TIP3   OH247804   3.842   1.173   0.607
15961TIP3    H147805   3.937   1.175   0.592
15961TIP3    H247806   3.804   1.196   0.523
15962TIP3   OH247807   3.913   1.021   1.081
15962TIP3    H147808   3.868   0.940   1.102
15962TIP3    H247809   3.913   1.026   0.986
15963TIP3   OH247810   4.049   0.362   0.724
15963TIP3    H147811   4.009   0.446   0.701
15963TIP3    H247812   3.976   0.300   0.721
15964TIP3   OH247813   4.152   0.838   0.972
15964TIP3    H147814   4.148   0.847   1.067
15964TIP3    H247815   4.063   0.812   0.947
15965TIP3   OH247816   4.355   0.966   0.852
15965TIP3    H147817   4.292   0.917   0.905
15965TIP3    H247818   4.438   0.920   0.862
15966TIP3   OH247819   4.788   0.771   1.122
15966TIP3    H147820   4.698   0.746   1.101
15966TIP3    H247821   4.800   0.856   1.080
15967TIP3   OH247822   3.576   0.668   1.212
15967TIP3    H147823   3.589   0.581   1.174
15967TIP3    H247824   3.663   0.706   1.217
15968TIP3   OH247825   4.063   0.308   0.990
15968TIP3    H147826   4.151   0.296   1.025
15968TIP3    H247827   4.076   0.309   0.895
15969TIP3   OH247828   4.278   0.630   1.200
15969TIP3    H147829   4.286   0.535   1.190
15969TIP3    H247830   4.194   0.651   1.160
15970TIP3   OH247831   6.447   6.054   6.571
15970TIP3    H147832   6.540   6.046   6.548
15970TIP3    H247833   6.408   6.100   6.497
15971TIP3   OH247834   5.916   5.448   6.749
15971TIP3    H147835   6.011   5.457   6.749
15971TIP3    H247836   5.901   5.361   6.712
15972TIP3   OH247837   5.818   6.028   7.198
15972TIP3    H147838   5.745   5.980   7.158
15972TIP3    H247839   5.864   5.962   7.251
15973TIP3   OH247840   2.981   1.637   0.081
15973TIP3    H147841   2.963   1.570   0.146
15973TIP3    H247842   3.040   1.698   0.125
15974TIP3   OH247843   7.594   5.522   6.653
15974TIP3    H147844   7.657   5.591   6.633
15974TIP3    H247845   7.631   5.478   6.729
15975TIP3   OH247846   7.697   5.366   6.853
15975TIP3    H147847   7.635   5.325   6.913
15975TIP3    H247848   7.769   5.395   6.909
15976TIP3   OH247849   7.716   5.751   7.235
15976TIP3    H147850   7.811   5.758   7.230
15976TIP3    H247851   7.684   5.800   7.159
15977TIP3   OH247852   7.634   5.288   6.509
15977TIP3    H147853   7.569   5.297   6.439
15977TIP3    H247854   7.624   5.368   6.560
15978TIP3   OH247855   7.450   4.971   6.450
15978TIP3    H147856   7.497   5.004   6.374
15978TIP3    H247857   7.447   4.876   6.437
15979TIP3   OH247858   7.501   5.219   6.993
15979TIP3    H147859   7.516   5.126   6.974
15979TIP3    H247860   7.485   5.221   7.087
15980TIP3   OH247861   3.156   1.103   0.496
15980TIP3    H147862   3.146   1.066   0.409
15980TIP3    H247863   3.249   1.092   0.517
15981TIP3   OH247864   7.442   4.704   6.407
15981TIP3    H147865   7.512   4.666   6.461
15981TIP3    H247866   7.369   4.643   6.416
15982TIP3   OH247867   7.504   4.949   6.879
15982TIP3    H147868   7.552   4.868   6.897
15982TIP3    H247869   7.551   4.990   6.806
15983TIP3   OH247870   4.713   0.894   0.087
15983TIP3    H147871   4.800   0.922   0.058
15983TIP3    H247872   4.696   0.948   0.165
15984TIP3   OH247873   4.886   1.107   0.389
15984TIP3    H147874   4.795   1.083   0.370
15984TIP3    H247875   4.912   1.161   0.315
15985TIP3   OH247876   3.337   0.758   1.118
15985TIP3    H147877   3.431   0.761   1.136
15985TIP3    H247878   3.306   0.682   1.168
15986TIP3   OH247879   7.623   4.708   6.935
15986TIP3    H147880   7.674   4.693   7.015
15986TIP3    H247881   7.563   4.634   6.932
15987TIP3   OH247882   3.349   0.487   0.507
15987TIP3    H147883   3.405   0.410   0.505
15987TIP3    H247884   3.408   0.560   0.488
15988TIP3   OH247885   3.155   0.759   0.556
15988TIP3    H147886   3.197   0.761   0.471
15988TIP3    H247887   3.216   0.804   0.614
15989TIP3   OH247888   5.164   0.845   0.621
15989TIP3    H147889   5.075   0.825   0.649
15989TIP3    H247890   5.216   0.769   0.647
15990TIP3   OH247891   7.660   4.624   6.560
15990TIP3    H147892   7.707   4.561   6.505
15990TIP3    H247893   7.721   4.697   6.570
15991TIP3   OH247894   3.133   0.265   0.058
15991TIP3    H147895   3.047   0.258   0.098
15991TIP3    H247896   3.119   0.317  -0.021
15992TIP3   OH247897   7.277   6.137   6.835
15992TIP3    H147898   7.330   6.139   6.755
15992TIP3    H247899   7.305   6.215   6.884
15993TIP3   OH247900   3.350   0.311   0.871
15993TIP3    H147901   3.302   0.310   0.954
15993TIP3    H247902   3.292   0.358   0.811
15994TIP3   OH247903   3.282   1.821   1.054
15994TIP3    H147904   3.208   1.772   1.018
15994TIP3    H247905   3.325   1.759   1.114
15995TIP3   OH247906   3.614   1.959   0.639
15995TIP3    H147907   3.556   1.916   0.576
15995TIP3    H247908   3.702   1.941   0.606
15996TIP3   OH247909   5.005   0.553   0.525
15996TIP3    H147910   4.925   0.554   0.471
15996TIP3    H247911   5.030   0.460   0.527
15997TIP3   OH247912   3.330   2.147   0.524
15997TIP3    H147913   3.240   2.173   0.506
15997TIP3    H247914   3.342   2.163   0.617
15998TIP3   OH247915   3.430   2.047   0.275
15998TIP3    H147916   3.400   2.108   0.343
15998TIP3    H247917   3.358   2.044   0.212
15999TIP3   OH247918   4.007   2.039   0.197
15999TIP3    H147919   3.967   2.080   0.120
15999TIP3    H247920   3.997   2.104   0.266
16000TIP3   OH247921   4.273   2.052   0.223
16000TIP3    H147922   4.178   2.058   0.206
16000TIP3    H247923   4.309   2.021   0.140
16001TIP3   OH247924   3.135   1.823   0.220
16001TIP3    H147925   3.164   1.822   0.312
16001TIP3    H247926   3.206   1.781   0.172
16002TIP3   OH247927   3.330   1.694   0.091
16002TIP3    H147928   3.340   1.608   0.132
16002TIP3    H247929   3.419   1.731   0.092
16003TIP3   OH247930   3.589   1.770   0.107
16003TIP3    H147931   3.632   1.692   0.140
16003TIP3    H247932   3.631   1.842   0.153
16004TIP3   OH247933   4.145   0.434   0.173
16004TIP3    H147934   4.134   0.420   0.268
16004TIP3    H247935   4.239   0.425   0.158
16005TIP3   OH247936   4.719   0.373   0.101
16005TIP3    H147937   4.763   0.414   0.027
16005TIP3    H247938   4.676   0.445   0.147
16006TIP3   OH247939   7.801   4.655   7.139
16006TIP3    H147940   7.869   4.594   7.108
16006TIP3    H247941   7.839   4.742   7.125
16007TIP3   OH247942   3.433   0.173   0.228
16007TIP3    H147943   3.343   0.141   0.236
16007TIP3    H247944   3.486   0.094   0.226
16008TIP3   OH247945   6.190   4.259   7.143
16008TIP3    H147946   6.230   4.312   7.074
16008TIP3    H247947   6.170   4.322   7.212
16009TIP3   OH247948   3.909   0.202   0.131
16009TIP3    H147949   3.957   0.246   0.060
16009TIP3    H247950   3.953   0.230   0.211
16010TIP3   OH247951   4.407   0.365   0.116
16010TIP3    H147952   4.462   0.346   0.040
16010TIP3    H247953   4.410   0.286   0.169
16011TIP3   OH247954   7.432   4.504   6.931
16011TIP3    H147955   7.352   4.551   6.956
16011TIP3    H247956   7.422   4.417   6.970
16012TIP3   OH247957   5.911   5.861   6.902
16012TIP3    H147958   5.828   5.819   6.877
16012TIP3    H247959   5.904   5.950   6.867
16013TIP3   OH247960   6.329   4.402   6.931
16013TIP3    H147961   6.367   4.314   6.925
16013TIP3    H247962   6.402   4.459   6.953
16014TIP3   OH247963   6.835   4.595   7.021
16014TIP3    H147964   6.893   4.547   7.080
16014TIP3    H247965   6.841   4.686   7.050
16015TIP3   OH247966   6.709   5.991   6.509
16015TIP3    H147967   6.790   6.022   6.471
16015TIP3    H247968   6.677   5.924   6.448
16016TIP3   OH247969   7.418   6.137   6.596
16016TIP3    H147970   7.406   6.042   6.589
16016TIP3    H247971   7.370   6.173   6.521
16017TIP3   OH247972   3.612   0.417   1.103
16017TIP3    H147973   3.570   0.352   1.159
16017TIP3    H247974   3.706   0.404   1.118
16018TIP3   OH247975   3.991   0.595   1.347
16018TIP3    H147976   4.018   0.579   1.257
16018TIP3    H247977   3.909   0.546   1.357
16019TIP3   OH247978   6.009   5.831   6.569
16019TIP3    H147979   6.007   5.838   6.664
16019TIP3    H247980   6.091   5.785   6.550
16020TIP3   OH247981   4.715   0.478   1.021
16020TIP3    H147982   4.696   0.445   1.109
16020TIP3    H247983   4.803   0.514   1.027
16021TIP3   OH247984   7.869   5.147   6.775
16021TIP3    H147985   7.835   5.232   6.801
16021TIP3    H247986   7.792   5.098   6.747
16022TIP3   OH247987   7.930   5.423   6.985
16022TIP3    H147988   7.979   5.351   7.026
16022TIP3    H247989   7.997   5.488   6.963
16023TIP3   OH247990   8.470   5.014   6.984
16023TIP3    H147991   8.449   5.089   6.930
16023TIP3    H247992   8.412   4.944   6.954
16024TIP3   OH247993   0.213   5.092   6.750
16024TIP3    H147994   0.249   5.009   6.780
16024TIP3    H247995   0.251   5.104   6.662
16025TIP3   OH247996   8.094   5.231   7.102
16025TIP3    H147997   8.169   5.199   7.151
16025TIP3    H247998   8.098   5.183   7.019
16026TIP3   OH247999   8.500   5.427   6.873
16026TIP3    H148000   8.596   5.416   6.872
16026TIP3    H248001   8.466   5.340   6.852
16027TIP3   OH248002   8.312   5.099   7.214
16027TIP3    H148003   8.352   5.106   7.300
16027TIP3    H248004   8.384   5.078   7.155
16028TIP3   OH248005   7.795   5.713   6.588
16028TIP3    H148006   7.774   5.778   6.521
16028TIP3    H248007   7.838   5.762   6.657
16029TIP3   OH248008   8.762   4.708   7.119
16029TIP3    H148009   8.733   4.624   7.155
16029TIP3    H248010   8.684   4.763   7.122
16030TIP3   OH248011   8.708   5.461   6.339
16030TIP3    H148012   8.643   5.532   6.342
16030TIP3    H248013   8.781   5.498   6.290
16031TIP3   OH248014   8.667   5.302   6.100
16031TIP3    H148015   8.700   5.340   6.181
16031TIP3    H248016   8.737   5.244   6.071
16032TIP3   OH248017   3.857   0.320   1.162
16032TIP3    H148018   3.907   0.309   1.243
16032TIP3    H248019   3.920   0.301   1.092
16033TIP3   OH248020   8.298   5.570   6.757
16033TIP3    H148021   8.267   5.510   6.689
16033TIP3    H248022   8.372   5.525   6.797
16034TIP3   OH248023   0.021   5.489   6.170
16034TIP3    H148024   0.086   5.560   6.169
16034TIP3    H248025   0.004   5.471   6.078
16035TIP3   OH248026   0.578   4.707   6.238
16035TIP3    H148027   0.502   4.764   6.231
16035TIP3    H248028   0.621   4.713   6.153
16036TIP3   OH248029   8.187   5.409   6.549
16036TIP3    H148030   8.106   5.453   6.521
16036TIP3    H248031   8.158   5.321   6.575
16037TIP3   OH248032   7.685   5.908   7.006
16037TIP3    H148033   7.758   5.893   6.945
16037TIP3    H248034   7.679   6.003   7.013
16038TIP3   OH248035   7.925   6.179   6.582
16038TIP3    H148036   7.929   6.114   6.652
16038TIP3    H248037   7.861   6.143   6.520
16039TIP3   OH248038   8.758   6.271   5.897
16039TIP3    H148039   8.800   6.194   5.859
16039TIP3    H248040   8.810   6.291   5.975
16040TIP3   OH248041   0.022   5.475   5.894
16040TIP3    H148042   0.035   5.453   5.802
16040TIP3    H248043   0.089   5.541   5.913
16041TIP3   OH248044   8.698   4.850   6.237
16041TIP3    H148045   8.664   4.854   6.327
16041TIP3    H248046   8.663   4.767   6.203
16042TIP3   OH248047   8.375   5.194   6.801
16042TIP3    H148048   8.285   5.177   6.827
16042TIP3    H248049   8.381   5.161   6.711
16043TIP3   OH248050   8.840   5.291   6.511
16043TIP3    H148051   8.787   5.360   6.470
16043TIP3    H248052   8.905   5.267   6.444
16044TIP3   OH248053   0.051   5.317   6.770
16044TIP3    H148054   0.016   5.316   6.681
16044TIP3    H248055   0.109   5.242   6.774
16045TIP3   OH248056   8.361   4.830   6.212
16045TIP3    H148057   8.357   4.831   6.307
16045TIP3    H248058   8.284   4.878   6.183
16046TIP3   OH248059   7.934   4.876   7.058
16046TIP3    H148060   7.994   4.900   7.129
16046TIP3    H248061   7.991   4.843   6.988
16047TIP3   OH248062   7.814   4.856   6.583
16047TIP3    H148063   7.859   4.893   6.507
16047TIP3    H248064   7.755   4.926   6.613
16048TIP3   OH248065   8.719   5.012   6.842
16048TIP3    H148066   8.645   5.013   6.902
16048TIP3    H248067   8.796   5.003   6.899
16049TIP3   OH248068   8.127   5.098   6.863
16049TIP3    H148069   8.039   5.099   6.826
16049TIP3    H248070   8.158   5.008   6.848
16050TIP3   OH248071   8.380   5.088   6.546
16050TIP3    H148072   8.474   5.107   6.538
16050TIP3    H248073   8.343   5.110   6.461
16051TIP3   OH248074   8.262   5.118   6.299
16051TIP3    H148075   8.199   5.070   6.246
16051TIP3    H248076   8.311   5.170   6.236
16052TIP3   OH248077   8.278   4.859   6.838
16052TIP3    H148078   8.244   4.777   6.875
16052TIP3    H248079   8.311   4.834   6.752
16053TIP3   OH248080   8.500   5.650   6.331
16053TIP3    H148081   8.425   5.595   6.308
16053TIP3    H248082   8.477   5.689   6.415
16054TIP3   OH248083   0.039   4.981   6.234
16054TIP3    H148084  -0.054   4.958   6.235
16054TIP3    H248085   0.042   5.075   6.248
16055TIP3   OH248086   0.103   5.248   6.292
16055TIP3    H148087   0.189   5.270   6.328
16055TIP3    H248088   0.079   5.325   6.240
16056TIP3   OH248089   8.156   5.597   7.005
16056TIP3    H148090   8.175   5.634   6.919
16056TIP3    H248091   8.237   5.552   7.030
16057TIP3   OH248092   8.642   5.801   6.139
16057TIP3    H148093   8.606   5.889   6.155
16057TIP3    H248094   8.602   5.747   6.207
16058TIP3   OH248095   0.566   5.320   6.119
16058TIP3    H148096   0.494   5.261   6.139
16058TIP3    H248097   0.526   5.389   6.065
16059TIP3   OH248098   8.224   5.956   6.630
16059TIP3    H148099   8.212   6.039   6.585
16059TIP3    H248100   8.144   5.945   6.682
16060TIP3   OH248101   7.856   5.279   6.345
16060TIP3    H148102   7.904   5.359   6.367
16060TIP3    H248103   7.783   5.277   6.406
16061TIP3   OH248104   8.388   5.748   6.560
16061TIP3    H148105   8.342   5.829   6.582
16061TIP3    H248106   8.368   5.689   6.633
16062TIP3   OH248107   8.182   6.206   6.500
16062TIP3    H148108   8.090   6.202   6.524
16062TIP3    H248109   8.213   6.288   6.539
16063TIP3   OH248110   0.002   5.854   5.959
16063TIP3    H148111   0.079   5.802   5.979
16063TIP3    H248112  -0.062   5.830   6.026
16064TIP3   OH248113   5.343   0.860   0.248
16064TIP3    H148114   5.270   0.914   0.278
16064TIP3    H248115   5.332   0.777   0.293
16065TIP3   OH248116   8.271   5.825   5.969
16065TIP3    H148117   8.292   5.735   5.942
16065TIP3    H248118   8.263   5.820   6.064
16066TIP3   OH248119   8.230   5.838   6.244
16066TIP3    H148120   8.293   5.810   6.310
16066TIP3    H248121   8.233   5.934   6.247
16067TIP3   OH248122   7.953   5.524   6.444
16067TIP3    H148123   7.900   5.574   6.506
16067TIP3    H248124   7.974   5.586   6.374
16068TIP3   OH248125   0.111   4.905   6.489
16068TIP3    H148126   0.077   4.919   6.401
16068TIP3    H248127   0.169   4.979   6.505
16069TIP3   OH248128   8.510   6.041   6.178
16069TIP3    H148129   8.424   6.055   6.217
16069TIP3    H248130   8.521   6.114   6.116
16070TIP3   OH248131   8.657   5.105   6.589
16070TIP3    H148132   8.720   5.172   6.562
16070TIP3    H248133   8.678   5.087   6.680
16071TIP3   OH248134   8.831   4.813   6.680
16071TIP3    H148135   8.809   4.888   6.734
16071TIP3    H248136   8.899   4.845   6.620
16072TIP3   OH248137   8.250   6.111   6.249
16072TIP3    H148138   8.234   6.182   6.188
16072TIP3    H248139   8.227   6.147   6.335
16073TIP3   OH248140   8.341   4.818   6.490
16073TIP3    H148141   8.334   4.909   6.517
16073TIP3    H248142   8.434   4.796   6.499
16074TIP3   OH248143   7.984   5.709   6.236
16074TIP3    H148144   8.057   5.770   6.249
16074TIP3    H248145   8.016   5.647   6.171
16075TIP3   OH248146   7.888   5.001   6.362
16075TIP3    H148147   7.894   5.096   6.366
16075TIP3    H248148   7.908   4.979   6.271
16076TIP3   OH248149   8.439   6.007   5.847
16076TIP3    H148150   8.388   5.943   5.897
16076TIP3    H248151   8.513   5.956   5.812
16077TIP3   OH248152  -0.019   6.060   5.783
16077TIP3    H148153   0.005   5.987   5.840
16077TIP3    H248154   0.033   6.045   5.703
16078TIP3   OH248155   8.106   5.520   6.080
16078TIP3    H148156   8.159   5.500   6.157
16078TIP3    H248157   8.170   5.534   6.010
16079TIP3   OH248158   8.593   5.735   5.877
16079TIP3    H148159   8.608   5.758   5.969
16079TIP3    H248160   8.601   5.640   5.875
16080TIP3   OH248161   8.286   5.471   6.289
16080TIP3    H148162   8.267   5.441   6.378
16080TIP3    H248163   8.327   5.395   6.247
16081TIP3   OH248164   8.396   5.275   6.121
16081TIP3    H148165   8.372   5.282   6.028
16081TIP3    H248166   8.491   5.281   6.122
16082TIP3   OH248167   8.246   6.320   6.066
16082TIP3    H148168   8.336   6.299   6.043
16082TIP3    H248169   8.212   6.368   5.990
16083TIP3   OH248170   7.710   5.719   6.205
16083TIP3    H148171   7.803   5.727   6.225
16083TIP3    H248172   7.699   5.627   6.182
16084TIP3   OH248173   7.617   6.316   6.667
16084TIP3    H148174   7.554   6.251   6.637
16084TIP3    H248175   7.666   6.272   6.737
16085TIP3   OH248176   7.746   6.182   6.871
16085TIP3    H148177   7.775   6.100   6.833
16085TIP3    H248178   7.823   6.218   6.915
16086TIP3   OH248179   0.494   5.509   5.925
16086TIP3    H148180   0.418   5.566   5.939
16086TIP3    H248181   0.570   5.567   5.935
16087TIP3   OH248182   0.285   5.360   6.085
16087TIP3    H148183   0.266   5.453   6.074
16087TIP3    H248184   0.295   5.327   5.995
16088TIP3   OH248185   7.972   5.587   7.213
16088TIP3    H148186   7.905   5.539   7.165
16088TIP3    H248187   8.043   5.600   7.150
16089TIP3   OH248188   0.291   4.968   5.928
16089TIP3    H148189   0.322   4.945   6.015
16089TIP3    H248190   0.212   4.917   5.915
16090TIP3   OH248191   0.370   5.336   6.358
16090TIP3    H148192   0.460   5.303   6.361
16090TIP3    H248193   0.361   5.373   6.271
16091TIP3   OH248194   0.505   4.898   6.539
16091TIP3    H148195   0.574   4.919   6.476
16091TIP3    H248196   0.448   4.837   6.492
16092TIP3   OH248197   8.115   4.902   7.264
16092TIP3    H148198   8.160   4.817   7.268
16092TIP3    H248199   8.186   4.965   7.251
16093TIP3   OH248200   4.950   1.024   0.053
16093TIP3    H148201   5.010   1.029  -0.022
16093TIP3    H248202   4.954   1.111   0.092
16094TIP3   OH248203   7.881   4.691   6.792
16094TIP3    H148204   7.802   4.696   6.846
16094TIP3    H248205   7.869   4.759   6.726
16095TIP3   OH248206   5.210   0.621   0.353
16095TIP3    H148207   5.147   0.610   0.425
16095TIP3    H248208   5.156   0.649   0.279
16096TIP3   OH248209   0.038   4.907   6.973
16096TIP3    H148210   0.033   4.815   7.000
16096TIP3    H248211   0.123   4.914   6.928
16097TIP3   OH248212   8.187   4.618   6.922
16097TIP3    H148213   8.103   4.584   6.954
16097TIP3    H248214   8.252   4.556   6.955
16098TIP3   OH248215   7.995   4.503   6.621
16098TIP3    H148216   8.035   4.556   6.553
16098TIP3    H248217   7.965   4.566   6.687
16099TIP3   OH248218   8.673   4.658   6.857
16099TIP3    H148219   8.714   4.715   6.792
16099TIP3    H248220   8.721   4.677   6.938
16100TIP3   OH248221   0.291   4.837   6.822
16100TIP3    H148222   0.327   4.792   6.745
16100TIP3    H248223   0.265   4.766   6.881
16101TIP3   OH248224   0.314   4.733   6.428
16101TIP3    H148225   0.238   4.782   6.459
16101TIP3    H248226   0.302   4.645   6.463
16102TIP3   OH248227   7.737   6.100   6.393
16102TIP3    H148228   7.657   6.047   6.398
16102TIP3    H248229   7.706   6.187   6.366
16103TIP3   OH248230   8.127   4.653   6.406
16103TIP3    H148231   8.173   4.592   6.348
16103TIP3    H248232   8.196   4.707   6.444
16104TIP3   OH248233   8.618   4.850   6.501
16104TIP3    H148234   8.682   4.805   6.557
16104TIP3    H248235   8.625   4.942   6.525
16105TIP3   OH248236   8.494   6.239   5.979
16105TIP3    H148237   8.580   6.266   5.947
16105TIP3    H248238   8.471   6.164   5.925
16106TIP3   OH248239   7.807   6.087   6.078
16106TIP3    H148240   7.809   6.079   6.173
16106TIP3    H248241   7.886   6.043   6.048
16107TIP3   OH248242   7.126   2.155   1.077
16107TIP3    H148243   7.123   2.250   1.070
16107TIP3    H248244   7.183   2.128   1.005
16108TIP3   OH248245   7.152   2.114   1.351
16108TIP3    H148246   7.058   2.122   1.370
16108TIP3    H248247   7.157   2.125   1.256
16109TIP3   OH248248   7.453   2.546   1.139
16109TIP3    H148249   7.494   2.468   1.177
16109TIP3    H248250   7.519   2.580   1.078
16110TIP3   OH248251   8.161   1.807   1.381
16110TIP3    H148252   8.182   1.892   1.340
16110TIP3    H248253   8.124   1.755   1.310
16111TIP3   OH248254   7.670   1.991   1.485
16111TIP3    H148255   7.602   1.957   1.543
16111TIP3    H248256   7.638   2.077   1.458
16112TIP3   OH248257   7.633   1.543   1.004
16112TIP3    H148258   7.572   1.587   1.063
16112TIP3    H248259   7.674   1.614   0.954
16113TIP3   OH248260   8.186   2.046   1.595
16113TIP3    H148261   8.159   2.101   1.522
16113TIP3    H248262   8.124   1.973   1.595
16114TIP3   OH248263   7.161   2.409   0.915
16114TIP3    H148264   7.159   2.338   0.852
16114TIP3    H248265   7.154   2.489   0.862
16115TIP3   OH248266   7.978   1.709   1.201
16115TIP3    H148267   7.939   1.685   1.286
16115TIP3    H248268   7.929   1.786   1.174
16116TIP3   OH248269   7.860   1.693   1.448
16116TIP3    H148270   7.789   1.679   1.510
16116TIP3    H248271   7.919   1.754   1.493
16117TIP3   OH248272   7.402   2.651   0.849
16117TIP3    H148273   7.402   2.621   0.758
16117TIP3    H248274   7.484   2.618   0.885
16118TIP3   OH248275   7.146   2.195   0.749
16118TIP3    H148276   7.085   2.126   0.774
16118TIP3    H248277   7.172   2.173   0.659
16119TIP3   OH248278   7.122   1.881   0.477
16119TIP3    H148279   7.182   1.941   0.520
16119TIP3    H248280   7.178   1.819   0.431
16120TIP3   OH248281   8.085   2.505   1.407
16120TIP3    H148282   7.997   2.541   1.420
16120TIP3    H248283   8.109   2.532   1.318
16121TIP3   OH248284   7.500   2.205   0.682
16121TIP3    H148285   7.474   2.263   0.754
16121TIP3    H248286   7.564   2.146   0.722
16122TIP3   OH248287   7.375   1.975   0.592
16122TIP3    H148288   7.417   2.054   0.627
16122TIP3    H248289   7.389   1.981   0.497
16123TIP3   OH248290   7.814   1.243   0.626
16123TIP3    H148291   7.737   1.254   0.682
16123TIP3    H248292   7.824   1.328   0.583
16124TIP3   OH248293   7.754   2.691   0.224
16124TIP3    H148294   7.758   2.773   0.175
16124TIP3    H248295   7.823   2.637   0.184
16125TIP3   OH248296   7.105   2.855   0.310
16125TIP3    H148297   7.167   2.919   0.276
16125TIP3    H248298   7.103   2.872   0.404
16126TIP3   OH248299   7.128   2.861   0.578
16126TIP3    H148300   7.058   2.833   0.638
16126TIP3    H248301   7.192   2.904   0.635
16127TIP3   OH248302   7.378   2.052   0.330
16127TIP3    H148303   7.341   2.030   0.245
16127TIP3    H248304   7.469   2.076   0.311
16128TIP3   OH248305   7.092   1.438   0.627
16128TIP3    H148306   7.066   1.430   0.718
16128TIP3    H248307   7.060   1.358   0.585
16129TIP3   OH248308   7.269   1.825   0.981
16129TIP3    H148309   7.274   1.913   0.945
16129TIP3    H248310   7.314   1.770   0.916
16130TIP3   OH248311   7.386   1.938   1.207
16130TIP3    H148312   7.345   1.893   1.134
16130TIP3    H248313   7.380   1.876   1.280
16131TIP3   OH248314   6.763   1.405   0.593
16131TIP3    H148315   6.737   1.386   0.683
16131TIP3    H248316   6.683   1.397   0.542
16132TIP3   OH248317   7.172   1.595   1.232
16132TIP3    H148318   7.134   1.543   1.303
16132TIP3    H248319   7.175   1.684   1.268
16133TIP3   OH248320   6.776   1.813   1.011
16133TIP3    H148321   6.864   1.813   1.048
16133TIP3    H248322   6.789   1.796   0.918
16134TIP3   OH248323   7.452   1.740   1.397
16134TIP3    H148324   7.440   1.795   1.475
16134TIP3    H248325   7.447   1.650   1.430
16135TIP3   OH248326   7.172   1.837   1.369
16135TIP3    H148327   7.186   1.932   1.369
16135TIP3    H248328   7.140   1.818   1.457
16136TIP3   OH248329   7.346   1.530   0.621
16136TIP3    H148330   7.252   1.513   0.625
16136TIP3    H248331   7.356   1.618   0.658
16137TIP3   OH248332   7.419   1.757   0.754
16137TIP3    H148333   7.514   1.745   0.755
16137TIP3    H248334   7.405   1.834   0.700
16138TIP3   OH248335   7.004   2.385   0.606
16138TIP3    H148336   6.910   2.370   0.610
16138TIP3    H248337   7.042   2.314   0.657
16139TIP3   OH248338   7.821   1.872   0.551
16139TIP3    H148339   7.755   1.840   0.489
16139TIP3    H248340   7.845   1.958   0.518
16140TIP3   OH248341   7.540   2.723   0.414
16140TIP3    H148342   7.482   2.656   0.452
16140TIP3    H248343   7.552   2.696   0.323
16141TIP3   OH248344   7.633   2.336   1.239
16141TIP3    H148345   7.588   2.317   1.321
16141TIP3    H248346   7.662   2.250   1.207
16142TIP3   OH248347   7.261   2.391   0.303
16142TIP3    H148348   7.338   2.396   0.359
16142TIP3    H248349   7.207   2.466   0.329
16143TIP3   OH248350   7.742   2.946   0.123
16143TIP3    H148351   7.790   3.028   0.133
16143TIP3    H248352   7.670   2.968   0.064
16144TIP3   OH248353   7.479   2.367   0.459
16144TIP3    H148354   7.493   2.295   0.522
16144TIP3    H248355   7.558   2.368   0.405
16145TIP3   OH248356   7.402   1.446   0.881
16145TIP3    H148357   7.387   1.474   0.791
16145TIP3    H248358   7.472   1.502   0.913
16146TIP3   OH248359   7.044   1.670   0.924
16146TIP3    H148360   7.105   1.741   0.904
16146TIP3    H248361   7.034   1.673   1.020
16147TIP3   OH248362   7.238   1.367   1.085
16147TIP3    H148363   7.225   1.446   1.137
16147TIP3    H248364   7.303   1.391   1.019
16148TIP3   OH248365   6.690   1.341   0.846
16148TIP3    H148366   6.645   1.411   0.894
16148TIP3    H248367   6.734   1.291   0.915
16149TIP3   OH248368   7.627   2.063   1.195
16149TIP3    H148369   7.548   2.009   1.191
16149TIP3    H248370   7.692   2.008   1.240
16150TIP3   OH248371   6.817   2.562   0.341
16150TIP3    H148372   6.761   2.545   0.266
16150TIP3    H248373   6.906   2.558   0.307
16151TIP3   OH248374   7.240   2.610   0.109
16151TIP3    H148375   7.312   2.575   0.160
16151TIP3    H248376   7.279   2.638   0.026
16152TIP3   OH248377   6.957   2.300   0.331
16152TIP3    H148378   6.986   2.347   0.409
16152TIP3    H248379   6.999   2.214   0.339
16153TIP3   OH248380   6.860   1.773   0.473
16153TIP3    H148381   6.815   1.803   0.394
16153TIP3    H248382   6.948   1.810   0.466
16154TIP3   OH248383   7.630   2.113   0.234
16154TIP3    H148384   7.620   2.065   0.153
16154TIP3    H248385   7.599   2.202   0.213
16155TIP3   OH248386   7.811   2.336   0.567
16155TIP3    H148387   7.798   2.428   0.590
16155TIP3    H248388   7.869   2.303   0.635
16156TIP3   OH248389   7.956   2.226   0.770
16156TIP3    H148390   7.938   2.142   0.814
16156TIP3    H248391   8.028   2.264   0.820
16157TIP3   OH248392   7.897   2.461   1.158
16157TIP3    H148393   7.987   2.481   1.135
16157TIP3    H248394   7.846   2.533   1.120
16158TIP3   OH248395   7.841   2.110   0.414
16158TIP3    H148396   7.767   2.106   0.354
16158TIP3    H248397   7.824   2.187   0.469
16159TIP3   OH248398   7.649   1.794   0.354
16159TIP3    H148399   7.608   1.826   0.273
16159TIP3    H248400   7.646   1.699   0.346
16160TIP3   OH248401   7.903   1.966   0.863
16160TIP3    H148402   7.962   1.893   0.884
16160TIP3    H248403   7.886   2.009   0.947
16161TIP3   OH248404   7.629   1.524   0.317
16161TIP3    H148405   7.697   1.496   0.378
16161TIP3    H248406   7.552   1.473   0.341
16162TIP3   OH248407   7.694   1.708   0.742
16162TIP3    H148408   7.753   1.634   0.751
16162TIP3    H248409   7.742   1.771   0.689
16163TIP3   OH248410   7.884   1.975   1.287
16163TIP3    H148411   7.978   1.975   1.302
16163TIP3    H248412   7.846   1.962   1.373
16164TIP3   OH248413   7.921   1.936   1.591
16164TIP3    H148414   7.827   1.916   1.592
16164TIP3    H248415   7.925   2.031   1.593
16165TIP3   OH248416   7.847   1.487   0.808
16165TIP3    H148417   7.882   1.487   0.897
16165TIP3    H248418   7.774   1.425   0.811
16166TIP3   OH248419   7.855   1.468   0.470
16166TIP3    H148420   7.905   1.407   0.415
16166TIP3    H248421   7.913   1.543   0.480
16167TIP3   OH248422   7.434   1.469   1.443
16167TIP3    H148423   7.406   1.388   1.485
16167TIP3    H248424   7.498   1.441   1.377
16168TIP3   OH248425   7.886   1.398   1.292
16168TIP3    H148426   7.915   1.447   1.215
16168TIP3    H248427   7.792   1.414   1.296
16169TIP3   OH248428   7.976   1.486   1.048
16169TIP3    H148429   8.060   1.451   1.017
16169TIP3    H248430   7.997   1.574   1.081
16170TIP3   OH248431   7.059   1.277   1.291
16170TIP3    H148432   7.106   1.290   1.208
16170TIP3    H248433   7.128   1.251   1.353
16171TIP3   OH248434   7.609   1.380   1.238
16171TIP3    H148435   7.618   1.421   1.152
16171TIP3    H248436   7.624   1.286   1.222
16172TIP3   OH248437   7.633   1.300   0.818
16172TIP3    H148438   7.553   1.350   0.836
16172TIP3    H248439   7.624   1.220   0.870
16173TIP3   OH248440   7.038   1.404   0.893
16173TIP3    H148441   7.105   1.369   0.951
16173TIP3    H248442   7.047   1.499   0.901
16174TIP3   OH248443   7.541   2.985   0.548
16174TIP3    H148444   7.570   2.895   0.564
16174TIP3    H248445   7.538   2.993   0.453
16175TIP3   OH248446   0.184   2.508   0.449
16175TIP3    H148447   0.151   2.595   0.427
16175TIP3    H248448   0.113   2.449   0.424
16176TIP3   OH248449   0.184   2.504   0.868
16176TIP3    H148450   0.236   2.483   0.946
16176TIP3    H248451   0.138   2.422   0.848
16177TIP3   OH248452   8.395   2.365   1.227
16177TIP3    H148453   8.431   2.315   1.299
16177TIP3    H248454   8.470   2.382   1.169
16178TIP3   OH248455   0.461   2.800   0.536
16178TIP3    H148456   0.440   2.736   0.604
16178TIP3    H248457   0.472   2.883   0.584
16179TIP3   OH248458   8.370   2.782   0.934
16179TIP3    H148459   8.357   2.687   0.926
16179TIP3    H248460   8.460   2.796   0.904
16180TIP3   OH248461   8.091   2.000   0.647
16180TIP3    H148462   8.059   2.090   0.653
16180TIP3    H248463   8.020   1.947   0.682
16181TIP3   OH248464   8.172   2.320   0.914
16181TIP3    H148465   8.214   2.241   0.948
16181TIP3    H248466   8.245   2.377   0.888
16182TIP3   OH248467   0.111   3.233   0.557
16182TIP3    H148468   0.130   3.167   0.490
16182TIP3    H248469   0.121   3.186   0.640
16183TIP3   OH248470  -0.013   2.730   0.871
16183TIP3    H148471   0.032   2.651   0.840
16183TIP3    H248472   0.057   2.785   0.905
16184TIP3   OH248473   1.028   2.038   0.891
16184TIP3    H148474   1.039   2.125   0.930
16184TIP3    H248475   1.053   2.050   0.799
16185TIP3   OH248476   0.399   2.210   0.909
16185TIP3    H148477   0.431   2.124   0.937
16185TIP3    H248478   0.360   2.194   0.823
16186TIP3   OH248479   8.659   1.866   0.866
16186TIP3    H148480   8.637   1.940   0.809
16186TIP3    H248481   8.604   1.794   0.834
16187TIP3   OH248482   0.448   1.973   0.507
16187TIP3    H148483   0.512   1.966   0.578
16187TIP3    H248484   0.498   2.006   0.432
16188TIP3   OH248485   8.287   2.083   0.999
16188TIP3    H148486   8.372   2.064   1.038
16188TIP3    H248487   8.284   2.030   0.919
16189TIP3   OH248488   8.701   2.283   0.815
16189TIP3    H148489   8.796   2.268   0.821
16189TIP3    H248490   8.667   2.201   0.780
16190TIP3   OH248491   1.072   2.264   1.051
16190TIP3    H148492   0.985   2.302   1.045
16190TIP3    H248493   1.111   2.305   1.129
16191TIP3   OH248494   8.629   1.878   1.326
16191TIP3    H148495   8.576   1.908   1.252
16191TIP3    H248496   8.573   1.893   1.403
16192TIP3   OH248497   0.054   2.718   0.331
16192TIP3    H148498   0.031   2.700   0.239
16192TIP3    H248499   0.007   2.798   0.352
16193TIP3   OH248500   8.741   2.638   1.089
16193TIP3    H148501   8.680   2.698   1.131
16193TIP3    H248502   8.779   2.688   1.017
16194TIP3   OH248503   0.607   1.993   0.728
16194TIP3    H148504   0.565   1.970   0.811
16194TIP3    H248505   0.662   2.069   0.750
16195TIP3   OH248506   8.528   1.976   1.087
16195TIP3    H148507   8.584   2.049   1.113
16195TIP3    H248508   8.576   1.933   1.016
16196TIP3   OH248509   8.543   2.783   1.214
16196TIP3    H148510   8.492   2.845   1.161
16196TIP3    H248511   8.480   2.746   1.275
16197TIP3   OH248512   8.056   2.528   0.474
16197TIP3    H148513   7.968   2.559   0.494
16197TIP3    H248514   8.108   2.608   0.466
16198TIP3   OH248515   0.479   3.050   0.670
16198TIP3    H148516   0.393   3.042   0.711
16198TIP3    H248517   0.477   3.136   0.627
16199TIP3   OH248518   0.827   1.923   1.058
16199TIP3    H148519   0.739   1.935   1.021
16199TIP3    H248520   0.887   1.951   0.989
16200TIP3   OH248521   0.072   1.575   1.046
16200TIP3    H148522   0.061   1.483   1.070
16200TIP3    H248523  -0.003   1.619   1.086
16201TIP3   OH248524   0.186   3.074   0.339
16201TIP3    H148525   0.237   2.993   0.329
16201TIP3    H248526   0.244   3.143   0.307
16202TIP3   OH248527   0.359   2.871   0.287
16202TIP3    H148528   0.357   2.796   0.227
16202TIP3    H248529   0.396   2.835   0.368
16203TIP3   OH248530   0.718   2.938   1.020
16203TIP3    H148531   0.697   2.865   0.962
16203TIP3    H248532   0.698   3.016   0.967
16204TIP3   OH248533   8.907   2.350   0.298
16204TIP3    H148534   8.827   2.399   0.278
16204TIP3    H248535   8.955   2.347   0.215
16205TIP3   OH248536   2.948   6.350   7.252
16205TIP3    H148537   3.013   6.399   7.303
16205TIP3    H248538   2.999   6.285   7.204
16206TIP3   OH248539   0.893   2.603   0.893
16206TIP3    H148540   0.808   2.647   0.888
16206TIP3    H248541   0.934   2.620   0.808
16207TIP3   OH248542   0.368   2.434   0.262
16207TIP3    H148543   0.313   2.463   0.335
16207TIP3    H248544   0.450   2.407   0.302
16208TIP3   OH248545   0.593   2.462   1.204
16208TIP3    H148546   0.586   2.544   1.252
16208TIP3    H248547   0.512   2.457   1.153
16209TIP3   OH248548   8.502   2.409   0.663
16209TIP3    H148549   8.465   2.347   0.600
16209TIP3    H248550   8.575   2.363   0.703
16210TIP3   OH248551   8.621   2.827   0.814
16210TIP3    H148552   8.597   2.817   0.722
16210TIP3    H248553   8.711   2.796   0.819
16211TIP3   OH248554   8.605   2.406   1.042
16211TIP3    H148555   8.643   2.369   0.963
16211TIP3    H248556   8.656   2.485   1.059
16212TIP3   OH248557   0.246   3.041   0.809
16212TIP3    H148558   0.231   3.124   0.854
16212TIP3    H248559   0.231   2.974   0.875
16213TIP3   OH248560   0.198   2.298   0.094
16213TIP3    H148561   0.258   2.354   0.143
16213TIP3    H248562   0.227   2.307   0.003
16214TIP3   OH248563   8.565   2.505   1.461
16214TIP3    H148564   8.512   2.482   1.537
16214TIP3    H248565   8.507   2.559   1.407
16215TIP3   OH248566   8.834   2.967   0.355
16215TIP3    H148567   8.922   3.004   0.360
16215TIP3    H248568   8.783   3.032   0.306
16216TIP3   OH248569   0.711   1.524   0.153
16216TIP3    H148570   0.634   1.545   0.205
16216TIP3    H248571   0.722   1.600   0.095
16217TIP3   OH248572   8.386   2.242   0.467
16217TIP3    H148573   8.310   2.281   0.424
16217TIP3    H248574   8.360   2.152   0.484
16218TIP3   OH248575   3.543   7.260   6.874
16218TIP3    H148576   3.510   7.208   6.801
16218TIP3    H248577   3.616   7.209   6.909
16219TIP3   OH248578   8.345   2.679   1.387
16219TIP3    H148579   8.270   2.739   1.382
16219TIP3    H248580   8.323   2.619   1.458
16220TIP3   OH248581   8.118   2.842   1.059
16220TIP3    H148582   8.198   2.816   1.013
16220TIP3    H248583   8.149   2.887   1.138
16221TIP3   OH248584   0.939   3.277   1.081
16221TIP3    H148585   0.943   3.186   1.110
16221TIP3    H248586   0.862   3.313   1.126
16222TIP3   OH248587   0.048   3.094   1.229
16222TIP3    H148588   0.081   3.148   1.301
16222TIP3    H248589   0.019   3.013   1.270
16223TIP3   OH248590   8.736   3.182   0.200
16223TIP3    H148591   8.653   3.149   0.165
16223TIP3    H248592   8.719   3.274   0.220
16224TIP3   OH248593   8.227   3.047   0.537
16224TIP3    H148594   8.245   3.037   0.631
16224TIP3    H248595   8.190   2.963   0.510
16225TIP3   OH248596   3.013   7.328   7.058
16225TIP3    H148597   3.057   7.246   7.034
16225TIP3    H248598   3.022   7.333   7.153
16226TIP3   OH248599   0.081   3.161   0.069
16226TIP3    H148600  -0.007   3.165   0.108
16226TIP3    H248601   0.134   3.116   0.134
16227TIP3   OH248602   0.840   2.421   1.356
16227TIP3    H148603   0.753   2.436   1.318
16227TIP3    H248604   0.856   2.327   1.343
16228TIP3   OH248605   8.742   1.668   1.178
16228TIP3    H148606   8.660   1.633   1.143
16228TIP3    H248607   8.715   1.746   1.227
16229TIP3   OH248608   0.360   1.791   1.375
16229TIP3    H148609   0.422   1.765   1.442
16229TIP3    H248610   0.274   1.779   1.415
16230TIP3   OH248611   0.596   2.199   1.301
16230TIP3    H148612   0.556   2.196   1.388
16230TIP3    H248613   0.581   2.289   1.271
16231TIP3   OH248614   3.247   6.498   7.101
16231TIP3    H148615   3.199   6.488   7.019
16231TIP3    H248616   3.331   6.537   7.076
16232TIP3   OH248617   8.886   1.697   0.147
16232TIP3    H148618   8.849   1.705   0.234
16232TIP3    H248619   8.850   1.615   0.112
16233TIP3   OH248620   8.678   2.185   1.192
16233TIP3    H148621   8.635   2.192   1.277
16233TIP3    H248622   8.657   2.266   1.147
16234TIP3   OH248623   8.566   2.069   0.706
16234TIP3    H148624   8.478   2.043   0.733
16234TIP3    H248625   8.573   2.038   0.616
16235TIP3   OH248626   0.133   2.146   0.435
16235TIP3    H148627   0.085   2.218   0.394
16235TIP3    H248628   0.190   2.113   0.366
16236TIP3   OH248629   0.331   2.413   1.490
16236TIP3    H148630   0.304   2.349   1.556
16236TIP3    H248631   0.421   2.435   1.513
16237TIP3   OH248632   0.301   2.157   0.658
16237TIP3    H148633   0.233   2.179   0.595
16237TIP3    H248634   0.349   2.084   0.619
16238TIP3   OH248635   8.522   2.194   1.421
16238TIP3    H148636   8.560   2.236   1.498
16238TIP3    H248637   8.493   2.108   1.451
16239TIP3   OH248638   8.553   1.680   0.125
16239TIP3    H148639   8.543   1.685   0.220
16239TIP3    H248640   8.475   1.723   0.091
16240TIP3   OH248641   8.092   1.774   0.914
16240TIP3    H148642   8.161   1.775   0.979
16240TIP3    H248643   8.114   1.700   0.857
16241TIP3   OH248644   8.020   1.690   0.494
16241TIP3    H148645   8.062   1.726   0.416
16241TIP3    H248646   7.957   1.757   0.520
16242TIP3   OH248647   0.343   2.411   1.081
16242TIP3    H148648   0.370   2.345   1.017
16242TIP3    H248649   0.299   2.362   1.150
16243TIP3   OH248650   0.024   1.859   0.759
16243TIP3    H148651  -0.055   1.858   0.813
16243TIP3    H248652   0.096   1.851   0.821
16244TIP3   OH248653   8.332   1.942   0.766
16244TIP3    H148654   8.250   1.947   0.718
16244TIP3    H248655   8.360   1.851   0.757
16245TIP3   OH248656   8.569   1.949   0.459
16245TIP3    H148657   8.664   1.957   0.448
16245TIP3    H248658   8.534   1.965   0.372
16246TIP3   OH248659   0.467   1.946   0.966
16246TIP3    H148660   0.446   1.966   1.057
16246TIP3    H248661   0.398   1.885   0.939
16247TIP3   OH248662   8.456   1.972   0.211
16247TIP3    H148663   8.392   1.922   0.160
16247TIP3    H248664   8.511   2.015   0.145
16248TIP3   OH248665   0.073   2.232   0.864
16248TIP3    H148666   0.138   2.182   0.815
16248TIP3    H248667   0.069   2.191   0.950
16249TIP3   OH248668   8.470   1.695   0.744
16249TIP3    H148669   8.442   1.619   0.795
16249TIP3    H248670   8.485   1.660   0.656
16250TIP3   OH248671   0.042   2.133   1.126
16250TIP3    H148672  -0.045   2.162   1.152
16250TIP3    H248673   0.102   2.185   1.179
16251TIP3   OH248674   8.670   2.493   0.237
16251TIP3    H148675   8.600   2.431   0.216
16251TIP3    H248676   8.648   2.526   0.324
16252TIP3   OH248677   0.659   2.739   0.841
16252TIP3    H148678   0.692   2.789   0.767
16252TIP3    H248679   0.580   2.697   0.809
16253TIP3   OH248680   0.240   1.798   0.157
16253TIP3    H148681   0.147   1.777   0.149
16253TIP3    H248682   0.242   1.894   0.164
16254TIP3   OH248683   0.212   2.817   1.269
16254TIP3    H148684   0.280   2.802   1.336
16254TIP3    H248685   0.130   2.814   1.318
16255TIP3   OH248686   0.296   2.067   0.220
16255TIP3    H148687   0.392   2.070   0.228
16255TIP3    H248688   0.274   2.143   0.166
16256TIP3   OH248689   8.384   2.503   0.893
16256TIP3    H148690   8.419   2.483   0.806
16256TIP3    H248691   8.452   2.473   0.954
16257TIP3   OH248692   8.829   2.655   0.084
16257TIP3    H148693   8.784   2.739   0.076
16257TIP3    H248694   8.770   2.601   0.138
16258TIP3   OH248695   8.286   2.463   1.586
16258TIP3    H148696   8.277   2.377   1.626
16258TIP3    H248697   8.207   2.475   1.534
16259TIP3   OH248698   0.091   2.566   1.547
16259TIP3    H148699   0.027   2.501   1.517
16259TIP3    H248700   0.175   2.534   1.512
16260TIP3   OH248701   0.331   3.104   1.137
16260TIP3    H148702   0.237   3.083   1.142
16260TIP3    H248703   0.353   3.134   1.225
16261TIP3   OH248704   0.713   2.156   0.036
16261TIP3    H148705   0.656   2.111  -0.026
16261TIP3    H248706   0.720   2.245   0.002
16262TIP3   OH248707   0.961   3.003   1.120
16262TIP3    H148708   0.867   2.990   1.109
16262TIP3    H248709   0.998   2.984   1.034
16263TIP3   OH248710   0.433   2.603   0.743
16263TIP3    H148711   0.343   2.581   0.768
16263TIP3    H248712   0.467   2.522   0.706
16264TIP3   OH248713   8.491   2.834   0.564
16264TIP3    H148714   8.506   2.909   0.507
16264TIP3    H248715   8.398   2.813   0.553
16265TIP3   OH248716   8.064   2.104   0.253
16265TIP3    H148717   8.112   2.184   0.271
16265TIP3    H248718   7.990   2.105   0.314
16266TIP3   OH248719   8.577   2.591   0.468
16266TIP3    H148720   8.564   2.680   0.503
16266TIP3    H248721   8.551   2.533   0.540
16267TIP3   OH248722   8.774   3.167   1.010
16267TIP3    H148723   8.817   3.245   0.974
16267TIP3    H248724   8.832   3.137   1.080
16268TIP3   OH248725   8.453   3.054   0.392
16268TIP3    H148726   8.369   3.059   0.439
16268TIP3    H248727   8.489   3.142   0.399
16269TIP3   OH248728   0.221   2.828   0.993
16269TIP3    H148729   0.217   2.829   1.089
16269TIP3    H248730   0.291   2.766   0.973
16270TIP3   OH248731   3.192   6.893   7.128
16270TIP3    H148732   3.229   6.880   7.215
16270TIP3    H248733   3.108   6.849   7.130
16271TIP3   OH248734   0.476   3.319   1.020
16271TIP3    H148735   0.408   3.258   1.049
16271TIP3    H248736   0.433   3.375   0.956
16272TIP3   OH248737   8.437   1.942   1.524
16272TIP3    H148738   8.359   1.987   1.557
16272TIP3    H248739   8.423   1.850   1.546
16273TIP3   OH248740   0.381   2.651   0.092
16273TIP3    H148741   0.367   2.576   0.150
16273TIP3    H248742   0.474   2.649   0.070
16274TIP3   OH248743   2.537   6.856   7.140
16274TIP3    H148744   2.547   6.766   7.110
16274TIP3    H248745   2.530   6.850   7.235
16275TIP3   OH248746   8.439   2.677   0.148
16275TIP3    H148747   8.506   2.644   0.209
16275TIP3    H248748   8.446   2.772   0.154
16276TIP3   OH248749   8.177   2.345   0.320
16276TIP3    H148750   8.128   2.397   0.384
16276TIP3    H248751   8.199   2.407   0.250
16277TIP3   OH248752   0.406   2.015   1.224
16277TIP3    H148753   0.483   2.059   1.260
16277TIP3    H248754   0.392   1.940   1.281
16278TIP3   OH248755   0.301   1.752   0.423
16278TIP3    H148756   0.278   1.769   0.332
16278TIP3    H248757   0.344   1.832   0.453
16279TIP3   OH248758   8.685   2.883   0.042
16279TIP3    H148759   8.602   2.913   0.080
16279TIP3    H248760   8.675   2.899  -0.052
16280TIP3   OH248761   8.850   1.952   0.507
16280TIP3    H148762   8.911   2.021   0.481
16280TIP3    H248763   8.874   1.932   0.597
16281TIP3   OH248764   0.246   2.247   1.277
16281TIP3    H148765   0.274   2.293   1.356
16281TIP3    H248766   0.297   2.166   1.277
16282TIP3   OH248767   0.111   1.649   0.594
16282TIP3    H148768   0.088   1.726   0.645
16282TIP3    H248769   0.181   1.678   0.536
16283TIP3   OH248770   8.440   2.954   0.142
16283TIP3    H148771   8.356   2.985   0.109
16283TIP3    H248772   8.444   2.988   0.231
16284TIP3   OH248773   8.523   1.674   0.405
16284TIP3    H148774   8.511   1.765   0.432
16284TIP3    H248775   8.617   1.660   0.410
16285TIP3   OH248776   0.861   2.154   1.268
16285TIP3    H148777   0.766   2.154   1.283
16285TIP3    H248778   0.871   2.118   1.180
16286TIP3   OH248779   0.527   2.345   0.658
16286TIP3    H148780   0.450   2.290   0.669
16286TIP3    H248781   0.593   2.306   0.714
16287TIP3   OH248782   8.192   2.553   0.129
16287TIP3    H148783   8.266   2.611   0.147
16287TIP3    H248784   8.224   2.494   0.061
16288TIP3   OH248785   8.081   1.827   0.265
16288TIP3    H148786   8.096   1.922   0.271
16288TIP3    H248787   8.024   1.817   0.189
16289TIP3   OH248788   0.504   3.317   0.586
16289TIP3    H148789   0.461   3.368   0.517
16289TIP3    H248790   0.597   3.335   0.574
16290TIP3   OH248791   8.489   1.573   1.121
16290TIP3    H148792   8.463   1.538   1.035
16290TIP3    H248793   8.476   1.500   1.181
16291TIP3   OH248794   8.159   2.787   0.439
16291TIP3    H148795   8.089   2.806   0.502
16291TIP3    H248796   8.128   2.824   0.357
16292TIP3   OH248797   2.687   7.062   7.039
16292TIP3    H148798   2.640   6.985   7.070
16292TIP3    H248799   2.762   7.027   6.991
16293TIP3   OH248800   0.401   3.187   1.391
16293TIP3    H148801   0.400   3.125   1.464
16293TIP3    H248802   0.442   3.265   1.427
16294TIP3   OH248803   3.132   7.101   6.957
16294TIP3    H148804   3.165   7.032   7.015
16294TIP3    H248805   3.181   7.090   6.876
16295TIP3   OH248806   2.366   6.551   7.245
16295TIP3    H148807   2.416   6.524   7.321
16295TIP3    H248808   2.431   6.564   7.176
16296TIP3   OH248809   8.892   2.806   1.429
16296TIP3    H148810   8.799   2.783   1.424
16296TIP3    H248811   8.930   2.739   1.485
16297TIP3   OH248812   2.936   6.781   7.089
16297TIP3    H148813   2.913   6.793   7.181
16297TIP3    H248814   2.916   6.689   7.071
16298TIP3   OH248815   0.503   2.885   1.184
16298TIP3    H148816   0.576   2.911   1.128
16298TIP3    H248817   0.433   2.947   1.162
16299TIP3   OH248818   8.474   2.302   0.194
16299TIP3    H148819   8.454   2.267   0.280
16299TIP3    H248820   8.522   2.232   0.150
16300TIP3   OH248821   8.812   2.381   1.440
16300TIP3    H148822   8.725   2.421   1.447
16300TIP3    H248823   8.843   2.407   1.353
16301TIP3   OH248824   8.610   2.120   0.037
16301TIP3    H148825   8.580   2.123  -0.054
16301TIP3    H248826   8.705   2.127   0.031
16302TIP3   OH248827   0.369   2.758   1.500
16302TIP3    H148828   0.450   2.720   1.466
16302TIP3    H248829   0.362   2.724   1.588
16303TIP3   OH248830   3.470   6.612   6.981
16303TIP3    H148831   3.453   6.574   6.895
16303TIP3    H248832   3.454   6.705   6.970
16304TIP3   OH248833   8.900   2.154   1.561
16304TIP3    H148834   8.900   2.081   1.499
16304TIP3    H248835   8.877   2.230   1.508
16305TIP3   OH248836   8.890   1.960   1.355
16305TIP3    H148837   8.916   1.998   1.271
16305TIP3    H248838   8.798   1.938   1.343
16306TIP3   OH248839   0.021   2.475   1.212
16306TIP3    H148840   0.109   2.510   1.193
16306TIP3    H248841  -0.038   2.536   1.167
16307TIP3   OH248842   0.584   2.461   1.603
16307TIP3    H148843   0.617   2.394   1.663
16307TIP3    H248844   0.656   2.523   1.595
16308TIP3   OH248845   0.611   2.702   1.349
16308TIP3    H148846   0.559   2.766   1.299
16308TIP3    H248847   0.699   2.710   1.313
16309TIP3   OH248848   8.644   2.248   1.665
16309TIP3    H148849   8.644   2.236   1.760
16309TIP3    H248850   8.734   2.228   1.638
16310TIP3   OH248851   0.106   1.735   1.465
16310TIP3    H148852   0.063   1.814   1.432
16310TIP3    H248853   0.042   1.665   1.452
16311TIP3   OH248854   0.245   2.221   1.670
16311TIP3    H148855   0.223   2.291   1.731
16311TIP3    H248856   0.161   2.186   1.642
16312TIP3   OH248857   0.479   2.145   1.538
16312TIP3    H148858   0.400   2.157   1.592
16312TIP3    H248859   0.546   2.116   1.599
16313TIP3   OH248860   0.723   2.056   1.701
16313TIP3    H148861   0.664   2.008   1.758
16313TIP3    H248862   0.720   2.146   1.733
16314TIP3   OH248863   0.265   1.703   1.684
16314TIP3    H148864   0.292   1.612   1.669
16314TIP3    H248865   0.199   1.719   1.617
16315TIP3   OH248866   0.319   1.925   1.836
16315TIP3    H148867   0.315   1.848   1.779
16315TIP3    H248868   0.228   1.939   1.863
16316TIP3   OH248869   7.923   2.513   0.113
16316TIP3    H148870   8.016   2.525   0.129
16316TIP3    H248871   7.915   2.425   0.076
16317TIP3   OH248872   7.780   3.102   0.634
16317TIP3    H148873   7.715   3.051   0.586
16317TIP3    H248874   7.809   3.043   0.704
16318TIP3   OH248875   8.041   3.100   0.787
16318TIP3    H148876   8.132   3.074   0.803
16318TIP3    H248877   8.037   3.191   0.819
16319TIP3   OH248878   0.776   3.382   0.585
16319TIP3    H148879   0.790   3.380   0.680
16319TIP3    H248880   0.778   3.475   0.563
16320TIP3   OH248881   0.811   3.364   0.853
16320TIP3    H148882   0.751   3.290   0.856
16320TIP3    H248883   0.862   3.358   0.934
16321TIP3   OH248884   0.752   3.078   1.440
16321TIP3    H148885   0.670   3.101   1.396
16321TIP3    H248886   0.809   3.154   1.428
16322TIP3   OH248887   0.657   2.618   0.055
16322TIP3    H148888   0.717   2.684   0.021
16322TIP3    H248889   0.704   2.579   0.129
16323TIP3   OH248890   0.792   2.477   0.253
16323TIP3    H148891   0.724   2.435   0.307
16323TIP3    H248892   0.856   2.509   0.316
16324TIP3   OH248893   0.839   2.885   0.680
16324TIP3    H148894   0.892   2.816   0.641
16324TIP3    H248895   0.833   2.953   0.612
16325TIP3   OH248896   0.640   3.153   0.871
16325TIP3    H148897   0.575   3.202   0.922
16325TIP3    H248898   0.590   3.113   0.800
16326TIP3   OH248899   3.675   6.591   7.165
16326TIP3    H148900   3.606   6.588   7.098
16326TIP3    H248901   3.652   6.667   7.219
16327TIP3   OH248902   3.526   6.245   7.105
16327TIP3    H148903   3.484   6.279   7.026
16327TIP3    H248904   3.514   6.150   7.098
16328TIP3   OH248905   0.595   2.334   0.389
16328TIP3    H148906   0.599   2.240   0.374
16328TIP3    H248907   0.576   2.343   0.483
16329TIP3   OH248908   8.167   2.490   1.138
16329TIP3    H148909   8.165   2.448   1.052
16329TIP3    H248910   8.249   2.459   1.177
16330TIP3   OH248911   0.854   2.741   1.226
16330TIP3    H148912   0.924   2.677   1.216
16330TIP3    H248913   0.859   2.796   1.148
16331TIP3   OH248914   1.045   2.549   1.227
16331TIP3    H148915   0.978   2.503   1.278
16331TIP3    H248916   1.126   2.501   1.245
16332TIP3   OH248917   3.484   5.976   7.087
16332TIP3    H148918   3.552   5.943   7.147
16332TIP3    H248919   3.404   5.931   7.115
16333TIP3   OH248920   0.591   2.062   0.277
16333TIP3    H148921   0.637   1.979   0.290
16333TIP3    H248922   0.632   2.099   0.199
16334TIP3   OH248923   0.742   2.225   0.802
16334TIP3    H148924   0.823   2.243   0.754
16334TIP3    H248925   0.754   2.267   0.887
16335TIP3   OH248926   0.814   2.376   1.028
16335TIP3    H148927   0.742   2.404   1.084
16335TIP3    H248928   0.843   2.456   0.985
16336TIP3   OH248929   1.285   1.983   1.556
16336TIP3    H148930   1.350   1.918   1.530
16336TIP3    H248931   1.261   2.028   1.474
16337TIP3   OH248932   0.707   1.812   0.332
16337TIP3    H148933   0.749   1.796   0.416
16337TIP3    H248934   0.644   1.741   0.322
16338TIP3   OH248935   8.308   1.781   1.092
16338TIP3    H148936   8.363   1.705   1.113
16338TIP3    H248937   8.367   1.856   1.098
16339TIP3   OH248938   8.159   2.042   1.246
16339TIP3    H148939   8.199   2.046   1.159
16339TIP3    H248940   8.119   2.128   1.257
16340TIP3   OH248941   1.128   2.106   1.367
16340TIP3    H148942   1.058   2.140   1.423
16340TIP3    H248943   1.085   2.045   1.308
16341TIP3   OH248944   3.718   5.919   7.234
16341TIP3    H148945   3.764   5.860   7.174
16341TIP3    H248946   3.773   5.997   7.237
16342TIP3   OH248947   8.101   1.563   0.719
16342TIP3    H148948   8.017   1.527   0.746
16342TIP3    H248949   8.082   1.615   0.641
16343TIP3   OH248950   0.362   3.252   0.239
16343TIP3    H148951   0.450   3.214   0.242
16343TIP3    H248952   0.370   3.334   0.287
16344TIP3   OH248953   8.331   1.679   1.546
16344TIP3    H148954   8.304   1.587   1.539
16344TIP3    H248955   8.269   1.727   1.491
16345TIP3   OH248956   1.025   1.867   1.253
16345TIP3    H148957   0.945   1.879   1.201
16345TIP3    H248958   1.039   1.772   1.254
16346TIP3   OH248959   8.853   3.401   0.870
16346TIP3    H148960   8.783   3.380   0.808
16346TIP3    H248961   8.844   3.495   0.885
16347TIP3   OH248962   0.208   3.302   0.885
16347TIP3    H148963   0.118   3.335   0.880
16347TIP3    H248964   0.261   3.370   0.844
16348TIP3   OH248965   0.409   3.474   0.793
16348TIP3    H148966   0.408   3.561   0.752
16348TIP3    H248967   0.440   3.415   0.725
16349TIP3   OH248968   8.305   3.018   0.799
16349TIP3    H148969   8.318   2.934   0.844
16349TIP3    H248970   8.388   3.063   0.808
16350TIP3   OH248971   8.574   3.102   0.830
16350TIP3    H148972   8.595   3.010   0.815
16350TIP3    H248973   8.634   3.129   0.900
16351TIP3   OH248974   0.251   1.767   0.901
16351TIP3    H148975   0.205   1.696   0.947
16351TIP3    H248976   0.318   1.722   0.849
16352TIP3   OH248977   0.747   1.692   0.803
16352TIP3    H148978   0.781   1.737   0.725
16352TIP3    H248979   0.652   1.702   0.796
16353TIP3   OH248980   0.860   1.754   0.558
16353TIP3    H148981   0.929   1.695   0.528
16353TIP3    H248982   0.896   1.841   0.545
16354TIP3   OH248983   8.403   1.465   0.883
16354TIP3    H148984   8.312   1.434   0.887
16354TIP3    H248985   8.455   1.385   0.879
16355TIP3   OH248986   8.219   1.369   0.545
16355TIP3    H148987   8.242   1.417   0.465
16355TIP3    H248988   8.188   1.436   0.606
16356TIP3   OH248989   8.864   1.510   0.790
16356TIP3    H148990   8.912   1.555   0.721
16356TIP3    H248991   8.905   1.541   0.871
16357TIP3   OH248992   0.465   1.645   0.772
16357TIP3    H148993   0.475   1.610   0.683
16357TIP3    H248994   0.471   1.568   0.829
16358TIP3   OH248995   0.521   1.602   0.337
16358TIP3    H148996   0.441   1.649   0.362
16358TIP3    H248997   0.510   1.515   0.374
16359TIP3   OH248998   8.022   2.952   0.247
16359TIP3    H148999   7.945   2.925   0.298
16359TIP3    H249000   8.008   3.045   0.230
16360TIP3   OH249001   8.317   1.503   0.311
16360TIP3    H149002   8.364   1.443   0.252
16360TIP3    H249003   8.385   1.560   0.347
16361TIP3   OH249004   8.798   1.702   0.410
16361TIP3    H149005   8.856   1.647   0.463
16361TIP3    H249006   8.815   1.791   0.439
16362TIP3   OH249007   2.076   7.121   7.226
16362TIP3    H149008   2.074   7.114   7.322
16362TIP3    H249009   2.156   7.077   7.200
16363TIP3   OH249010   0.834   1.736   1.659
16363TIP3    H149011   0.799   1.782   1.735
16363TIP3    H249012   0.894   1.799   1.619
16364TIP3   OH249013   0.707   3.402   1.149
16364TIP3    H149014   0.623   3.375   1.113
16364TIP3    H249015   0.688   3.481   1.200
16365TIP3   OH249016   4.939   6.973   7.213
16365TIP3    H149017   4.892   7.053   7.192
16365TIP3    H249018   4.882   6.903   7.182
16366TIP3   OH249019   1.932   2.710   0.318
16366TIP3    H149020   1.970   2.708   0.406
16366TIP3    H249021   1.898   2.621   0.305
16367TIP3   OH249022   1.269   2.600   0.680
16367TIP3    H149023   1.301   2.544   0.751
16367TIP3    H249024   1.347   2.635   0.638
16368TIP3   OH249025   2.213   2.976  -0.020
16368TIP3    H149026   2.182   2.905   0.035
16368TIP3    H249027   2.170   3.054   0.014
16369TIP3   OH249028   1.305   3.057   0.433
16369TIP3    H149029   1.278   2.965   0.425
16369TIP3    H249030   1.386   3.062   0.383
16370TIP3   OH249031   0.948   2.253   0.174
16370TIP3    H149032   0.907   2.336   0.197
16370TIP3    H249033   0.879   2.202   0.132
16371TIP3   OH249034   1.018   2.550   0.399
16371TIP3    H149035   1.066   2.473   0.429
16371TIP3    H249036   1.084   2.604   0.356
16372TIP3   OH249037   4.798   7.687   7.265
16372TIP3    H149038   4.783   7.610   7.210
16372TIP3    H249039   4.888   7.678   7.295
16373TIP3   OH249040   1.742   2.930   0.326
16373TIP3    H149041   1.767   2.847   0.285
16373TIP3    H249042   1.824   2.968   0.355
16374TIP3   OH249043   2.806   2.247   0.347
16374TIP3    H149044   2.792   2.334   0.386
16374TIP3    H249045   2.837   2.266   0.258
16375TIP3   OH249046   2.171   2.465   0.399
16375TIP3    H149047   2.210   2.383   0.428
16375TIP3    H249048   2.139   2.447   0.310
16376TIP3   OH249049   1.546   2.122   0.351
16376TIP3    H149050   1.523   2.198   0.296
16376TIP3    H249051   1.491   2.051   0.318
16377TIP3   OH249052   5.214   6.417   7.254
16377TIP3    H149053   5.278   6.400   7.324
16377TIP3    H249054   5.266   6.451   7.182
16378TIP3   OH249055   1.161   2.332   0.488
16378TIP3    H149056   1.245   2.316   0.531
16378TIP3    H249057   1.167   2.282   0.406
16379TIP3   OH249058   1.588   2.539   0.301
16379TIP3    H149059   1.680   2.513   0.306
16379TIP3    H249060   1.542   2.461   0.270
16380TIP3   OH249061   2.767   2.462   0.540
16380TIP3    H149062   2.697   2.524   0.522
16380TIP3    H249063   2.841   2.493   0.489
16381TIP3   OH249064   1.517   2.125   0.806
16381TIP3    H149065   1.465   2.160   0.733
16381TIP3    H249066   1.463   2.141   0.884
16382TIP3   OH249067   4.760   7.159   7.110
16382TIP3    H149068   4.706   7.126   7.039
16382TIP3    H249069   4.727   7.247   7.127
16383TIP3   OH249070   1.642   2.902   0.583
16383TIP3    H149071   1.633   2.986   0.628
16383TIP3    H249072   1.670   2.926   0.494
16384TIP3   OH249073   2.411   2.213   0.204
16384TIP3    H149074   2.355   2.198   0.280
16384TIP3    H249075   2.458   2.293   0.224
16385TIP3   OH249076   1.409   2.224   0.572
16385TIP3    H149077   1.461   2.301   0.595
16385TIP3    H249078   1.457   2.183   0.500
16386TIP3   OH249079   1.372   3.203   0.659
16386TIP3    H149080   1.353   3.160   0.576
16386TIP3    H249081   1.345   3.141   0.726
16387TIP3   OH249082   3.794   6.994   7.192
16387TIP3    H149083   3.762   7.010   7.104
16387TIP3    H249084   3.813   7.081   7.227
16388TIP3   OH249085   2.123   3.202   0.094
16388TIP3    H149086   2.088   3.226   0.179
16388TIP3    H249087   2.097   3.275   0.037
16389TIP3   OH249088   2.594   2.156   0.523
16389TIP3    H149089   2.509   2.183   0.489
16389TIP3    H249090   2.656   2.172   0.452
16390TIP3   OH249091   1.861   1.822   0.536
16390TIP3    H149092   1.854   1.730   0.561
16390TIP3    H249093   1.784   1.863   0.576
16391TIP3   OH249094   4.931   7.500   7.088
16391TIP3    H149095   4.980   7.421   7.066
16391TIP3    H249096   4.989   7.573   7.064
16392TIP3   OH249097   5.093   7.296   7.019
16392TIP3    H149098   5.104   7.237   6.944
16392TIP3    H249099   5.135   7.251   7.092
16393TIP3   OH249100   2.493   3.192   0.590
16393TIP3    H149101   2.527   3.115   0.545
16393TIP3    H249102   2.404   3.202   0.557
16394TIP3   OH249103   4.785   6.803   7.049
16394TIP3    H149104   4.700   6.846   7.039
16394TIP3    H249105   4.826   6.812   6.963
16395TIP3   OH249106   2.617   2.765   0.263
16395TIP3    H149107   2.579   2.840   0.309
16395TIP3    H249108   2.661   2.803   0.187
16396TIP3   OH249109   5.120   6.908   7.013
16396TIP3    H149110   5.071   6.938   7.089
16396TIP3    H249111   5.200   6.870   7.048
16397TIP3   OH249112   2.326   2.698   0.646
16397TIP3    H149113   2.308   2.734   0.733
16397TIP3    H249114   2.243   2.707   0.599
16398TIP3   OH249115   1.387   2.673   0.153
16398TIP3    H149116   1.352   2.614   0.087
16398TIP3    H249117   1.461   2.626   0.191
16399TIP3   OH249118   1.523   3.085   0.271
16399TIP3    H149119   1.495   3.073   0.180
16399TIP3    H249120   1.602   3.032   0.279
16400TIP3   OH249121   1.495   2.672   0.527
16400TIP3    H149122   1.534   2.641   0.446
16400TIP3    H249123   1.545   2.750   0.550
16401TIP3   OH249124   2.007   3.308   0.317
16401TIP3    H149125   2.022   3.402   0.325
16401TIP3    H249126   1.912   3.299   0.309
16402TIP3   OH249127   4.942   6.839   6.814
16402TIP3    H149128   5.004   6.865   6.881
16402TIP3    H249129   4.987   6.771   6.764
16403TIP3   OH249130   1.418   2.752   0.908
16403TIP3    H149131   1.426   2.829   0.965
16403TIP3    H249132   1.324   2.731   0.910
16404TIP3   OH249133   4.673   7.428   7.122
16404TIP3    H149134   4.766   7.443   7.106
16404TIP3    H249135   4.628   7.485   7.060
16405TIP3   OH249136   5.470   5.977   6.901
16405TIP3    H149137   5.392   5.998   6.952
16405TIP3    H249138   5.482   6.052   6.843
16406TIP3   OH249139   4.234   6.712   7.214
16406TIP3    H149140   4.156   6.759   7.184
16406TIP3    H249141   4.206   6.621   7.224
16407TIP3   OH249142   5.276   7.357   6.459
16407TIP3    H149143   5.287   7.447   6.429
16407TIP3    H249144   5.357   7.313   6.434
16408TIP3   OH249145   1.040   2.925   0.872
16408TIP3    H149146   0.969   2.908   0.810
16408TIP3    H249147   1.075   2.838   0.893
16409TIP3   OH249148   0.878   3.126   0.518
16409TIP3    H149149   0.969   3.138   0.544
16409TIP3    H249150   0.834   3.207   0.545
16410TIP3   OH249151   1.714   3.348   0.702
16410TIP3    H149152   1.775   3.417   0.678
16410TIP3    H249153   1.752   3.269   0.663
16411TIP3   OH249154   4.599   7.631   6.935
16411TIP3    H149155   4.560   7.611   6.850
16411TIP3    H249156   4.562   7.716   6.958
16412TIP3   OH249157   1.044   3.296   0.069
16412TIP3    H149158   1.115   3.290   0.132
16412TIP3    H249159   0.965   3.279   0.121
16413TIP3   OH249160   4.816   7.551   6.546
16413TIP3    H149161   4.877   7.484   6.517
16413TIP3    H249162   4.843   7.573   6.635
16414TIP3   OH249163   4.850   7.618   6.812
16414TIP3    H149164   4.771   7.610   6.865
16414TIP3    H249165   4.922   7.609   6.874
16415TIP3   OH249166   2.547   2.615   0.872
16415TIP3    H149167   2.604   2.673   0.822
16415TIP3    H249168   2.574   2.527   0.848
16416TIP3   OH249169   1.264   3.081   0.873
16416TIP3    H149170   1.313   3.037   0.942
16416TIP3    H249171   1.182   3.033   0.867
16417TIP3   OH249172   1.626   1.911   0.664
16417TIP3    H149173   1.544   1.877   0.630
16417TIP3    H249174   1.602   1.992   0.710
16418TIP3   OH249175   2.175   2.013   0.865
16418TIP3    H149176   2.239   1.990   0.933
16418TIP3    H249177   2.092   2.018   0.912
16419TIP3   OH249178   2.338   2.439   0.742
16419TIP3    H149179   2.367   2.452   0.832
16419TIP3    H249180   2.344   2.525   0.702
16420TIP3   OH249181   4.929   6.832   6.525
16420TIP3    H149182   4.908   6.771   6.454
16420TIP3    H249183   5.024   6.842   6.522
16421TIP3   OH249184   4.747   6.149   6.901
16421TIP3    H149185   4.710   6.156   6.989
16421TIP3    H249186   4.712   6.067   6.866
16422TIP3   OH249187   1.560   2.435   0.654
16422TIP3    H149188   1.537   2.451   0.745
16422TIP3    H249189   1.540   2.516   0.609
16423TIP3   OH249190   1.444   2.328   0.198
16423TIP3    H149191   1.355   2.300   0.222
16423TIP3    H249192   1.456   2.295   0.109
16424TIP3   OH249193   4.912   6.591   7.169
16424TIP3    H149194   4.862   6.665   7.134
16424TIP3    H249195   4.972   6.567   7.098
16425TIP3   OH249196   2.128   2.633   0.985
16425TIP3    H149197   2.140   2.580   1.063
16425TIP3    H249198   2.209   2.683   0.977
16426TIP3   OH249199   2.098   2.401   0.138
16426TIP3    H149200   2.032   2.423   0.072
16426TIP3    H249201   2.146   2.328   0.101
16427TIP3   OH249202   1.379   2.444   0.882
16427TIP3    H149203   1.396   2.508   0.951
16427TIP3    H249204   1.368   2.361   0.928
16428TIP3   OH249205   4.420   6.136   6.876
16428TIP3    H149206   4.409   6.138   6.971
16428TIP3    H249207   4.341   6.176   6.841
16429TIP3   OH249208   0.989   1.977   0.480
16429TIP3    H149209   1.063   2.013   0.528
16429TIP3    H249210   1.023   1.958   0.392
16430TIP3   OH249211   3.869   6.154   7.247
16430TIP3    H149212   3.917   6.189   7.171
16430TIP3    H249213   3.804   6.221   7.267
16431TIP3   OH249214   2.053   2.645   0.565
16431TIP3    H149215   2.096   2.587   0.503
16431TIP3    H249216   2.040   2.592   0.644
16432TIP3   OH249217   1.813   2.125   0.240
16432TIP3    H149218   1.734   2.120   0.294
16432TIP3    H249219   1.885   2.103   0.300
16433TIP3   OH249220   1.207   2.198   0.254
16433TIP3    H149221   1.120   2.204   0.216
16433TIP3    H249222   1.235   2.108   0.236
16434TIP3   OH249223   4.432   6.402   7.220
16434TIP3    H149224   4.527   6.411   7.206
16434TIP3    H249225   4.393   6.417   7.135
16435TIP3   OH249226   2.250   2.191   0.422
16435TIP3    H149227   2.236   2.199   0.516
16435TIP3    H249228   2.181   2.132   0.392
16436TIP3   OH249229   4.305   6.421   6.978
16436TIP3    H149230   4.240   6.367   6.933
16436TIP3    H249231   4.356   6.462   6.908
16437TIP3   OH249232   1.401   2.969   1.083
16437TIP3    H149233   1.476   2.986   1.140
16437TIP3    H249234   1.328   2.956   1.144
16438TIP3   OH249235   1.848   2.448   0.337
16438TIP3    H149236   1.908   2.388   0.292
16438TIP3    H249237   1.849   2.417   0.428
16439TIP3   OH249238   1.353   1.950   0.236
16439TIP3    H149239   1.324   1.875   0.288
16439TIP3    H249240   1.372   1.913   0.149
16440TIP3   OH249241   1.829   2.381   0.605
16440TIP3    H149242   1.741   2.410   0.629
16440TIP3    H249243   1.886   2.425   0.668
16441TIP3   OH249244   4.548   6.934   6.995
16441TIP3    H149245   4.475   6.879   6.967
16441TIP3    H249246   4.518   6.975   7.076
16442TIP3   OH249247   2.524   2.980   0.391
16442TIP3    H149248   2.486   3.039   0.326
16442TIP3    H249249   2.448   2.946   0.439
16443TIP3   OH249250   4.999   6.252   6.912
16443TIP3    H149251   4.907   6.228   6.902
16443TIP3    H249252   4.999   6.348   6.908
16444TIP3   OH249253   2.081   3.046   0.687
16444TIP3    H149254   2.085   2.965   0.738
16444TIP3    H249255   1.992   3.078   0.701
16445TIP3   OH249256   5.087   6.526   6.948
16445TIP3    H149257   5.175   6.519   6.984
16445TIP3    H249258   5.101   6.545   6.855
16446TIP3   OH249259   1.276   2.785   0.381
16446TIP3    H149260   1.306   2.755   0.296
16446TIP3    H249261   1.332   2.740   0.444
16447TIP3   OH249262   1.150   2.698   0.988
16447TIP3    H149263   1.199   2.675   1.067
16447TIP3    H249264   1.074   2.640   0.990
16448TIP3   OH249265   1.873   2.737   1.000
16448TIP3    H149266   1.854   2.755   0.908
16448TIP3    H249267   1.961   2.699   0.999
16449TIP3   OH249268   2.149   3.424   0.662
16449TIP3    H149269   2.100   3.405   0.741
16449TIP3    H249270   2.238   3.444   0.692
16450TIP3   OH249271   5.469   6.609   6.793
16450TIP3    H149272   5.403   6.569   6.738
16450TIP3    H249273   5.479   6.698   6.758
16451TIP3   OH249274   2.715   3.336   0.660
16451TIP3    H149275   2.638   3.288   0.629
16451TIP3    H249276   2.748   3.381   0.582
16452TIP3   OH249277   5.200   7.406   6.717
16452TIP3    H149278   5.204   7.328   6.772
16452TIP3    H249279   5.231   7.377   6.631
16453TIP3   OH249280   2.170   2.818   0.218
16453TIP3    H149281   2.084   2.775   0.220
16453TIP3    H249282   2.229   2.750   0.186
16454TIP3   OH249283   1.384   3.091   0.032
16454TIP3    H149284   1.389   3.171  -0.022
16454TIP3    H249285   1.290   3.076   0.044
16455TIP3   OH249286   3.919   6.576   7.035
16455TIP3    H149287   3.959   6.661   7.055
16455TIP3    H249288   3.835   6.577   7.083
16456TIP3   OH249289   4.443   7.041   7.218
16456TIP3    H149290   4.425   7.131   7.244
16456TIP3    H249291   4.413   6.989   7.293
16457TIP3   OH249292   1.601   3.449   0.467
16457TIP3    H149293   1.681   3.479   0.425
16457TIP3    H249294   1.631   3.407   0.548
16458TIP3   OH249295   4.236   7.505   7.159
16458TIP3    H149296   4.152   7.515   7.205
16458TIP3    H249297   4.268   7.595   7.151
16459TIP3   OH249298   1.995   2.990   0.408
16459TIP3    H149299   2.057   2.969   0.478
16459TIP3    H249300   2.033   2.949   0.330
16460TIP3   OH249301   4.931   7.116   6.677
16460TIP3    H149302   5.016   7.118   6.720
16460TIP3    H249303   4.916   7.207   6.651
16461TIP3   OH249304   2.273   3.620   0.464
16461TIP3    H149305   2.187   3.580   0.456
16461TIP3    H249306   2.267   3.701   0.414
16462TIP3   OH249307   5.294   7.629   6.408
16462TIP3    H149308   5.307   7.685   6.331
16462TIP3    H249309   5.223   7.672   6.456
16463TIP3   OH249310   1.346   2.199   1.014
16463TIP3    H149311   1.251   2.210   1.019
16463TIP3    H249312   1.371   2.170   1.102
16464TIP3   OH249313   5.159   7.111   6.827
16464TIP3    H149314   5.146   7.039   6.890
16464TIP3    H249315   5.250   7.102   6.800
16465TIP3   OH249316   1.117   3.331   0.729
16465TIP3    H149317   1.056   3.285   0.788
16465TIP3    H249318   1.076   3.416   0.713
16466TIP3   OH249319   4.399   7.099   6.635
16466TIP3    H149320   4.373   7.012   6.603
16466TIP3    H249321   4.353   7.109   6.718
16467TIP3   OH249322   4.275   7.135   6.884
16467TIP3    H149323   4.348   7.106   6.939
16467TIP3    H249324   4.277   7.231   6.891
16468TIP3   OH249325   4.007   6.833   7.107
16468TIP3    H149326   3.937   6.875   7.156
16468TIP3    H249327   4.024   6.891   7.033
16469TIP3   OH249328   2.191   2.219   0.679
16469TIP3    H149329   2.239   2.296   0.712
16469TIP3    H249330   2.176   2.166   0.757
16470TIP3   OH249331   5.061   6.201   7.175
16470TIP3    H149332   5.038   6.219   7.084
16470TIP3    H249333   5.106   6.280   7.204
16471TIP3   OH249334   4.552   7.303   6.839
16471TIP3    H149335   4.470   7.335   6.875
16471TIP3    H249336   4.584   7.374   6.784
16472TIP3   OH249337   1.749   2.214  -0.016
16472TIP3    H149338   1.815   2.277  -0.045
16472TIP3    H249339   1.771   2.196   0.076
16473TIP3   OH249340   2.015   2.484   0.784
16473TIP3    H149341   2.046   2.544   0.852
16473TIP3    H249342   2.054   2.399   0.807
16474TIP3   OH249343   1.905   1.905   0.082
16474TIP3    H149344   1.883   1.984   0.131
16474TIP3    H249345   1.976   1.932   0.024
16475TIP3   OH249346   4.302   7.406   6.911
16475TIP3    H149347   4.287   7.478   6.849
16475TIP3    H249348   4.280   7.442   6.996
16476TIP3   OH249349   4.386   6.127   7.156
16476TIP3    H149350   4.374   6.217   7.186
16476TIP3    H249351   4.481   6.112   7.162
16477TIP3   OH249352   2.632   2.376   0.770
16477TIP3    H149353   2.561   2.312   0.765
16477TIP3    H249354   2.667   2.380   0.681
16478TIP3   OH249355   2.312   2.585   0.142
16478TIP3    H149356   2.238   2.525   0.147
16478TIP3    H249357   2.379   2.545   0.198
16479TIP3   OH249358   4.023   7.011   6.887
16479TIP3    H149359   4.097   7.072   6.894
16479TIP3    H249360   4.053   6.944   6.826
16480TIP3   OH249361   3.947   6.299   7.029
16480TIP3    H149362   3.953   6.395   7.035
16480TIP3    H249363   3.894   6.284   6.950
16481TIP3   OH249364   2.336   3.679   0.090
16481TIP3    H149365   2.289   3.681   0.007
16481TIP3    H249366   2.372   3.591   0.095
16482TIP3   OH249367   1.367   1.823   0.623
16482TIP3    H149368   1.338   1.794   0.536
16482TIP3    H249369   1.355   1.746   0.679
16483TIP3   OH249370   0.881   3.056   0.015
16483TIP3    H149371   0.857   3.084   0.103
16483TIP3    H249372   0.949   3.118  -0.012
16484TIP3   OH249373   1.040   3.621   1.093
16484TIP3    H149374   1.131   3.627   1.120
16484TIP3    H249375   1.023   3.527   1.087
16485TIP3   OH249376   1.562   3.535   1.142
16485TIP3    H149377   1.638   3.476   1.143
16485TIP3    H249378   1.600   3.622   1.129
16486TIP3   OH249379   4.519   7.311   6.510
16486TIP3    H149380   4.479   7.239   6.559
16486TIP3    H249381   4.598   7.272   6.471
16487TIP3   OH249382   2.292   3.482   0.937
16487TIP3    H149383   2.355   3.416   0.907
16487TIP3    H249384   2.346   3.552   0.973
16488TIP3   OH249385   4.982   7.347   6.440
16488TIP3    H149386   5.071   7.333   6.470
16488TIP3    H249387   4.990   7.362   6.346
16489TIP3   OH249388   1.194   2.944   1.259
16489TIP3    H149389   1.188   2.866   1.314
16489TIP3    H249390   1.106   2.954   1.222
16490TIP3   OH249391   4.156   6.820   6.743
16490TIP3    H149392   4.209   6.796   6.819
16490TIP3    H249393   4.220   6.832   6.672
16491TIP3   OH249394   1.829   3.000   1.146
16491TIP3    H149395   1.793   2.987   1.058
16491TIP3    H249396   1.924   3.003   1.132
16492TIP3   OH249397   4.662   6.964   6.645
16492TIP3    H149398   4.609   7.032   6.686
16492TIP3    H249399   4.601   6.916   6.590
16493TIP3   OH249400   2.325   3.105   0.804
16493TIP3    H149401   2.373   3.181   0.772
16493TIP3    H249402   2.237   3.116   0.768
16494TIP3   OH249403   1.344   2.653   1.185
16494TIP3    H149404   1.430   2.691   1.168
16494TIP3    H249405   1.326   2.673   1.277
16495TIP3   OH249406   4.336   6.757   6.947
16495TIP3    H149407   4.314   6.729   7.035
16495TIP3    H249408   4.379   6.681   6.908
16496TIP3   OH249409   1.639   2.595   0.875
16496TIP3    H149410   1.564   2.654   0.883
16496TIP3    H249411   1.701   2.642   0.821
16497TIP3   OH249412   4.454   6.555   6.790
16497TIP3    H149413   4.417   6.571   6.703
16497TIP3    H249414   4.544   6.526   6.773
16498TIP3   OH249415   2.074   3.011   1.016
16498TIP3    H149416   2.141   3.079   1.025
16498TIP3    H249417   2.111   2.936   1.064
16499TIP3   OH249418   1.746   2.390   1.018
16499TIP3    H149419   1.765   2.318   0.958
16499TIP3    H249420   1.712   2.460   0.962
16500TIP3   OH249421   1.780   2.200   0.819
16500TIP3    H149422   1.807   2.237   0.735
16500TIP3    H249423   1.688   2.178   0.808
16501TIP3   OH249424   1.818   2.735   0.721
16501TIP3    H149425   1.890   2.722   0.660
16501TIP3    H249426   1.766   2.805   0.682
16502TIP3   OH249427   2.416   2.709   1.094
16502TIP3    H149428   2.470   2.668   1.026
16502TIP3    H249429   2.454   2.796   1.105
16503TIP3   OH249430   2.294   2.844   0.876
16503TIP3    H149431   2.299   2.939   0.861
16503TIP3    H249432   2.347   2.830   0.954
16504TIP3   OH249433   1.628   2.467   1.249
16504TIP3    H149434   1.557   2.410   1.277
16504TIP3    H249435   1.659   2.429   1.167
16505TIP3   OH249436   1.900   1.980   0.932
16505TIP3    H149437   1.864   2.060   0.893
16505TIP3    H249438   1.833   1.914   0.918
16506TIP3   OH249439   1.988   2.435   1.146
16506TIP3    H149440   1.963   2.409   1.234
16506TIP3    H249441   1.907   2.430   1.095
16507TIP3   OH249442   2.141   2.306   0.960
16507TIP3    H149443   2.091   2.342   1.033
16507TIP3    H249444   2.231   2.337   0.975
16508TIP3   OH249445   2.598   2.353   1.210
16508TIP3    H149446   2.584   2.260   1.192
16508TIP3    H249447   2.609   2.357   1.305
16509TIP3   OH249448   1.477   2.254   1.337
16509TIP3    H149449   1.484   2.163   1.309
16509TIP3    H249450   1.507   2.255   1.427
16510TIP3   OH249451   1.953   1.929   1.193
16510TIP3    H149452   2.022   1.864   1.177
16510TIP3    H249453   1.924   1.955   1.105
16511TIP3   OH249454   2.026   2.149   1.339
16511TIP3    H149455   2.014   2.077   1.278
16511TIP3    H249456   1.951   2.206   1.324
16512TIP3   OH249457   4.297   7.605   6.721
16512TIP3    H149458   4.388   7.590   6.695
16512TIP3    H249459   4.259   7.657   6.650
16513TIP3   OH249460   3.746   7.027   6.915
16513TIP3    H149461   3.841   7.031   6.907
16513TIP3    H249462   3.722   6.943   6.875
16514TIP3   OH249463   0.700   3.391   0.080
16514TIP3    H149464   0.643   3.340   0.023
16514TIP3    H249465   0.734   3.327   0.143
16515TIP3   OH249466   0.846   3.233   0.258
16515TIP3    H149467   0.835   3.166   0.326
16515TIP3    H249468   0.885   3.307   0.305
16516TIP3   OH249469   2.634   3.609   0.053
16516TIP3    H149470   2.644   3.617   0.148
16516TIP3    H249471   2.679   3.686   0.018
16517TIP3   OH249472   2.660   3.605   0.325
16517TIP3    H149473   2.598   3.535   0.346
16517TIP3    H249474   2.650   3.668   0.397
16518TIP3   OH249475   5.428   7.090   6.801
16518TIP3    H149476   5.494   7.153   6.771
16518TIP3    H249477   5.470   7.043   6.873
16519TIP3   OH249478   5.532   6.922   6.989
16519TIP3    H149479   5.468   6.886   7.051
16519TIP3    H249480   5.596   6.966   7.044
16520TIP3   OH249481   2.580   3.100   0.058
16520TIP3    H149482   2.636   3.024   0.072
16520TIP3    H249483   2.627   3.152  -0.008
16521TIP3   OH249484   2.448   3.432   0.380
16521TIP3    H149485   2.387   3.499   0.409
16521TIP3    H249486   2.418   3.409   0.292
16522TIP3   OH249487   5.490   6.853   6.667
16522TIP3    H149488   5.415   6.839   6.610
16522TIP3    H249489   5.469   6.933   6.716
16523TIP3   OH249490   5.284   6.510   6.626
16523TIP3    H149491   5.261   6.575   6.560
16523TIP3    H249492   5.277   6.426   6.581
16524TIP3   OH249493   5.341   6.785   7.139
16524TIP3    H149494   5.351   6.691   7.120
16524TIP3    H249495   5.324   6.789   7.233
16525TIP3   OH249496   1.007   2.664   0.648
16525TIP3    H149497   0.992   2.627   0.561
16525TIP3    H249498   1.100   2.654   0.663
16526TIP3   OH249499   2.761   3.100   0.798
16526TIP3    H149500   2.749   3.059   0.712
16526TIP3    H249501   2.761   3.194   0.780
16527TIP3   OH249502   2.940   2.764   0.904
16527TIP3    H149503   2.942   2.669   0.896
16527TIP3    H249504   2.880   2.792   0.835
16528TIP3   OH249505   5.282   6.235   6.566
16528TIP3    H149506   5.348   6.210   6.630
16528TIP3    H249507   5.202   6.193   6.596
16529TIP3   OH249508   5.361   6.511   7.034
16529TIP3    H149509   5.408   6.428   7.045
16529TIP3    H249510   5.400   6.550   6.956
16530TIP3   OH249511   2.515   2.450   0.290
16530TIP3    H149512   2.601   2.466   0.251
16530TIP3    H249513   2.518   2.495   0.374
16531TIP3   OH249514   2.559   2.629   0.502
16531TIP3    H149515   2.480   2.655   0.549
16531TIP3    H249516   2.563   2.689   0.427
16532TIP3   OH249517   1.222   2.343   1.275
16532TIP3    H149518   1.315   2.344   1.298
16532TIP3    H249519   1.187   2.265   1.317
16533TIP3   OH249520   3.145   2.252   1.058
16533TIP3    H149521   3.228   2.204   1.049
16533TIP3    H249522   3.119   2.273   0.969
16534TIP3   OH249523   5.473   6.258   7.082
16534TIP3    H149524   5.515   6.241   7.166
16534TIP3    H249525   5.408   6.189   7.072
16535TIP3   OH249526   1.203   2.046   0.647
16535TIP3    H149527   1.257   1.967   0.648
16535TIP3    H249528   1.263   2.116   0.623
16536TIP3   OH249529   0.987   2.312   0.709
16536TIP3    H149530   1.036   2.303   0.627
16536TIP3    H249531   1.019   2.394   0.747
16537TIP3   OH249532   3.055   2.298   0.809
16537TIP3    H149533   3.003   2.379   0.807
16537TIP3    H249534   3.026   2.250   0.731
16538TIP3   OH249535   5.516   6.179   6.720
16538TIP3    H149536   5.562   6.118   6.662
16538TIP3    H249537   5.566   6.260   6.715
16539TIP3   OH249538   0.976   1.838   0.214
16539TIP3    H149539   0.890   1.820   0.251
16539TIP3    H249540   0.958   1.887   0.133
16540TIP3   OH249541   5.074   7.697   6.967
16540TIP3    H149542   5.137   7.688   6.895
16540TIP3    H249543   5.114   7.760   7.026
16541TIP3   OH249544   1.189   1.860   1.026
16541TIP3    H149545   1.147   1.874   1.110
16541TIP3    H249546   1.144   1.919   0.966
16542TIP3   OH249547   1.174   3.380   1.163
16542TIP3    H149548   1.097   3.330   1.137
16542TIP3    H249549   1.248   3.322   1.143
16543TIP3   OH249550   1.825   3.655   0.767
16543TIP3    H149551   1.917   3.659   0.792
16543TIP3    H249552   1.825   3.679   0.674
16544TIP3   OH249553   2.119   3.726   0.680
16544TIP3    H149554   2.190   3.668   0.651
16544TIP3    H249555   2.114   3.713   0.774
16545TIP3   OH249556   2.787   2.097   0.716
16545TIP3    H149557   2.713   2.112   0.658
16545TIP3    H249558   2.814   2.007   0.698
16546TIP3   OH249559   1.043   3.589   0.657
16546TIP3    H149560   0.955   3.617   0.633
16546TIP3    H249561   1.069   3.652   0.725
16547TIP3   OH249562   1.283   3.528   0.539
16547TIP3    H149563   1.200   3.563   0.572
16547TIP3    H249564   1.294   3.569   0.453
16548TIP3   OH249565   1.767   3.562   0.261
16548TIP3    H149566   1.763   3.537   0.168
16548TIP3    H249567   1.716   3.643   0.266
16549TIP3   OH249568   2.029   3.590   0.332
16549TIP3    H149569   1.938   3.587   0.302
16549TIP3    H249570   2.069   3.662   0.283
16550TIP3   OH249571   2.206   3.824   0.298
16550TIP3    H149572   2.237   3.914   0.295
16550TIP3    H249573   2.244   3.783   0.220
16551TIP3   OH249574   1.011   3.419   0.387
16551TIP3    H149575   1.026   3.444   0.478
16551TIP3    H249576   1.090   3.372   0.361
16552TIP3   OH249577   1.213   3.269   0.282
16552TIP3    H149578   1.232   3.193   0.337
16552TIP3    H249579   1.297   3.311   0.267
16553TIP3   OH249580   1.469   3.354   0.253
16553TIP3    H149581   1.501   3.264   0.251
16553TIP3    H249582   1.506   3.392   0.333
16554TIP3   OH249583   2.028   2.013   0.372
16554TIP3    H149584   1.993   1.946   0.432
16554TIP3    H249585   2.098   1.968   0.325
16555TIP3   OH249586   2.536   1.941   0.273
16555TIP3    H149587   2.579   1.988   0.202
16555TIP3    H249588   2.445   1.970   0.270
16556TIP3   OH249589   2.663   2.009   0.039
16556TIP3    H149590   2.735   1.954   0.008
16556TIP3    H249591   2.692   2.098   0.022
16557TIP3   OH249592   1.280   1.724   0.381
16557TIP3    H149593   1.190   1.691   0.390
16557TIP3    H249594   1.334   1.646   0.370
16558TIP3   OH249595   1.117   1.644   0.051
16558TIP3    H149596   1.135   1.689  -0.031
16558TIP3    H249597   1.075   1.711   0.106
16559TIP3   OH249598   1.761   1.762   0.277
16559TIP3    H149599   1.809   1.808   0.208
16559TIP3    H249600   1.802   1.792   0.359
16560TIP3   OH249601   2.248   1.901   0.250
16560TIP3    H149602   2.269   1.865   0.164
16560TIP3    H249603   2.260   1.827   0.310
16561TIP3   OH249604   5.282   6.054   7.088
16561TIP3    H149605   5.201   6.099   7.112
16561TIP3    H249606   5.272   5.966   7.126
16562TIP3   OH249607   4.177   5.957   7.068
16562TIP3    H149608   4.222   5.894   7.011
16562TIP3    H249609   4.247   6.013   7.101
16563TIP3   OH249610   4.661   6.155   7.164
16563TIP3    H149611   4.719   6.101   7.218
16563TIP3    H249612   4.679   6.245   7.191
16564TIP3   OH249613   4.558   7.536   6.662
16564TIP3    H149614   4.640   7.567   6.624
16564TIP3    H249615   4.532   7.463   6.606
16565TIP3   OH249616   5.239   7.675   6.746
16565TIP3    H149617   5.231   7.580   6.739
16565TIP3    H249618   5.194   7.709   6.668
16566TIP3   OH249619   1.510   1.987   1.266
16566TIP3    H149620   1.480   1.922   1.330
16566TIP3    H249621   1.603   1.999   1.285
16567TIP3   OH249622   1.758   2.001   1.383
16567TIP3    H149623   1.829   1.970   1.326
16567TIP3    H249624   1.758   1.940   1.456
16568TIP3   OH249625   3.832   7.388   6.745
16568TIP3    H149626   3.861   7.439   6.820
16568TIP3    H249627   3.912   7.350   6.708
16569TIP3   OH249628   2.523   2.067   1.215
16569TIP3    H149629   2.499   2.029   1.300
16569TIP3    H249630   2.618   2.060   1.211
16570TIP3   OH249631   6.752   7.247   6.713
16570TIP3    H149632   6.721   7.328   6.672
16570TIP3    H249633   6.689   7.180   6.686
16571TIP3   OH249634   6.606   7.196   7.068
16571TIP3    H149635   6.701   7.192   7.057
16571TIP3    H249636   6.576   7.107   7.047
16572TIP3   OH249637   3.159   3.012   0.216
16572TIP3    H149638   3.146   3.042   0.306
16572TIP3    H249639   3.240   3.055   0.188
16573TIP3   OH249640   6.064   7.476   7.163
16573TIP3    H149641   6.025   7.396   7.128
16573TIP3    H249642   6.152   7.478   7.124
16574TIP3   OH249643   5.696   6.705   6.922
16574TIP3    H149644   5.658   6.790   6.941
16574TIP3    H249645   5.626   6.657   6.877
16575TIP3   OH249646   5.757   7.034   7.091
16575TIP3    H149647   5.817   6.960   7.101
16575TIP3    H249648   5.809   7.102   7.049
16576TIP3   OH249649   6.988   6.991   7.186
16576TIP3    H149650   7.062   6.934   7.206
16576TIP3    H249651   6.917   6.931   7.165
16577TIP3   OH249652   6.265   6.611   7.066
16577TIP3    H149653   6.237   6.683   7.010
16577TIP3    H249654   6.242   6.532   7.017
16578TIP3   OH249655   5.909   6.818   7.149
16578TIP3    H149656   5.949   6.810   7.235
16578TIP3    H249657   5.932   6.737   7.104
16579TIP3   OH249658   6.321   6.980   6.966
16579TIP3    H149659   6.413   6.953   6.968
16579TIP3    H249660   6.275   6.903   6.933
16580TIP3   OH249661   3.302   2.319   0.285
16580TIP3    H149662   3.282   2.354   0.199
16580TIP3    H249663   3.316   2.396   0.341
16581TIP3   OH249664   6.655   7.454   6.556
16581TIP3    H149665   6.612   7.416   6.480
16581TIP3    H249666   6.610   7.538   6.569
16582TIP3   OH249667   7.132   6.662   6.969
16582TIP3    H149668   7.132   6.566   6.977
16582TIP3    H249669   7.058   6.681   6.912
16583TIP3   OH249670   3.212   2.419   0.054
16583TIP3    H149671   3.159   2.498   0.062
16583TIP3    H249672   3.239   2.418  -0.038
16584TIP3   OH249673   5.604   7.266   6.682
16584TIP3    H149674   5.565   7.279   6.596
16584TIP3    H249675   5.627   7.354   6.712
16585TIP3   OH249676   6.539   6.222   7.170
16585TIP3    H149677   6.612   6.161   7.185
16585TIP3    H249678   6.542   6.282   7.244
16586TIP3   OH249679   6.918   7.533   6.580
16586TIP3    H149680   6.951   7.532   6.490
16586TIP3    H249681   6.826   7.506   6.571
16587TIP3   OH249682   6.587   7.093   6.545
16587TIP3    H149683   6.500   7.126   6.525
16587TIP3    H249684   6.627   7.078   6.460
16588TIP3   OH249685   6.555   6.831   6.301
16588TIP3    H149686   6.619   6.900   6.320
16588TIP3    H249687   6.596   6.779   6.232
16589TIP3   OH249688   6.925   7.165   6.508
16589TIP3    H149689   6.874   7.196   6.583
16589TIP3    H249690   7.000   7.120   6.547
16590TIP3   OH249691   6.117   7.132   6.871
16590TIP3    H149692   6.083   7.072   6.804
16590TIP3    H249693   6.192   7.087   6.909
16591TIP3   OH249694   6.313   7.455   7.033
16591TIP3    H149695   6.313   7.422   6.943
16591TIP3    H249696   6.406   7.467   7.054
16592TIP3   OH249697   6.290   7.015   7.236
16592TIP3    H149698   6.308   6.992   7.144
16592TIP3    H249699   6.300   7.110   7.239
16593TIP3   OH249700   6.766   7.012   6.340
16593TIP3    H149701   6.826   7.073   6.383
16593TIP3    H249702   6.791   7.014   6.248
16594TIP3   OH249703   6.525   7.697   6.567
16594TIP3    H149704   6.492   7.758   6.632
16594TIP3    H249705   6.454   7.689   6.503
16595TIP3   OH249706   7.266   6.229   6.383
16595TIP3    H149707   7.194   6.252   6.442
16595TIP3    H249708   7.276   6.306   6.327
16596TIP3   OH249709   6.017   6.963   6.672
16596TIP3    H149710   5.940   7.013   6.644
16596TIP3    H249711   5.985   6.874   6.684
16597TIP3   OH249712   7.110   7.607   5.953
16597TIP3    H149713   7.096   7.698   5.927
16597TIP3    H249714   7.196   7.584   5.917
16598TIP3   OH249715   2.938   3.281   0.346
16598TIP3    H149716   2.845   3.280   0.370
16598TIP3    H249717   2.976   3.212   0.401
16599TIP3   OH249718   5.533   7.587   7.178
16599TIP3    H149719   5.611   7.533   7.167
16599TIP3    H249720   5.564   7.667   7.221
16600TIP3   OH249721   6.365   7.912   6.397
16600TIP3    H149722   6.345   7.879   6.309
16600TIP3    H249723   6.282   7.949   6.428
16601TIP3   OH249724   5.828   7.759   6.732
16601TIP3    H149725   5.875   7.739   6.813
16601TIP3    H249726   5.777   7.680   6.713
16602TIP3   OH249727   6.593   7.824   6.045
16602TIP3    H149728   6.644   7.753   6.006
16602TIP3    H249729   6.631   7.838   6.131
16603TIP3   OH249730   6.630   7.867   6.325
16603TIP3    H149731   6.545   7.882   6.366
16603TIP3    H249732   6.674   7.804   6.382
16604TIP3   OH249733   6.288   6.348   7.219
16604TIP3    H149734   6.208   6.319   7.264
16604TIP3    H249735   6.336   6.397   7.286
16605TIP3   OH249736   3.972   2.243   0.367
16605TIP3    H149737   4.016   2.263   0.450
16605TIP3    H249738   3.879   2.257   0.385
16606TIP3   OH249739   6.847   6.988   6.081
16606TIP3    H149740   6.793   6.983   6.002
16606TIP3    H249741   6.926   7.034   6.053
16607TIP3   OH249742   6.546   6.402   6.394
16607TIP3    H149743   6.510   6.408   6.483
16607TIP3    H249744   6.507   6.323   6.357
16608TIP3   OH249745   3.405   2.821   0.231
16608TIP3    H149746   3.318   2.839   0.268
16608TIP3    H249747   3.391   2.816   0.137
16609TIP3   OH249748   6.148   6.780   6.894
16609TIP3    H149749   6.064   6.739   6.916
16609TIP3    H249750   6.174   6.739   6.812
16610TIP3   OH249751   6.664   6.845   6.642
16610TIP3    H149752   6.636   6.932   6.613
16610TIP3    H249753   6.732   6.820   6.580
16611TIP3   OH249754   3.171   2.737   0.363
16611TIP3    H149755   3.200   2.801   0.427
16611TIP3    H249756   3.238   2.669   0.364
16612TIP3   OH249757   6.213   6.387   6.366
16612TIP3    H149758   6.202   6.398   6.461
16612TIP3    H249759   6.135   6.428   6.328
16613TIP3   OH249760   5.720   6.444   7.217
16613TIP3    H149761   5.801   6.470   7.262
16613TIP3    H249762   5.748   6.424   7.128
16614TIP3   OH249763   5.660   6.418   6.724
16614TIP3    H149764   5.701   6.453   6.644
16614TIP3    H249765   5.593   6.482   6.745
16615TIP3   OH249766   6.511   6.477   7.027
16615TIP3    H149767   6.469   6.562   7.045
16615TIP3    H249768   6.602   6.498   7.011
16616TIP3   OH249769   5.942   6.605   6.969
16616TIP3    H149770   5.856   6.643   6.950
16616TIP3    H249771   5.937   6.516   6.935
16617TIP3   OH249772   6.238   6.638   6.684
16617TIP3    H149773   6.332   6.654   6.679
16617TIP3    H249774   6.205   6.661   6.597
16618TIP3   OH249775   6.973   6.543   7.215
16618TIP3    H149776   6.902   6.491   7.253
16618TIP3    H249777   6.944   6.561   7.125
16619TIP3   OH249778   6.117   6.679   6.444
16619TIP3    H149779   6.053   6.630   6.391
16619TIP3    H249780   6.171   6.724   6.379
16620TIP3   OH249781   6.577   6.920   7.038
16620TIP3    H149782   6.657   6.874   7.012
16620TIP3    H249783   6.584   6.929   7.133
16621TIP3   OH249784   6.255   6.295   6.938
16621TIP3    H149785   6.181   6.246   6.973
16621TIP3    H249786   6.234   6.308   6.846
16622TIP3   OH249787   3.737   2.495   0.073
16622TIP3    H149788   3.690   2.578   0.061
16622TIP3    H249789   3.798   2.512   0.144
16623TIP3   OH249790   6.334   7.204   6.490
16623TIP3    H149791   6.264   7.144   6.467
16623TIP3    H249792   6.310   7.238   6.576
16624TIP3   OH249793   6.788   6.524   6.361
16624TIP3    H149794   6.696   6.499   6.370
16624TIP3    H249795   6.789   6.618   6.380
16625TIP3   OH249796   6.861   6.775   6.458
16625TIP3    H149797   6.956   6.773   6.468
16625TIP3    H249798   6.844   6.853   6.405
16626TIP3   OH249799   5.950   7.245   7.056
16626TIP3    H149800   6.005   7.215   6.983
16626TIP3    H249801   5.975   7.190   7.130
16627TIP3   OH249802   6.495   7.365   6.341
16627TIP3    H149803   6.448   7.448   6.339
16627TIP3    H249804   6.437   7.306   6.389
16628TIP3   OH249805   3.048   3.067   0.467
16628TIP3    H149806   3.091   3.049   0.551
16628TIP3    H249807   2.962   3.026   0.475
16629TIP3   OH249808   7.278   6.856   6.263
16629TIP3    H149809   7.221   6.811   6.201
16629TIP3    H249810   7.281   6.947   6.232
16630TIP3   OH249811   7.004   7.625   6.217
16630TIP3    H149812   6.968   7.538   6.232
16630TIP3    H249813   7.039   7.622   6.128
16631TIP3   OH249814   6.123   7.555   6.755
16631TIP3    H149815   6.125   7.632   6.698
16631TIP3    H249816   6.060   7.578   6.823
16632TIP3   OH249817   5.716   6.842   6.512
16632TIP3    H149818   5.751   6.930   6.528
16632TIP3    H249819   5.635   6.838   6.564
16633TIP3   OH249820   6.256   7.320   6.725
16633TIP3    H149821   6.210   7.404   6.731
16633TIP3    H249822   6.204   7.260   6.779
16634TIP3   OH249823   6.075   7.797   6.617
16634TIP3    H149824   5.984   7.795   6.647
16634TIP3    H249825   6.101   7.889   6.626
16635TIP3   OH249826   6.778   7.414   6.097
16635TIP3    H149827   6.819   7.391   6.180
16635TIP3    H249828   6.697   7.363   6.096
16636TIP3   OH249829   7.053   7.867   5.883
16636TIP3    H149830   7.060   7.924   5.807
16636TIP3    H249831   6.988   7.910   5.940
16637TIP3   OH249832   3.189   2.410   0.569
16637TIP3    H149833   3.188   2.474   0.640
16637TIP3    H249834   3.136   2.337   0.602
16638TIP3   OH249835   6.944   7.362   6.314
16638TIP3    H149836   6.922   7.301   6.384
16638TIP3    H249837   7.038   7.351   6.300
16639TIP3   OH249838   6.126   7.367   6.109
16639TIP3    H149839   6.134   7.277   6.077
16639TIP3    H249840   6.105   7.357   6.203
16640TIP3   OH249841   6.064   7.392   6.379
16640TIP3    H149842   6.133   7.366   6.440
16640TIP3    H249843   6.065   7.487   6.380
16641TIP3   OH249844   5.797   7.097   6.583
16641TIP3    H149845   5.733   7.144   6.636
16641TIP3    H249846   5.812   7.154   6.508
16642TIP3   OH249847   6.866   6.456   6.620
16642TIP3    H149848   6.844   6.497   6.536
16642TIP3    H249849   6.851   6.525   6.685
16643TIP3   OH249850   6.357   7.603   6.348
16643TIP3    H149851   6.263   7.613   6.364
16643TIP3    H249852   6.374   7.657   6.270
16644TIP3   OH249853   6.529   6.643   6.756
16644TIP3    H149854   6.564   6.720   6.711
16644TIP3    H249855   6.598   6.617   6.817
16645TIP3   OH249856   6.696   6.308   6.775
16645TIP3    H149857   6.714   6.368   6.847
16645TIP3    H249858   6.754   6.337   6.705
16646TIP3   OH249859   6.092   7.665   6.380
16646TIP3    H149860   6.069   7.731   6.316
16646TIP3    H249861   6.082   7.709   6.465
16647TIP3   OH249862   6.192   6.366   6.659
16647TIP3    H149863   6.182   6.460   6.674
16647TIP3    H249864   6.287   6.354   6.650
16648TIP3   OH249865   5.816   7.264   6.363
16648TIP3    H149866   5.888   7.326   6.373
16648TIP3    H249867   5.850   7.198   6.301
16649TIP3   OH249868   5.731   6.563   6.503
16649TIP3    H149869   5.745   6.656   6.520
16649TIP3    H249870   5.694   6.559   6.415
16650TIP3   OH249871   3.089   2.033   0.040
16650TIP3    H149872   3.082   1.989  -0.045
16650TIP3    H249873   3.094   1.961   0.103
16651TIP3   OH249874   5.653   7.534   6.745
16651TIP3    H149875   5.625   7.587   6.819
16651TIP3    H249876   5.609   7.573   6.670
16652TIP3   OH249877   6.281   7.568   6.008
16652TIP3    H149878   6.230   7.496   6.045
16652TIP3    H249879   6.355   7.525   5.964
16653TIP3   OH249880   6.721   7.617   5.922
16653TIP3    H149881   6.759   7.554   5.984
16653TIP3    H249882   6.779   7.613   5.846
16654TIP3   OH249883   5.948   7.073   6.219
16654TIP3    H149884   6.007   7.050   6.292
16654TIP3    H249885   6.006   7.076   6.143
16655TIP3   OH249886   6.538   7.280   6.078
16655TIP3    H149887   6.512   7.295   6.169
16655TIP3    H249888   6.522   7.187   6.063
16656TIP3   OH249889   6.139   7.018   6.422
16656TIP3    H149890   6.108   6.979   6.504
16656TIP3    H249891   6.186   6.947   6.378
16657TIP3   OH249892   6.280   6.822   6.275
16657TIP3    H149893   6.273   6.813   6.180
16657TIP3    H249894   6.374   6.825   6.293
16658TIP3   OH249895   7.059   7.121   5.957
16658TIP3    H149896   7.050   7.081   5.870
16658TIP3    H249897   7.034   7.212   5.945
16659TIP3   OH249898   3.613   2.475   0.319
16659TIP3    H149899   3.613   2.465   0.223
16659TIP3    H249900   3.554   2.406   0.349
16660TIP3   OH249901   3.694   2.193   0.298
16660TIP3    H149902   3.652   2.224   0.379
16660TIP3    H249903   3.696   2.098   0.307
16661TIP3   OH249904   6.090   7.886   6.213
16661TIP3    H149905   6.176   7.860   6.182
16661TIP3    H249906   6.048   7.929   6.138
16662TIP3   OH249907   5.541   7.257   6.399
16662TIP3    H149908   5.635   7.269   6.388
16662TIP3    H249909   5.523   7.170   6.363
16663TIP3   OH249910   5.442   7.856   6.787
16663TIP3    H149911   5.374   7.795   6.759
16663TIP3    H249912   5.500   7.803   6.842
16664TIP3   OH249913   5.609   7.721   6.953
16664TIP3    H149914   5.564   7.669   7.020
16664TIP3    H249915   5.666   7.779   7.002
16665TIP3   OH249916   7.218   7.328   6.304
16665TIP3    H149917   7.266   7.410   6.293
16665TIP3    H249918   7.261   7.284   6.378
16666TIP3   OH249919   7.328   7.186   6.516
16666TIP3    H149920   7.259   7.129   6.551
16666TIP3    H249921   7.366   7.227   6.593
16667TIP3   OH249922   7.254   7.102   6.149
16667TIP3    H149923   7.185   7.102   6.082
16667TIP3    H249924   7.240   7.183   6.198
16668TIP3   OH249925   7.120   6.741   6.074
16668TIP3    H149926   7.071   6.778   6.001
16668TIP3    H249927   7.114   6.646   6.061
16669TIP3   OH249928   7.135   7.016   6.625
16669TIP3    H149929   7.137   6.934   6.575
16669TIP3    H249930   7.134   6.987   6.717
16670TIP3   OH249931   2.769   2.901   0.086
16670TIP3    H149932   2.776   2.870  -0.004
16670TIP3    H249933   2.828   2.976   0.091
16671TIP3   OH249934   7.084   6.468   6.042
16671TIP3    H149935   7.140   6.447   6.117
16671TIP3    H249936   6.997   6.436   6.067
16672TIP3   OH249937   7.142   6.774   6.492
16672TIP3    H149938   7.179   6.691   6.522
16672TIP3    H249939   7.191   6.795   6.413
16673TIP3   OH249940   3.161   2.625   0.739
16673TIP3    H149941   3.196   2.713   0.753
16673TIP3    H249942   3.215   2.569   0.794
16674TIP3   OH249943   7.262   6.531   6.567
16674TIP3    H149944   7.310   6.525   6.650
16674TIP3    H249945   7.203   6.455   6.568
16675TIP3   OH249946   2.980   2.269   0.110
16675TIP3    H149947   3.010   2.185   0.075
16675TIP3    H249948   3.055   2.328   0.098
16676TIP3   OH249949   2.759   2.537   0.192
16676TIP3    H149950   2.759   2.543   0.097
16676TIP3    H249951   2.723   2.621   0.222
16677TIP3   OH249952   7.305   6.436   6.209
16677TIP3    H149953   7.346   6.375   6.148
16677TIP3    H249954   7.358   6.516   6.203
16678TIP3   OH249955   5.737   6.309   6.961
16678TIP3    H149956   5.653   6.277   6.996
16678TIP3    H249957   5.713   6.351   6.878
16679TIP3   OH249958   2.985   2.207   0.564
16679TIP3    H149959   2.917   2.161   0.612
16679TIP3    H249960   2.954   2.210   0.474
16680TIP3   OH249961   5.794   7.929   7.160
16680TIP3    H149962   5.822   7.978   7.237
16680TIP3    H249963   5.833   7.842   7.171
16681TIP3   OH249964   5.979   7.705   6.952
16681TIP3    H149965   5.931   7.682   7.031
16681TIP3    H249966   6.071   7.711   6.980
16682TIP3   OH249967   7.355   6.363   6.972
16682TIP3    H149968   7.386   6.427   6.909
16682TIP3    H249969   7.264   6.388   6.989
16683TIP3   OH249970   7.453   6.513   6.767
16683TIP3    H149971   7.515   6.449   6.731
16683TIP3    H249972   7.495   6.597   6.754
16684TIP3   OH249973   6.050   6.122   7.050
16684TIP3    H149974   5.955   6.115   7.064
16684TIP3    H249975   6.075   6.037   7.015
16685TIP3   OH249976   5.871   6.107   6.794
16685TIP3    H149977   5.895   6.146   6.710
16685TIP3    H249978   5.831   6.179   6.843
16686TIP3   OH249979   7.066   6.390   6.965
16686TIP3    H149980   6.983   6.430   6.939
16686TIP3    H249981   7.041   6.306   7.004
16687TIP3   OH249982   7.090   6.311   6.574
16687TIP3    H149983   7.011   6.363   6.588
16687TIP3    H249984   7.071   6.227   6.618
16688TIP3   OH249985   5.543   7.656   6.529
16688TIP3    H149986   5.459   7.626   6.497
16688TIP3    H249987   5.546   7.749   6.505
16689TIP3   OH249988   5.976   6.214   6.553
16689TIP3    H149989   6.018   6.153   6.492
16689TIP3    H249990   6.049   6.265   6.589
16690TIP3   OH249991   6.462   6.396   6.660
16690TIP3    H149992   6.532   6.344   6.697
16690TIP3    H249993   6.479   6.485   6.692
16691TIP3   OH249994   6.339   7.797   6.141
16691TIP3    H149995   6.423   7.822   6.102
16691TIP3    H249996   6.309   7.723   6.087
16692TIP3   OH249997   3.407   2.218   0.776
16692TIP3    H149998   3.389   2.179   0.862
16692TIP3    H249999   3.502   2.219   0.770
16693TIP3   OH250000   5.653   7.643   6.203
16693TIP3    H150001   5.650   7.646   6.299
16693TIP3    H250002   5.734   7.597   6.183
16694TIP3   OH250003   7.468   6.925   6.470
16694TIP3    H150004   7.457   7.020   6.475
16694TIP3    H250005   7.410   6.898   6.399
16695TIP3   OH250006   8.396   6.618   5.820
16695TIP3    H150007   8.391   6.661   5.905
16695TIP3    H250008   8.325   6.553   5.822
16696TIP3   OH250009   7.971   6.647   5.844
16696TIP3    H150010   7.919   6.600   5.909
16696TIP3    H250011   7.912   6.715   5.810
16697TIP3   OH250012   7.573   6.733   6.646
16697TIP3    H150013   7.540   6.810   6.599
16697TIP3    H250014   7.576   6.664   6.579
16698TIP3   OH250015   7.467   6.664   6.207
16698TIP3    H150016   7.512   6.699   6.130
16698TIP3    H250017   7.403   6.731   6.230
16699TIP3   OH250018   7.878   6.676   6.354
16699TIP3    H150019   7.838   6.605   6.406
16699TIP3    H250020   7.973   6.661   6.363
16700TIP3   OH250021   7.436   7.106   5.937
16700TIP3    H150022   7.486   7.187   5.952
16700TIP3    H250023   7.388   7.092   6.019
16701TIP3   OH250024   7.563   7.362   5.966
16701TIP3    H150025   7.624   7.353   6.039
16701TIP3    H250026   7.617   7.352   5.887
16702TIP3   OH250027   7.573   6.808   6.004
16702TIP3    H150028   7.634   6.878   6.028
16702TIP3    H250029   7.530   6.840   5.925
16703TIP3   OH250030   7.724   7.299   5.753
16703TIP3    H150031   7.772   7.229   5.798
16703TIP3    H250032   7.784   7.329   5.685
16704TIP3   OH250033   7.349   7.498   5.841
16704TIP3    H150034   7.421   7.474   5.898
16704TIP3    H250035   7.322   7.416   5.799
16705TIP3   OH250036   7.517   6.543   6.446
16705TIP3    H150037   7.429   6.529   6.482
16705TIP3    H250038   7.502   6.589   6.364
16706TIP3   OH250039   7.824   6.446   6.513
16706TIP3    H150040   7.740   6.430   6.556
16706TIP3    H250041   7.877   6.369   6.535
16707TIP3   OH250042   7.609   6.322   6.294
16707TIP3    H150043   7.610   6.375   6.214
16707TIP3    H250044   7.588   6.384   6.364
16708TIP3   OH250045   7.813   6.476   6.003
16708TIP3    H150046   7.835   6.401   5.948
16708TIP3    H250047   7.845   6.452   6.090
16709TIP3   OH250048   7.530   3.075   0.293
16709TIP3    H150049   7.437   3.066   0.269
16709TIP3    H250050   7.557   3.157   0.252
16710TIP3   OH250051   1.488   7.812   7.232
16710TIP3    H150052   1.421   7.872   7.199
16710TIP3    H250053   1.447   7.725   7.228
16711TIP3   OH250054   1.382   7.553   7.229
16711TIP3    H150055   1.445   7.534   7.298
16711TIP3    H250056   1.297   7.527   7.265
16712TIP3   OH250057   7.539   3.294   0.119
16712TIP3    H150058   7.565   3.228   0.055
16712TIP3    H250059   7.605   3.362   0.112
16713TIP3   OH250060   0.632   3.863   0.508
16713TIP3    H150061   0.566   3.930   0.488
16713TIP3    H250062   0.693   3.866   0.434
16714TIP3   OH250063   0.102   3.761   0.129
16714TIP3    H150064   0.169   3.753   0.196
16714TIP3    H250065   0.144   3.811   0.059
16715TIP3   OH250066   0.284   3.759   0.332
16715TIP3    H150067   0.230   3.752   0.411
16715TIP3    H250068   0.339   3.836   0.347
16716TIP3   OH250069   0.438   3.714   0.663
16716TIP3    H150070   0.355   3.748   0.628
16716TIP3    H250071   0.506   3.763   0.616
16717TIP3   OH250072   8.630   3.357   0.713
16717TIP3    H150073   8.620   3.263   0.728
16717TIP3    H250074   8.540   3.389   0.706
16718TIP3   OH250075   2.578   8.155   6.906
16718TIP3    H150076   2.630   8.193   6.976
16718TIP3    H250077   2.640   8.101   6.856
16719TIP3   OH250078   5.905   0.047   7.172
16719TIP3    H150079   5.841   0.006   7.230
16719TIP3    H250080   5.990   0.023   7.210
16720TIP3   OH250081   2.827   8.256   6.990
16720TIP3    H150082   2.855   8.327   7.047
16720TIP3    H250083   2.850   8.285   6.902
16721TIP3   OH250084   3.360   7.520   7.019
16721TIP3    H150085   3.294   7.509   7.088
16721TIP3    H250086   3.346   7.609   6.987
16722TIP3   OH250087   6.116   0.497   6.640
16722TIP3    H150088   6.114   0.576   6.586
16722TIP3    H250089   6.198   0.454   6.618
16723TIP3   OH250090   2.882   8.287   6.728
16723TIP3    H150091   2.845   8.285   6.639
16723TIP3    H250092   2.964   8.335   6.719
16724TIP3   OH250093   2.553   7.638   7.046
16724TIP3    H150094   2.541   7.641   7.141
16724TIP3    H250095   2.630   7.693   7.030
16725TIP3   OH250096   8.859   3.968   0.253
16725TIP3    H150097   8.780   3.986   0.202
16725TIP3    H250098   8.894   3.887   0.216
16726TIP3   OH250099   2.249   7.621   7.018
16726TIP3    H150100   2.240   7.633   7.113
16726TIP3    H250101   2.176   7.671   6.981
16727TIP3   OH250102   7.715   3.504   0.122
16727TIP3    H150103   7.733   3.547   0.038
16727TIP3    H250104   7.660   3.566   0.169
16728TIP3   OH250105   8.521   3.635   0.360
16728TIP3    H150106   8.481   3.716   0.393
16728TIP3    H250107   8.592   3.616   0.421
16729TIP3   OH250108   8.235   3.722   0.090
16729TIP3    H150109   8.329   3.733   0.072
16729TIP3    H250110   8.192   3.754   0.010
16730TIP3   OH250111   0.129   3.705   0.550
16730TIP3    H150112   0.044   3.746   0.567
16730TIP3    H250113   0.108   3.619   0.513
16731TIP3   OH250114   2.178   7.937   7.112
16731TIP3    H150115   2.114   7.894   7.055
16731TIP3    H250116   2.220   8.002   7.055
16732TIP3   OH250117   8.232   3.439   0.267
16732TIP3    H150118   8.232   3.393   0.351
16732TIP3    H250119   8.302   3.504   0.275
16733TIP3   OH250120   2.761   7.833   7.061
16733TIP3    H150121   2.701   7.885   7.115
16733TIP3    H250122   2.834   7.892   7.043
16734TIP3   OH250123   2.956   8.020   7.055
16734TIP3    H150124   3.034   8.047   7.103
16734TIP3    H250125   2.902   8.099   7.050
16735TIP3   OH250126   3.318   8.162   6.938
16735TIP3    H150127   3.264   8.115   6.874
16735TIP3    H250128   3.322   8.252   6.904
16736TIP3   OH250129   5.973   0.534   6.876
16736TIP3    H150130   5.953   0.452   6.920
16736TIP3    H250131   6.037   0.510   6.808
16737TIP3   OH250132   5.754   0.296   6.762
16737TIP3    H150133   5.809   0.279   6.839
16737TIP3    H250134   5.671   0.254   6.783
16738TIP3   OH250135   6.190   0.788   6.613
16738TIP3    H150136   6.198   0.841   6.534
16738TIP3    H250137   6.096   0.776   6.624
16739TIP3   OH250138   5.942   0.255   6.969
16739TIP3    H150139   5.919   0.197   7.041
16739TIP3    H250140   6.037   0.245   6.961
16740TIP3   OH250141   5.210   0.204   6.835
16740TIP3    H150142   5.191   0.126   6.782
16740TIP3    H250143   5.152   0.196   6.911
16741TIP3   OH250144   8.857   3.555   0.021
16741TIP3    H150145   8.804   3.590  -0.050
16741TIP3    H250146   8.899   3.631   0.060
16742TIP3   OH250147   8.518   3.685   0.078
16742TIP3    H150148   8.557   3.771   0.060
16742TIP3    H250149   8.515   3.680   0.173
16743TIP3   OH250150   8.690   3.453   0.218
16743TIP3    H150151   8.635   3.529   0.237
16743TIP3    H250152   8.749   3.483   0.148
16744TIP3   OH250153   8.141   3.469   0.015
16744TIP3    H150154   8.150   3.564   0.018
16744TIP3    H250155   8.172   3.439   0.100
16745TIP3   OH250156   0.171   4.130   0.300
16745TIP3    H150157   0.096   4.071   0.290
16745TIP3    H250158   0.135   4.209   0.338
16746TIP3   OH250159   1.750   7.860   7.161
16746TIP3    H150160   1.760   7.954   7.175
16746TIP3    H250161   1.657   7.843   7.179
16747TIP3   OH250162   5.326   0.446   6.758
16747TIP3    H150163   5.258   0.383   6.785
16747TIP3    H250164   5.408   0.403   6.780
16748TIP3   OH250165   5.746   0.515   6.594
16748TIP3    H150166   5.743   0.439   6.652
16748TIP3    H250167   5.737   0.478   6.506
16749TIP3   OH250168   1.970   8.352   6.872
16749TIP3    H150169   2.011   8.334   6.956
16749TIP3    H250170   2.042   8.359   6.810
16750TIP3   OH250171   5.483   0.192   6.752
16750TIP3    H150172   5.394   0.195   6.789
16750TIP3    H250173   5.492   0.102   6.721
16751TIP3   OH250174   2.148   8.294   7.075
16751TIP3    H150175   2.179   8.295   7.165
16751TIP3    H250176   2.207   8.232   7.031
16752TIP3   OH250177   2.310   8.109   6.944
16752TIP3    H150178   2.285   8.113   6.852
16752TIP3    H250179   2.404   8.128   6.944
16753TIP3   OH250180   6.070   0.027   6.638
16753TIP3    H150181   6.060  -0.016   6.553
16753TIP3    H250182   6.045   0.118   6.623
16754TIP3   OH250183   6.222   0.229   6.965
16754TIP3    H150184   6.282   0.297   6.936
16754TIP3    H250185   6.268   0.185   7.037
16755TIP3   OH250186   6.359   0.083   7.155
16755TIP3    H150187   6.290   0.047   7.211
16755TIP3    H250188   6.423   0.120   7.215
16756TIP3   OH250189   6.283   0.012   6.805
16756TIP3    H150190   6.213   0.010   6.740
16756TIP3    H250191   6.262   0.088   6.860
16757TIP3   OH250192   3.178   8.043   6.736
16757TIP3    H150193   3.128   8.085   6.665
16757TIP3    H250194   3.158   7.950   6.727
16758TIP3   OH250195   0.219   4.144   0.023
16758TIP3    H150196   0.225   4.052  -0.004
16758TIP3    H250197   0.210   4.140   0.118
16759TIP3   OH250198   3.116   7.772   6.724
16759TIP3    H150199   3.177   7.756   6.795
16759TIP3    H250200   3.032   7.742   6.757
16760TIP3   OH250201   3.214   8.072   7.183
16760TIP3    H150202   3.259   7.989   7.194
16760TIP3    H250203   3.249   8.108   7.102
16761TIP3   OH250204   0.398   4.001   0.401
16761TIP3    H150205   0.471   4.056   0.373
16761TIP3    H250206   0.320   4.048   0.372
16762TIP3   OH250207   3.322   7.816   7.228
16762TIP3    H150208   3.361   7.807   7.315
16762TIP3    H250209   3.262   7.742   7.221
16763TIP3   OH250210   3.355   7.749   6.866
16763TIP3    H150211   3.407   7.714   6.794
16763TIP3    H250212   3.398   7.831   6.890
16764TIP3   OH250213   7.785   3.403   0.367
16764TIP3    H150214   7.725   3.441   0.431
16764TIP3    H250215   7.758   3.441   0.283
16765TIP3   OH250216   0.682   3.624   0.867
16765TIP3    H150217   0.587   3.615   0.863
16765TIP3    H250218   0.714   3.536   0.887
16766TIP3   OH250219   8.723   3.549   0.526
16766TIP3    H150220   8.704   3.478   0.587
16766TIP3    H250221   8.803   3.521   0.481
16767TIP3   OH250222   0.388   3.477   0.394
16767TIP3    H150223   0.434   3.530   0.329
16767TIP3    H250224   0.308   3.526   0.413
16768TIP3   OH250225   0.523   3.580   0.180
16768TIP3    H150226   0.593   3.524   0.146
16768TIP3    H250227   0.552   3.669   0.160
16769TIP3   OH250228   8.225   3.323   0.513
16769TIP3    H150229   8.138   3.346   0.545
16769TIP3    H250230   8.229   3.227   0.521
16770TIP3   OH250231   7.863   3.187   0.180
16770TIP3    H150232   7.880   3.237   0.100
16770TIP3    H250233   7.844   3.254   0.246
16771TIP3   OH250234   8.504   3.318   0.412
16771TIP3    H150235   8.554   3.388   0.372
16771TIP3    H250236   8.427   3.362   0.449
16772TIP3   OH250237   0.071   3.468   0.423
16772TIP3    H150238   0.064   3.440   0.332
16772TIP3    H250239   0.087   3.387   0.472
16773TIP3   OH250240   3.150   7.594   7.223
16773TIP3    H150241   3.070   7.645   7.237
16773TIP3    H250242   3.131   7.509   7.263
16774TIP3   OH250243   1.999   7.504   7.205
16774TIP3    H150244   2.047   7.445   7.148
16774TIP3    H250245   2.064   7.568   7.234
16775TIP3   OH250246   7.559   0.344   6.874
16775TIP3    H150247   7.529   0.430   6.845
16775TIP3    H250248   7.492   0.283   6.841
16776TIP3   OH250249   7.385   0.363   7.202
16776TIP3    H150250   7.478   0.376   7.222
16776TIP3    H250251   7.380   0.273   7.170
16777TIP3   OH250252   0.914   4.432   0.363
16777TIP3    H150253   0.955   4.348   0.344
16777TIP3    H250254   0.985   4.496   0.353
16778TIP3   OH250255   7.837   0.692   6.843
16778TIP3    H150256   7.835   0.616   6.902
16778TIP3    H250257   7.928   0.720   6.842
16779TIP3   OH250258   3.539   8.240   7.098
16779TIP3    H150259   3.507   8.328   7.116
16779TIP3    H250260   3.472   8.200   7.043
16780TIP3   OH250261   0.646   4.354   0.036
16780TIP3    H150262   0.695   4.276   0.061
16780TIP3    H250263   0.712   4.418   0.011
16781TIP3   OH250264   7.395   0.938   7.010
16781TIP3    H150265   7.475   0.937   6.958
16781TIP3    H250266   7.423   0.967   7.097
16782TIP3   OH250267   7.208   0.550   7.274
16782TIP3    H150268   7.260   0.474   7.248
16782TIP3    H250269   7.266   0.625   7.258
16783TIP3   OH250270   5.296   8.303   7.104
16783TIP3    H150271   5.342   8.333   7.182
16783TIP3    H250272   5.363   8.301   7.036
16784TIP3   OH250273   1.864   4.277   0.000
16784TIP3    H150274   1.835   4.232   0.080
16784TIP3    H250275   1.821   4.230  -0.071
16785TIP3   OH250276   4.152   8.127   7.260
16785TIP3    H150277   4.128   8.201   7.206
16785TIP3    H250278   4.099   8.054   7.226
16786TIP3   OH250279   4.835   8.227   6.865
16786TIP3    H150280   4.909   8.209   6.924
16786TIP3    H250281   4.876   8.266   6.788
16787TIP3   OH250282   0.790   4.128   0.115
16787TIP3    H150283   0.872   4.104   0.158
16787TIP3    H250284   0.798   4.090   0.027
16788TIP3   OH250285   7.149   0.143   7.147
16788TIP3    H150286   7.241   0.119   7.153
16788TIP3    H250287   7.104   0.062   7.125
16789TIP3   OH250288   1.113   3.872   0.463
16789TIP3    H150289   1.047   3.880   0.394
16789TIP3    H250290   1.066   3.894   0.543
16790TIP3   OH250291   7.433   0.543   6.737
16790TIP3    H150292   7.419   0.549   6.642
16790TIP3    H250293   7.384   0.616   6.774
16791TIP3   OH250294   1.198   4.808   0.267
16791TIP3    H150295   1.184   4.902   0.255
16791TIP3    H250296   1.226   4.777   0.181
16792TIP3   OH250297   5.043   8.200   7.032
16792TIP3    H150298   4.998   8.204   7.117
16792TIP3    H250299   5.132   8.231   7.051
16793TIP3   OH250300   1.020   4.002   0.209
16793TIP3    H150301   1.057   4.079   0.251
16793TIP3    H250302   1.086   3.975   0.145
16794TIP3   OH250303   6.401   0.402   6.847
16794TIP3    H150304   6.369   0.378   6.760
16794TIP3    H250305   6.409   0.498   6.844
16795TIP3   OH250306   2.201   3.947   0.031
16795TIP3    H150307   2.165   4.026   0.071
16795TIP3    H250308   2.264   3.978  -0.033
16796TIP3   OH250309   1.469   3.594   0.122
16796TIP3    H150310   1.481   3.504   0.154
16796TIP3    H250311   1.401   3.631   0.179
16797TIP3   OH250312   7.590   0.930   6.819
16797TIP3    H150313   7.608   0.863   6.753
16797TIP3    H250314   7.676   0.967   6.839
16798TIP3   OH250315   7.662   0.731   6.635
16798TIP3    H150316   7.686   0.666   6.569
16798TIP3    H250317   7.723   0.716   6.707
16799TIP3   OH250318   7.382   0.214   6.695
16799TIP3    H150319   7.306   0.269   6.680
16799TIP3    H250320   7.431   0.217   6.612
16800TIP3   OH250321   7.346   0.027   6.378
16800TIP3    H150322   7.410   0.078   6.427
16800TIP3    H250323   7.399  -0.039   6.332
16801TIP3   OH250324   7.727   0.310   6.654
16801TIP3    H150325   7.680   0.327   6.736
16801TIP3    H250326   7.813   0.279   6.683
16802TIP3   OH250327   6.946   0.288   7.027
16802TIP3    H150328   6.906   0.228   6.964
16802TIP3    H250329   7.020   0.239   7.063
16803TIP3   OH250330   7.063   0.762   7.163
16803TIP3    H150331   7.005   0.737   7.091
16803TIP3    H250332   7.096   0.679   7.198
16804TIP3   OH250333   1.130   4.516   0.073
16804TIP3    H150334   1.160   4.450   0.011
16804TIP3    H250335   1.164   4.599   0.038
16805TIP3   OH250336   7.560   0.177   6.484
16805TIP3    H150337   7.620   0.234   6.532
16805TIP3    H250338   7.591   0.180   6.393
16806TIP3   OH250339   7.299   0.763   6.827
16806TIP3    H150340   7.323   0.818   6.901
16806TIP3    H250341   7.268   0.825   6.760
16807TIP3   OH250342   5.104   7.788   6.533
16807TIP3    H150343   5.029   7.812   6.587
16807TIP3    H250344   5.119   7.864   6.477
16808TIP3   OH250345   6.826   0.116   6.844
16808TIP3    H150346   6.751   0.166   6.811
16808TIP3    H250347   6.792   0.028   6.858
16809TIP3   OH250348   7.906   0.732   6.089
16809TIP3    H150349   7.911   0.828   6.087
16809TIP3    H250350   7.993   0.703   6.060
16810TIP3   OH250351   7.641   0.868   6.351
16810TIP3    H150352   7.621   0.886   6.259
16810TIP3    H250353   7.559   0.836   6.387
16811TIP3   OH250354   7.424   0.822   6.522
16811TIP3    H150355   7.390   0.892   6.577
16811TIP3    H250356   7.499   0.787   6.571
16812TIP3   OH250357   1.275   3.680   0.293
16812TIP3    H150358   1.181   3.687   0.275
16812TIP3    H250359   1.300   3.769   0.319
16813TIP3   OH250360   1.811   3.751   0.512
16813TIP3    H150361   1.870   3.820   0.484
16813TIP3    H250362   1.733   3.761   0.457
16814TIP3   OH250363   7.648   0.150   6.230
16814TIP3    H150364   7.602   0.153   6.146
16814TIP3    H250365   7.733   0.190   6.212
16815TIP3   OH250366   4.386   7.961   6.538
16815TIP3    H150367   4.346   7.967   6.625
16815TIP3    H250368   4.350   7.880   6.501
16816TIP3   OH250369   1.097   4.226   0.335
16816TIP3    H150370   1.134   4.204   0.420
16816TIP3    H250371   1.172   4.255   0.283
16817TIP3   OH250372   4.045   8.310   7.088
16817TIP3    H150373   3.956   8.287   7.115
16817TIP3    H250374   4.053   8.275   6.999
16818TIP3   OH250375   7.496  -0.001   6.812
16818TIP3    H150376   7.449   0.073   6.774
16818TIP3    H250377   7.556  -0.029   6.743
16819TIP3   OH250378   7.682   0.032   7.017
16819TIP3    H150379   7.601   0.046   6.968
16819TIP3    H250380   7.721  -0.046   6.977
16820TIP3   OH250381   0.887   4.204   0.615
16820TIP3    H150382   0.902   4.294   0.642
16820TIP3    H250383   0.835   4.211   0.535
16821TIP3   OH250384   4.054   7.942   6.518
16821TIP3    H150385   4.039   7.944   6.612
16821TIP3    H250386   3.977   7.985   6.480
16822TIP3   OH250387   0.620   3.821   0.100
16822TIP3    H150388   0.682   3.846   0.168
16822TIP3    H250389   0.616   3.897   0.042
16823TIP3   OH250390   3.515   7.974   6.895
16823TIP3    H150391   3.557   8.006   6.815
16823TIP3    H250392   3.449   8.040   6.915
16824TIP3   OH250393   1.785   4.487   0.249
16824TIP3    H150394   1.742   4.504   0.166
16824TIP3    H250395   1.721   4.438   0.300
16825TIP3   OH250396   4.402   8.115   7.126
16825TIP3    H150397   4.328   8.112   7.187
16825TIP3    H250398   4.472   8.156   7.176
16826TIP3   OH250399   3.806   8.194   7.147
16826TIP3    H150400   3.717   8.194   7.112
16826TIP3    H250401   3.839   8.106   7.131
16827TIP3   OH250402   4.059   8.195   6.841
16827TIP3    H150403   4.152   8.211   6.831
16827TIP3    H250404   4.021   8.218   6.757
16828TIP3   OH250405   4.852   8.162   7.233
16828TIP3    H150406   4.867   8.142   7.325
16828TIP3    H250407   4.844   8.077   7.190
16829TIP3   OH250408   3.946   8.235   6.598
16829TIP3    H150409   3.886   8.184   6.544
16829TIP3    H250410   4.003   8.280   6.536
16830TIP3   OH250411   7.409   0.088   7.225
16830TIP3    H150412   7.460   0.009   7.209
16830TIP3    H250413   7.462   0.140   7.285
16831TIP3   OH250414   3.968   7.961   7.124
16831TIP3    H150415   3.939   7.884   7.172
16831TIP3    H250416   3.992   7.928   7.037
16832TIP3   OH250417   1.548   4.113   0.248
16832TIP3    H150418   1.489   4.043   0.276
16832TIP3    H250419   1.498   4.193   0.263
16833TIP3   OH250420   7.158   0.363   6.634
16833TIP3    H150421   7.089   0.297   6.623
16833TIP3    H250422   7.140   0.401   6.720
16834TIP3   OH250423   4.637   8.063   6.540
16834TIP3    H150424   4.544   8.044   6.534
16834TIP3    H250425   4.642   8.159   6.547
16835TIP3   OH250426   4.695   8.331   6.593
16835TIP3    H150427   4.790   8.335   6.598
16835TIP3    H250428   4.670   8.410   6.546
16836TIP3   OH250429   6.796   0.316   7.259
16836TIP3    H150430   6.830   0.321   7.170
16836TIP3    H250431   6.874   0.320   7.315
16837TIP3   OH250432   7.319   0.505   6.463
16837TIP3    H150433   7.271   0.588   6.466
16837TIP3    H250434   7.269   0.447   6.522
16838TIP3   OH250435   8.072   0.026   6.417
16838TIP3    H150436   8.013  -0.016   6.355
16838TIP3    H250437   8.081   0.115   6.384
16839TIP3   OH250438   7.897   0.757   6.364
16839TIP3    H150439   7.803   0.772   6.379
16839TIP3    H250440   7.902   0.731   6.272
16840TIP3   OH250441   7.814   0.503   7.043
16840TIP3    H150442   7.844   0.507   7.134
16840TIP3    H250443   7.832   0.412   7.016
16841TIP3   OH250444   6.897   0.663   6.968
16841TIP3    H150445   6.868   0.734   6.910
16841TIP3    H250446   6.817   0.613   6.986
16842TIP3   OH250447   6.522  -0.007   6.670
16842TIP3    H150448   6.561   0.079   6.683
16842TIP3    H250449   6.439  -0.003   6.717
16843TIP3   OH250450   7.072   0.470   6.864
16843TIP3    H150451   7.040   0.557   6.890
16843TIP3    H250452   7.031   0.410   6.927
16844TIP3   OH250453   6.809   0.868   6.809
16844TIP3    H150454   6.762   0.925   6.870
16844TIP3    H250455   6.890   0.915   6.790
16845TIP3   OH250456   7.548   0.545   6.290
16845TIP3    H150457   7.620   0.535   6.352
16845TIP3    H250458   7.469   0.529   6.342
16846TIP3   OH250459   7.954   1.007   6.124
16846TIP3    H150460   7.991   1.029   6.038
16846TIP3    H250461   7.860   1.008   6.110
16847TIP3   OH250462   1.009   3.974   0.694
16847TIP3    H150463   0.945   4.044   0.679
16847TIP3    H250464   1.004   3.957   0.788
16848TIP3   OH250465   7.745   0.517   6.475
16848TIP3    H150466   7.739   0.445   6.538
16848TIP3    H250467   7.838   0.522   6.453
16849TIP3   OH250468   6.916   0.498   6.275
16849TIP3    H150469   6.939   0.408   6.252
16849TIP3    H250470   6.925   0.502   6.370
16850TIP3   OH250471   6.959   0.551   6.541
16850TIP3    H150472   7.006   0.487   6.595
16850TIP3    H250473   7.023   0.620   6.524
16851TIP3   OH250474   6.611   0.249   6.738
16851TIP3    H150475   6.550   0.293   6.797
16851TIP3    H250476   6.617   0.306   6.662
16852TIP3   OH250477   1.822   4.165   0.245
16852TIP3    H150478   1.864   4.205   0.321
16852TIP3    H250479   1.730   4.154   0.271
16853TIP3   OH250480   4.689   8.005   6.803
16853TIP3    H150481   4.666   8.022   6.712
16853TIP3    H250482   4.731   8.086   6.833
16854TIP3   OH250483   7.163   0.730   6.493
16854TIP3    H150484   7.095   0.797   6.502
16854TIP3    H250485   7.245   0.780   6.491
16855TIP3   OH250486   4.334   8.212   6.879
16855TIP3    H150487   4.399   8.276   6.853
16855TIP3    H250488   4.357   8.189   6.968
16856TIP3   OH250489   1.667   4.329   0.454
16856TIP3    H150490   1.646   4.388   0.527
16856TIP3    H250491   1.756   4.299   0.473
16857TIP3   OH250492   4.505   7.902   6.980
16857TIP3    H150493   4.482   7.978   7.033
16857TIP3    H250494   4.575   7.934   6.923
16858TIP3   OH250495   6.948   0.894   6.514
16858TIP3    H150496   6.915   0.904   6.425
16858TIP3    H250497   6.893   0.951   6.567
16859TIP3   OH250498   4.016   7.922   6.799
16859TIP3    H150499   4.006   8.015   6.820
16859TIP3    H250500   4.111   7.908   6.801
16860TIP3   OH250501   7.867   0.235   7.008
16860TIP3    H150502   7.799   0.169   7.016
16860TIP3    H250503   7.942   0.198   7.055
16861TIP3   OH250504   6.602   0.433   6.526
16861TIP3    H150505   6.631   0.522   6.549
16861TIP3    H250506   6.675   0.397   6.475
16862TIP3   OH250507   3.581   8.107   6.665
16862TIP3    H150508   3.590   8.202   6.675
16862TIP3    H250509   3.542   8.095   6.579
16863TIP3   OH250510   0.997   3.651   0.242
16863TIP3    H150511   0.976   3.624   0.152
16863TIP3    H250512   0.994   3.570   0.293
16864TIP3   OH250513   6.521   0.680   7.029
16864TIP3    H150514   6.463   0.614   7.067
16864TIP3    H250515   6.495   0.683   6.937
16865TIP3   OH250516   7.107   0.676   6.184
16865TIP3    H150517   7.018   0.648   6.208
16865TIP3    H250518   7.160   0.597   6.188
16866TIP3   OH250519   7.557   0.731   6.089
16866TIP3    H150520   7.539   0.667   6.158
16866TIP3    H250521   7.561   0.679   6.009
16867TIP3   OH250522   6.778   0.251   6.409
16867TIP3    H150523   6.834   0.228   6.484
16867TIP3    H250524   6.835   0.244   6.333
16868TIP3   OH250525   7.249   0.442   6.203
16868TIP3    H150526   7.275   0.448   6.295
16868TIP3    H250527   7.253   0.348   6.184
16869TIP3   OH250528   6.959   0.178   6.605
16869TIP3    H150529   6.923   0.141   6.685
16869TIP3    H250530   6.996   0.102   6.559
16870TIP3   OH250531   1.359   4.399   0.505
16870TIP3    H150532   1.355   4.478   0.559
16870TIP3    H250533   1.296   4.414   0.435
16871TIP3   OH250534   4.110   8.381   6.437
16871TIP3    H150535   4.080   8.377   6.346
16871TIP3    H250536   4.205   8.391   6.429
16872TIP3   OH250537   7.871   0.267   6.118
16872TIP3    H150538   7.856   0.230   6.030
16872TIP3    H250539   7.839   0.357   6.111
16873TIP3   OH250540   1.428   4.312   0.778
16873TIP3    H150541   1.512   4.271   0.800
16873TIP3    H250542   1.434   4.329   0.684
16874TIP3   OH250543   1.362   3.939   0.375
16874TIP3    H150544   1.407   3.989   0.443
16874TIP3    H250545   1.273   3.927   0.408
16875TIP3   OH250546   1.434   4.681   0.440
16875TIP3    H150547   1.500   4.750   0.449
16875TIP3    H250548   1.387   4.703   0.359
16876TIP3   OH250549   1.518   3.711   0.514
16876TIP3    H150550   1.446   3.736   0.572
16876TIP3    H250551   1.515   3.616   0.511
16877TIP3   OH250552   1.557   3.626   0.835
16877TIP3    H150553   1.647   3.642   0.808
16877TIP3    H250554   1.516   3.713   0.835
16878TIP3   OH250555   1.749   3.920   0.974
16878TIP3    H150556   1.761   3.896   0.882
16878TIP3    H250557   1.700   4.003   0.970
16879TIP3   OH250558   6.345   0.368   6.585
16879TIP3    H150559   6.430   0.399   6.555
16879TIP3    H250560   6.330   0.288   6.535
16880TIP3   OH250561   8.021   0.484   6.443
16880TIP3    H150562   8.067   0.562   6.414
16880TIP3    H250563   8.075   0.448   6.514
16881TIP3   OH250564   8.162   0.345   6.636
16881TIP3    H150565   8.092   0.300   6.682
16881TIP3    H250566   8.216   0.383   6.705
16882TIP3   OH250567   8.080   0.266   6.289
16882TIP3    H150568   8.010   0.261   6.225
16882TIP3    H250569   8.060   0.343   6.341
16883TIP3   OH250570   4.947   8.308   6.226
16883TIP3    H150571   4.905   8.343   6.148
16883TIP3    H250572   4.941   8.213   6.216
16884TIP3   OH250573   7.960   0.200   6.752
16884TIP3    H150574   7.964   0.105   6.738
16884TIP3    H250575   7.936   0.210   6.844
16885TIP3   OH250576   0.641   4.412   0.309
16885TIP3    H150577   0.626   4.417   0.215
16885TIP3    H250578   0.733   4.436   0.321
16886TIP3   OH250579   4.919   8.037   6.201
16886TIP3    H150580   4.985   8.010   6.265
16886TIP3    H250581   4.838   7.996   6.231
16887TIP3   OH250582   4.982   8.323   6.648
16887TIP3    H150583   5.030   8.242   6.665
16887TIP3    H250584   5.024   8.361   6.571
16888TIP3   OH250585   8.098   0.138   7.115
16888TIP3    H150586   8.150   0.065   7.083
16888TIP3    H250587   8.097   0.128   7.210
16889TIP3   OH250588   5.101   8.077   6.704
16889TIP3    H150589   5.144   8.070   6.789
16889TIP3    H250590   5.038   8.005   6.703
16890TIP3   OH250591   0.815   3.849   0.298
16890TIP3    H150592   0.863   3.767   0.289
16890TIP3    H250593   0.875   3.916   0.264
16891TIP3   OH250594   0.620   4.142   0.336
16891TIP3    H150595   0.674   4.127   0.258
16891TIP3    H250596   0.613   4.237   0.342
16892TIP3   OH250597   5.151   7.990   6.353
16892TIP3    H150598   5.197   7.931   6.294
16892TIP3    H250599   5.200   8.072   6.348
16893TIP3   OH250600   3.573   7.788   7.091
16893TIP3    H150601   3.497   7.800   7.147
16893TIP3    H250602   3.572   7.863   7.031
16894TIP3   OH250603   7.807   1.081   6.646
16894TIP3    H150604   7.827   1.066   6.554
16894TIP3    H250605   7.786   1.174   6.652
16895TIP3   OH250606   0.786   3.662   0.618
16895TIP3    H150607   0.753   3.661   0.708
16895TIP3    H250608   0.738   3.734   0.577
16896TIP3   OH250609   4.621   7.963   7.285
16896TIP3    H150610   4.563   7.888   7.299
16896TIP3    H250611   4.679   7.936   7.214
16897TIP3   OH250612   5.168   7.903   7.117
16897TIP3    H150613   5.209   7.954   7.047
16897TIP3    H250614   5.089   7.952   7.139
16898TIP3   OH250615   5.283   8.035   6.914
16898TIP3    H150616   5.343   7.978   6.866
16898TIP3    H250617   5.307   8.123   6.886
16899TIP3   OH250618   0.925   3.541  -0.003
16899TIP3    H150619   0.832   3.517   0.003
16899TIP3    H250620   0.972   3.458   0.001
16900TIP3   OH250621   3.634   7.591   6.908
16900TIP3    H150622   3.691   7.635   6.845
16900TIP3    H250623   3.622   7.656   6.978
16901TIP3   OH250624   4.326   7.760   7.140
16901TIP3    H150625   4.382   7.808   7.080
16901TIP3    H250626   4.363   7.779   7.227
16902TIP3   OH250627   4.831   7.912   7.103
16902TIP3    H150628   4.859   7.885   7.016
16902TIP3    H250629   4.835   7.832   7.156
16903TIP3   OH250630   4.915   7.868   6.718
16903TIP3    H150631   4.835   7.916   6.740
16903TIP3    H250632   4.899   7.779   6.749
16904TIP3   OH250633   6.397   0.670   6.782
16904TIP3    H150634   6.350   0.657   6.699
16904TIP3    H250635   6.409   0.765   6.788
16905TIP3   OH250636   3.808   7.737   6.716
16905TIP3    H150637   3.854   7.687   6.649
16905TIP3    H250638   3.873   7.800   6.748
16906TIP3   OH250639   4.292   7.954   6.799
16906TIP3    H150640   4.356   7.908   6.853
16906TIP3    H250641   4.303   8.046   6.822
16907TIP3   OH250642   7.174   0.939   6.237
16907TIP3    H150643   7.113   0.974   6.172
16907TIP3    H250644   7.149   0.846   6.244
16908TIP3   OH250645   7.851   1.055   6.378
16908TIP3    H150646   7.799   0.974   6.377
16908TIP3    H250647   7.919   1.040   6.313
16909TIP3   OH250648   1.132   3.750   0.866
16909TIP3    H150649   1.074   3.726   0.938
16909TIP3    H250650   1.191   3.816   0.903
16910TIP3   OH250651   1.383   3.840   0.976
16910TIP3    H150652   1.459   3.870   1.026
16910TIP3    H250653   1.349   3.767   1.027
16911TIP3   OH250654   6.421   0.681   6.468
16911TIP3    H150655   6.358   0.747   6.497
16911TIP3    H250656   6.499   0.731   6.445
16912TIP3   OH250657   8.306   0.117   6.554
16912TIP3    H150658   8.271   0.203   6.580
16912TIP3    H250659   8.230   0.072   6.516
16913TIP3   OH250660   8.354   0.447   6.801
16913TIP3    H150661   8.423   0.381   6.804
16913TIP3    H250662   8.392   0.520   6.752
16914TIP3   OH250663   8.843   0.028   6.815
16914TIP3    H150664   8.856   0.084   6.739
16914TIP3    H250665   8.801  -0.051   6.780
16915TIP3   OH250666   8.560   0.269   6.805
16915TIP3    H150667   8.588   0.223   6.884
16915TIP3    H250668   8.567   0.204   6.736
16916TIP3   OH250669   8.214   0.668   6.354
16916TIP3    H150670   8.188   0.734   6.290
16916TIP3    H250671   8.251   0.718   6.426
16917TIP3   OH250672   0.282   0.304   5.961
16917TIP3    H150673   0.327   0.294   6.044
16917TIP3    H250674   0.327   0.244   5.901
16918TIP3   OH250675   6.877   8.057   5.986
16918TIP3    H150676   6.806   8.058   6.050
16918TIP3    H250677   6.935   8.127   6.014
16919TIP3   OH250678   8.619   0.367   6.316
16919TIP3    H150679   8.541   0.419   6.297
16919TIP3    H250680   8.600   0.323   6.399
16920TIP3   OH250681   0.506   0.376   5.676
16920TIP3    H150682   0.492   0.382   5.581
16920TIP3    H250683   0.599   0.357   5.686
16921TIP3   OH250684   6.181   8.218   6.049
16921TIP3    H150685   6.149   8.223   6.139
16921TIP3    H250686   6.141   8.139   6.013
16922TIP3   OH250687   8.833   0.146   6.567
16922TIP3    H150688   8.739   0.136   6.579
16922TIP3    H250689   8.850   0.113   6.479
16923TIP3   OH250690   5.849   8.202   5.988
16923TIP3    H150691   5.834   8.199   6.082
16923TIP3    H250692   5.770   8.242   5.952
16924TIP3   OH250693   5.362   8.267   6.804
16924TIP3    H150694   5.444   8.297   6.844
16924TIP3    H250695   5.389   8.235   6.718
16925TIP3   OH250696   5.295   8.228   6.346
16925TIP3    H150697   5.343   8.264   6.271
16925TIP3    H250698   5.233   8.296   6.370
16926TIP3   OH250699   8.572   0.074   6.604
16926TIP3    H150700   8.479   0.077   6.581
16926TIP3    H250701   8.595  -0.019   6.599
16927TIP3   OH250702   8.892   0.080   6.301
16927TIP3    H150703   8.925   0.170   6.305
16927TIP3    H250704   8.829   0.081   6.229
16928TIP3   OH250705   8.713   0.086   6.094
16928TIP3    H150706   8.649   0.032   6.048
16928TIP3    H250707   8.692   0.176   6.067
16929TIP3   OH250708   5.746   8.216   6.605
16929TIP3    H150709   5.720   8.141   6.658
16929TIP3    H250710   5.767   8.178   6.519
16930TIP3   OH250711   6.420   8.330   5.988
16930TIP3    H150712   6.337   8.293   6.016
16930TIP3    H250713   6.396   8.413   5.945
16931TIP3   OH250714   8.315   0.254   6.148
16931TIP3    H150715   8.358   0.337   6.169
16931TIP3    H250716   8.234   0.255   6.199
16932TIP3   OH250717   8.773   0.774   5.760
16932TIP3    H150718   8.762   0.700   5.701
16932TIP3    H250719   8.834   0.742   5.827
16933TIP3   OH250720   8.692   0.812   6.037
16933TIP3    H150721   8.766   0.756   6.061
16933TIP3    H250722   8.699   0.822   5.942
16934TIP3   OH250723   8.397   0.505   6.231
16934TIP3    H150724   8.329   0.549   6.283
16934TIP3    H250725   8.419   0.567   6.162
16935TIP3   OH250726   1.407   3.254   1.119
16935TIP3    H150727   1.420   3.168   1.079
16935TIP3    H250728   1.457   3.314   1.065
16936TIP3   OH250729   5.814   8.185   6.266
16936TIP3    H150730   5.802   8.278   6.284
16936TIP3    H250731   5.908   8.170   6.279
16937TIP3   OH250732   8.435   0.687   6.028
16937TIP3    H150733   8.503   0.751   6.049
16937TIP3    H250734   8.470   0.638   5.953
16938TIP3   OH250735   8.355  -0.019   6.134
16938TIP3    H150736   8.359   0.075   6.152
16938TIP3    H250737   8.314  -0.024   6.047
16939TIP3   OH250738   5.759   8.131   6.978
16939TIP3    H150739   5.738   8.090   6.894
16939TIP3    H250740   5.778   8.057   7.037
16940TIP3   OH250741   8.336   0.869   6.502
16940TIP3    H150742   8.259   0.926   6.500
16940TIP3    H250743   8.387   0.895   6.425
16941TIP3   OH250744   8.872   1.004   5.624
16941TIP3    H150745   8.847   0.926   5.674
16941TIP3    H250746   8.957   0.982   5.586
16942TIP3   OH250747   8.563   0.522   5.847
16942TIP3    H150748   8.598   0.469   5.917
16942TIP3    H250749   8.637   0.538   5.788
16943TIP3   OH250750   0.155   0.708   5.661
16943TIP3    H150751   0.143   0.706   5.756
16943TIP3    H250752   0.127   0.621   5.633
16944TIP3   OH250753   8.677   0.371   6.048
16944TIP3    H150754   8.661   0.378   6.142
16944TIP3    H250755   8.767   0.399   6.036
16945TIP3   OH250756   8.903   0.271   5.901
16945TIP3    H150757   8.839   0.265   5.830
16945TIP3    H250758   8.919   0.180   5.927
16946TIP3   OH250759   8.158   0.657   6.019
16946TIP3    H150760   8.251   0.672   6.037
16946TIP3    H250761   8.151   0.563   6.007
16947TIP3   OH250762   0.729   0.195   5.703
16947TIP3    H150763   0.706   0.169   5.613
16947TIP3    H250764   0.771   0.117   5.740
16948TIP3   OH250765   6.721   8.308   5.727
16948TIP3    H150766   6.779   8.241   5.762
16948TIP3    H250767   6.635   8.267   5.725
16949TIP3   OH250768   5.557   8.315   6.985
16949TIP3    H150769   5.637   8.262   6.982
16949TIP3    H250770   5.587   8.402   7.011
16950TIP3   OH250771   5.368   8.105   6.576
16950TIP3    H150772   5.282   8.081   6.610
16950TIP3    H250773   5.350   8.153   6.495
16951TIP3   OH250774   5.682   7.993   6.750
16951TIP3    H150775   5.591   7.964   6.746
16951TIP3    H250776   5.733   7.913   6.735
16952TIP3   OH250777   5.512   7.908   6.431
16952TIP3    H150778   5.530   7.951   6.347
16952TIP3    H250779   5.467   7.975   6.483
16953TIP3   OH250780   6.150   8.062   6.651
16953TIP3    H150781   6.235   8.068   6.696
16953TIP3    H250782   6.093   8.120   6.700
16954TIP3   OH250783   6.694   8.097   6.186
16954TIP3    H150784   6.609   8.141   6.182
16954TIP3    H250785   6.680   8.022   6.242
16955TIP3   OH250786   8.200   0.913   6.211
16955TIP3    H150787   8.107   0.930   6.196
16955TIP3    H250788   8.236   0.998   6.240
16956TIP3   OH250789   5.603   8.020   6.185
16956TIP3    H150790   5.646   7.956   6.128
16956TIP3    H250791   5.674   8.075   6.218
16957TIP3   OH250792   6.083   8.238   6.310
16957TIP3    H150793   6.122   8.219   6.395
16957TIP3    H250794   6.046   8.326   6.320
16958TIP3   OH250795   8.200   0.984   5.941
16958TIP3    H150796   8.261   1.056   5.958
16958TIP3    H250797   8.213   0.924   6.014
16959TIP3   OH250798   0.508   8.337   1.639
16959TIP3    H150799   0.506   8.430   1.663
16959TIP3    H250800   0.601   8.319   1.623
16960TIP3   OH250801   3.010   0.194   1.800
16960TIP3    H150802   3.051   0.114   1.767
16960TIP3    H250803   3.083   0.252   1.822
16961TIP3   OH250804   0.263   7.731   1.797
16961TIP3    H150805   0.237   7.755   1.708
16961TIP3    H250806   0.348   7.773   1.809
16962TIP3   OH250807   0.793   7.604   1.929
16962TIP3    H150808   0.715   7.569   1.886
16962TIP3    H250809   0.784   7.699   1.922
16963TIP3   OH250810   0.189   8.148   1.844
16963TIP3    H150811   0.217   8.130   1.934
16963TIP3    H250812   0.101   8.110   1.838
16964TIP3   OH250813   3.471   0.212   1.694
16964TIP3    H150814   3.527   0.283   1.664
16964TIP3    H250815   3.393   0.255   1.728
16965TIP3   OH250816   8.549   8.109   1.883
16965TIP3    H150817   8.533   8.027   1.838
16965TIP3    H250818   8.490   8.107   1.958
16966TIP3   OH250819   8.623   8.336   1.748
16966TIP3    H150820   8.599   8.261   1.802
16966TIP3    H250821   8.703   8.309   1.703
16967TIP3   OH250822   0.170   8.375   1.675
16967TIP3    H150823   0.212   8.313   1.734
16967TIP3    H250824   0.227   8.377   1.598
16968TIP3   OH250825   8.832   8.044   1.811
16968TIP3    H150826   8.746   8.053   1.850
16968TIP3    H250827   8.836   7.953   1.780
16969TIP3   OH250828   0.502   7.873   1.723
16969TIP3    H150829   0.490   7.826   1.641
16969TIP3    H250830   0.466   7.960   1.706
16970TIP3   OH250831   2.477   0.312   1.955
16970TIP3    H150832   2.562   0.270   1.964
16970TIP3    H250833   2.466   0.323   1.860
16971TIP3   OH250834   0.737   7.870   1.866
16971TIP3    H150835   0.658   7.865   1.812
16971TIP3    H250836   0.715   7.931   1.936
16972TIP3   OH250837   0.566   7.524   1.798
16972TIP3    H150838   0.506   7.541   1.725
16972TIP3    H250839   0.547   7.433   1.823
16973TIP3   OH250840   0.517   7.257   1.841
16973TIP3    H150841   0.586   7.212   1.793
16973TIP3    H250842   0.487   7.194   1.906
16974TIP3   OH250843   2.724   0.186   1.887
16974TIP3    H150844   2.818   0.202   1.872
16974TIP3    H250845   2.706   0.105   1.840
16975TIP3   OH250846   4.765   0.381   1.270
16975TIP3    H150847   4.836   0.331   1.230
16975TIP3    H250848   4.808   0.457   1.308
16976TIP3   OH250849   1.693   8.323   1.498
16976TIP3    H150850   1.675   8.417   1.500
16976TIP3    H250851   1.614   8.283   1.534
16977TIP3   OH250852   0.976   7.797   1.736
16977TIP3    H150853   1.019   7.882   1.742
16977TIP3    H250854   0.892   7.810   1.781
16978TIP3   OH250855   4.264   0.078   1.258
16978TIP3    H150856   4.287  -0.004   1.215
16978TIP3    H250857   4.261   0.056   1.352
16979TIP3   OH250858   1.312   8.357   1.512
16979TIP3    H150859   1.367   8.279   1.510
16979TIP3    H250860   1.318   8.389   1.602
16980TIP3   OH250861   1.001   8.081   1.791
16980TIP3    H150862   0.907   8.091   1.803
16980TIP3    H250863   1.025   8.144   1.723
16981TIP3   OH250864   4.563   0.258   1.715
16981TIP3    H150865   4.502   0.294   1.778
16981TIP3    H250866   4.509   0.238   1.638
16982TIP3   OH250867   4.184   0.318   1.674
16982TIP3    H150868   4.182   0.394   1.615
16982TIP3    H250869   4.246   0.344   1.743
16983TIP3   OH250870   1.040   8.262   1.591
16983TIP3    H150871   1.051   8.348   1.549
16983TIP3    H250872   1.096   8.203   1.541
16984TIP3   OH250873   1.005   7.503   1.712
16984TIP3    H150874   1.004   7.597   1.693
16984TIP3    H250875   0.951   7.495   1.791
16985TIP3   OH250876   4.506   0.203   1.159
16985TIP3    H150877   4.460   0.135   1.208
16985TIP3    H250878   4.587   0.162   1.131
16986TIP3   OH250879   4.956   0.237   1.117
16986TIP3    H150880   5.030   0.239   1.177
16986TIP3    H250881   4.994   0.221   1.031
16987TIP3   OH250882   1.173   8.065   1.451
16987TIP3    H150883   1.209   8.003   1.514
16987TIP3    H250884   1.247   8.086   1.394
16988TIP3   OH250885   1.843   8.312   1.271
16988TIP3    H150886   1.800   8.318   1.357
16988TIP3    H250887   1.802   8.236   1.229
16989TIP3   OH250888   4.245   0.500   1.461
16989TIP3    H150889   4.332   0.504   1.422
16989TIP3    H250890   4.199   0.576   1.425
16990TIP3   OH250891   0.766   8.262   1.571
16990TIP3    H150892   0.858   8.275   1.593
16990TIP3    H250893   0.760   8.169   1.550
16991TIP3   OH250894   4.485   0.449   1.344
16991TIP3    H150895   4.544   0.523   1.360
16991TIP3    H250896   4.534   0.392   1.284
16992TIP3   OH250897   3.781   0.244   1.471
16992TIP3    H150898   3.781   0.260   1.566
16992TIP3    H250899   3.852   0.181   1.457
16993TIP3   OH250900   1.319   1.554   1.751
16993TIP3    H150901   1.332   1.646   1.774
16993TIP3    H250902   1.408   1.519   1.744
16994TIP3   OH250903   1.353   1.818   1.820
16994TIP3    H150904   1.414   1.890   1.809
16994TIP3    H250905   1.277   1.856   1.863
16995TIP3   OH250906   1.049   1.536   1.823
16995TIP3    H150907   1.048   1.596   1.897
16995TIP3    H250908   1.136   1.546   1.785
16996TIP3   OH250909   1.350   1.040   1.763
16996TIP3    H150910   1.300   1.000   1.835
16996TIP3    H250911   1.317   1.130   1.758
16997TIP3   OH250912   2.548   0.984   1.616
16997TIP3    H150913   2.614   1.026   1.671
16997TIP3    H250914   2.597   0.923   1.562
16998TIP3   OH250915   2.785   1.088   1.697
16998TIP3    H150916   2.794   1.173   1.740
16998TIP3    H250917   2.793   1.107   1.604
16999TIP3   OH250918   3.256   0.368   1.787
16999TIP3    H150919   3.295   0.418   1.858
16999TIP3    H250920   3.246   0.431   1.715
17000TIP3   OH250921   3.012   1.745   1.284
17000TIP3    H150922   3.046   1.819   1.235
17000TIP3    H250923   3.090   1.699   1.315
17001TIP3   OH250924   2.565   1.917   1.449
17001TIP3    H150925   2.645   1.891   1.404
17001TIP3    H250926   2.595   1.970   1.523
17002TIP3   OH250927   2.799   1.155   1.434
17002TIP3    H150928   2.781   1.125   1.345
17002TIP3    H250929   2.877   1.210   1.426
17003TIP3   OH250930   2.590   0.587   1.790
17003TIP3    H150931   2.510   0.621   1.831
17003TIP3    H250932   2.565   0.501   1.756
17004TIP3   OH250933   2.274   0.587   1.749
17004TIP3    H150934   2.258   0.555   1.837
17004TIP3    H250935   2.190   0.622   1.720
17005TIP3   OH250936   2.078   0.872   1.823
17005TIP3    H150937   2.061   0.807   1.755
17005TIP3    H250938   2.159   0.915   1.797
17006TIP3   OH250939   2.812   0.696   1.677
17006TIP3    H150940   2.737   0.662   1.726
17006TIP3    H250941   2.856   0.754   1.738
17007TIP3   OH250942   2.928   0.894   1.834
17007TIP3    H150943   2.965   0.951   1.901
17007TIP3    H250944   2.880   0.953   1.776
17008TIP3   OH250945   2.432   1.473   1.733
17008TIP3    H150946   2.429   1.548   1.674
17008TIP3    H250947   2.397   1.401   1.682
17009TIP3   OH250948   3.347   1.061   1.652
17009TIP3    H150949   3.259   1.097   1.664
17009TIP3    H250950   3.405   1.137   1.648
17010TIP3   OH250951   1.673   1.058   1.861
17010TIP3    H150952   1.717   1.131   1.905
17010TIP3    H250953   1.719   0.980   1.892
17011TIP3   OH250954   2.752   1.494   1.439
17011TIP3    H150955   2.800   1.440   1.501
17011TIP3    H250956   2.662   1.462   1.443
17012TIP3   OH250957   3.155   2.176   1.390
17012TIP3    H150958   3.238   2.199   1.349
17012TIP3    H250959   3.176   2.100   1.445
17013TIP3   OH250960   2.222   1.502   1.478
17013TIP3    H150961   2.195   1.416   1.446
17013TIP3    H250962   2.174   1.514   1.560
17014TIP3   OH250963   2.085   1.532   1.716
17014TIP3    H150964   2.126   1.518   1.801
17014TIP3    H250965   2.104   1.624   1.695
17015TIP3   OH250966   1.813   1.276   1.964
17015TIP3    H150967   1.869   1.312   2.033
17015TIP3    H250968   1.824   1.337   1.891
17016TIP3   OH250969   2.418   1.815   1.842
17016TIP3    H150970   2.337   1.830   1.891
17016TIP3    H250971   2.390   1.763   1.767
17017TIP3   OH250972   2.017   1.909   1.831
17017TIP3    H150973   1.972   1.960   1.764
17017TIP3    H250974   2.064   1.974   1.883
17018TIP3   OH250975   2.254   0.471   1.998
17018TIP3    H150976   2.264   0.511   2.085
17018TIP3    H250977   2.326   0.408   1.993
17019TIP3   OH250978   1.831   1.432   1.735
17019TIP3    H150979   1.902   1.497   1.738
17019TIP3    H250980   1.864   1.362   1.680
17020TIP3   OH250981   1.801   0.812   1.848
17020TIP3    H150982   1.895   0.827   1.860
17020TIP3    H250983   1.793   0.717   1.835
17021TIP3   OH250984   2.288   1.737   1.348
17021TIP3    H150985   2.253   1.658   1.389
17021TIP3    H250986   2.370   1.709   1.307
17022TIP3   OH250987   2.735   1.761   1.269
17022TIP3    H150988   2.819   1.749   1.314
17022TIP3    H250989   2.758   1.777   1.178
17023TIP3   OH250990   1.967   1.237   1.600
17023TIP3    H150991   2.013   1.220   1.682
17023TIP3    H250992   2.036   1.244   1.534
17024TIP3   OH250993   2.485   1.429   1.426
17024TIP3    H150994   2.396   1.455   1.449
17024TIP3    H250995   2.480   1.333   1.418
17025TIP3   OH250996   2.121   1.173   1.819
17025TIP3    H150997   2.084   1.110   1.881
17025TIP3    H250998   2.191   1.125   1.774
17026TIP3   OH250999   2.283   0.999   1.682
17026TIP3    H151000   2.255   0.995   1.590
17026TIP3    H251001   2.378   0.989   1.678
17027TIP3   OH251002   3.001   1.310   1.344
17027TIP3    H151003   3.026   1.248   1.275
17027TIP3    H251004   2.969   1.387   1.296
17028TIP3   OH251005   2.032   2.061   1.595
17028TIP3    H151006   2.117   2.027   1.567
17028TIP3    H251007   1.993   2.097   1.514
17029TIP3   OH251008   1.559   1.419   1.735
17029TIP3    H151009   1.653   1.438   1.742
17029TIP3    H251010   1.547   1.340   1.789
17030TIP3   OH251011   3.252   1.280   1.489
17030TIP3    H151012   3.206   1.286   1.405
17030TIP3    H251013   3.297   1.363   1.498
17031TIP3   OH251014   3.080   0.941   1.506
17031TIP3    H151015   3.169   0.957   1.476
17031TIP3    H251016   3.061   0.852   1.477
17032TIP3   OH251017   3.075   0.671   1.426
17032TIP3    H151018   3.140   0.637   1.488
17032TIP3    H251019   3.001   0.611   1.434
17033TIP3   OH251020   3.267   0.587   1.612
17033TIP3    H151021   3.347   0.586   1.560
17033TIP3    H251022   3.278   0.661   1.672
17034TIP3   OH251023   2.024   0.392   1.850
17034TIP3    H151024   2.063   0.313   1.814
17034TIP3    H251025   2.086   0.422   1.916
17035TIP3   OH251026   2.273   1.975   1.505
17035TIP3    H151027   2.327   2.054   1.498
17035TIP3    H251028   2.300   1.921   1.430
17036TIP3   OH251029   1.689   1.852   1.620
17036TIP3    H151030   1.694   1.854   1.716
17036TIP3    H251031   1.767   1.804   1.593
17037TIP3   OH251032   4.335   0.800   1.409
17037TIP3    H151033   4.310   0.891   1.394
17037TIP3    H251034   4.310   0.755   1.328
17038TIP3   OH251035   4.102   0.857   1.239
17038TIP3    H151036   4.081   0.834   1.329
17038TIP3    H251037   4.070   0.947   1.229
17039TIP3   OH251038   3.572   0.905   1.651
17039TIP3    H151039   3.617   0.888   1.568
17039TIP3    H251040   3.494   0.954   1.626
17040TIP3   OH251041   3.988   1.090   1.358
17040TIP3    H151042   3.913   1.085   1.299
17040TIP3    H251043   4.018   1.181   1.350
17041TIP3   OH251044   3.478   1.181   1.360
17041TIP3    H151045   3.560   1.228   1.349
17041TIP3    H251046   3.427   1.236   1.420
17042TIP3   OH251047   4.017   0.859   1.506
17042TIP3    H151048   4.008   0.952   1.482
17042TIP3    H251049   4.063   0.861   1.590
17043TIP3   OH251050   3.614   0.937   1.360
17043TIP3    H151051   3.629   1.029   1.380
17043TIP3    H251052   3.518   0.928   1.361
17044TIP3   OH251053   3.724   1.614   1.133
17044TIP3    H151054   3.806   1.587   1.174
17044TIP3    H251055   3.744   1.616   1.039
17045TIP3   OH251056   4.216   1.124   1.128
17045TIP3    H151057   4.158   1.167   1.066
17045TIP3    H251058   4.304   1.136   1.092
17046TIP3   OH251059   3.415   1.677   1.237
17046TIP3    H151060   3.483   1.694   1.302
17046TIP3    H251061   3.341   1.643   1.288
17047TIP3   OH251062   3.615   0.441   1.654
17047TIP3    H151063   3.559   0.483   1.588
17047TIP3    H251064   3.650   0.514   1.705
17048TIP3   OH251065   3.776   0.734   1.528
17048TIP3    H151066   3.788   0.655   1.476
17048TIP3    H251067   3.856   0.784   1.513
17049TIP3   OH251068   0.421   2.620   1.759
17049TIP3    H151069   0.484   2.658   1.820
17049TIP3    H251070   0.472   2.558   1.707
17050TIP3   OH251071   0.663   2.716   1.874
17050TIP3    H151072   0.686   2.804   1.906
17050TIP3    H251073   0.685   2.718   1.781
17051TIP3   OH251074   1.132   1.946   1.931
17051TIP3    H151075   1.114   1.985   2.016
17051TIP3    H251076   1.140   2.021   1.871
17052TIP3   OH251077   0.922   3.286   1.396
17052TIP3    H151078   0.942   3.377   1.418
17052TIP3    H251079   1.007   3.242   1.396
17053TIP3   OH251080   0.715   2.715   1.606
17053TIP3    H151081   0.665   2.716   1.525
17053TIP3    H251082   0.796   2.761   1.586
17054TIP3   OH251083   0.466   2.145   1.912
17054TIP3    H151084   0.402   2.187   1.969
17054TIP3    H251085   0.420   2.067   1.879
17055TIP3   OH251086   0.668   2.298   1.810
17055TIP3    H151087   0.597   2.256   1.858
17055TIP3    H251088   0.710   2.355   1.874
17056TIP3   OH251089   0.789   2.487   1.968
17056TIP3    H151090   0.880   2.509   1.951
17056TIP3    H251091   0.740   2.567   1.948
17057TIP3   OH251092   1.178   2.549   1.750
17057TIP3    H151093   1.105   2.511   1.701
17057TIP3    H251094   1.167   2.643   1.742
17058TIP3   OH251095   0.193   2.462   1.790
17058TIP3    H151096   0.135   2.508   1.729
17058TIP3    H251097   0.268   2.521   1.799
17059TIP3   OH251098   0.907   2.855   1.468
17059TIP3    H151099   0.892   2.819   1.381
17059TIP3    H251100   0.860   2.939   1.468
17060TIP3   OH251101   1.112   2.797   1.633
17060TIP3    H151102   1.038   2.800   1.573
17060TIP3    H251103   1.103   2.876   1.686
17061TIP3   OH251104   0.971   2.453   1.601
17061TIP3    H151105   0.926   2.478   1.520
17061TIP3    H251106   0.967   2.358   1.602
17062TIP3   OH251107   0.962   2.178   1.586
17062TIP3    H151108   1.028   2.162   1.654
17062TIP3    H251109   0.887   2.125   1.613
17063TIP3   OH251110   1.182   2.146   1.750
17063TIP3    H151111   1.231   2.088   1.692
17063TIP3    H251112   1.239   2.222   1.761
17064TIP3   OH251113   2.160   2.846   1.231
17064TIP3    H151114   2.157   2.871   1.324
17064TIP3    H251115   2.242   2.882   1.199
17065TIP3   OH251116   2.940   2.231   1.548
17065TIP3    H151117   2.957   2.322   1.572
17065TIP3    H251118   3.015   2.205   1.495
17066TIP3   OH251119   2.136   2.356   1.496
17066TIP3    H151120   2.228   2.329   1.495
17066TIP3    H251121   2.092   2.292   1.440
17067TIP3   OH251122   1.844   2.341   1.364
17067TIP3    H151123   1.847   2.368   1.455
17067TIP3    H251124   1.763   2.380   1.330
17068TIP3   OH251125   1.369   2.358   1.749
17068TIP3    H151126   1.411   2.386   1.668
17068TIP3    H251127   1.296   2.419   1.761
17069TIP3   OH251128   1.760   2.603   1.453
17069TIP3    H151129   1.706   2.560   1.387
17069TIP3    H251130   1.831   2.644   1.403
17070TIP3   OH251131   2.476   2.511   1.419
17070TIP3    H151132   2.402   2.511   1.358
17070TIP3    H251133   2.545   2.560   1.373
17071TIP3   OH251134   1.305   2.737   1.446
17071TIP3    H151135   1.382   2.791   1.463
17071TIP3    H251136   1.245   2.756   1.518
17072TIP3   OH251137   1.758   3.351   1.196
17072TIP3    H151138   1.841   3.390   1.168
17072TIP3    H251139   1.767   3.342   1.291
17073TIP3   OH251140   1.592   3.035   1.595
17073TIP3    H151141   1.531   2.966   1.622
17073TIP3    H251142   1.538   3.097   1.545
17074TIP3   OH251143   1.805   2.397   1.632
17074TIP3    H151144   1.786   2.487   1.607
17074TIP3    H251145   1.851   2.404   1.716
17075TIP3   OH251146   1.458   3.216   1.427
17075TIP3    H151147   1.497   3.303   1.416
17075TIP3    H251148   1.481   3.169   1.347
17076TIP3   OH251149   1.459   2.507   1.536
17076TIP3    H151150   1.520   2.567   1.578
17076TIP3    H251151   1.391   2.564   1.500
17077TIP3   OH251152   2.078   3.655   0.934
17077TIP3    H151153   2.014   3.645   1.005
17077TIP3    H251154   2.141   3.584   0.949
17078TIP3   OH251155   1.595   3.038   1.267
17078TIP3    H151156   1.588   2.963   1.326
17078TIP3    H251157   1.677   3.024   1.220
17079TIP3   OH251158   2.212   3.250   1.129
17079TIP3    H151159   2.265   3.329   1.140
17079TIP3    H251160   2.276   3.178   1.134
17080TIP3   OH251161   1.846   2.908   1.504
17080TIP3    H151162   1.752   2.909   1.522
17080TIP3    H251163   1.854   2.856   1.424
17081TIP3   OH251164   1.912   2.743   1.279
17081TIP3    H151165   1.874   2.743   1.191
17081TIP3    H251166   2.003   2.770   1.266
17082TIP3   OH251167   1.173   3.176   1.404
17082TIP3    H151168   1.255   3.225   1.402
17082TIP3    H251169   1.187   3.102   1.345
17083TIP3   OH251170   2.713   2.602   1.137
17083TIP3    H151171   2.801   2.575   1.111
17083TIP3    H251172   2.666   2.520   1.150
17084TIP3   OH251173   1.489   2.100   1.781
17084TIP3    H151174   1.543   2.101   1.702
17084TIP3    H251175   1.446   2.186   1.781
17085TIP3   OH251176   1.643   2.188   1.560
17085TIP3    H151177   1.692   2.137   1.496
17085TIP3    H251178   1.696   2.266   1.574
17086TIP3   OH251179   1.312   3.640   1.141
17086TIP3    H151180   1.295   3.678   1.227
17086TIP3    H251181   1.399   3.601   1.148
   8.90000   8.39100   7.26682   0.00000   0.00000  -2.96667   0.00000  -2.96667  -4.19550
