Title t= 195.00000 step= 97500
29212
    1ASP      N    1   2.203   2.400   4.985
    1ASP    HT1    2   2.186   2.315   5.042
    1ASP    HT2    3   2.131   2.470   5.012
    1ASP    HT3    4   2.294   2.445   5.007
    1ASP     CA    5   2.200   2.364   4.833
    1ASP     HA    6   2.244   2.266   4.827
    1ASP     CB    7   2.055   2.369   4.788
    1ASP    HB1    8   2.044   2.318   4.690
    1ASP    HB2    9   2.007   2.468   4.775
    1ASP     CG   10   1.960   2.296   4.883
    1ASP    OD1   11   2.008   2.196   4.947
    1ASP    OD2   12   1.834   2.317   4.868
    1ASP      C   13   2.292   2.459   4.749
    1ASP      O   14   2.349   2.550   4.804
    2GLY      N   15   2.309   2.432   4.617
    2GLY     HN   16   2.270   2.344   4.591
    2GLY     CA   17   2.397   2.514   4.530
    2GLY    HA1   18   2.422   2.458   4.442
    2GLY    HA2   19   2.485   2.527   4.591
    2GLY      C   20   2.350   2.654   4.496
    2GLY      O   21   2.242   2.704   4.528
    3ASP      N   22   2.449   2.718   4.439
    3ASP     HN   23   2.532   2.666   4.421
    3ASP     CA   24   2.442   2.861   4.409
    3ASP     HA   25   2.399   2.902   4.498
    3ASP     CB   26   2.584   2.890   4.369
    3ASP    HB1   27   2.589   2.988   4.317
    3ASP    HB2   28   2.629   2.816   4.299
    3ASP     CG   29   2.673   2.899   4.487
    3ASP    OD1   30   2.626   2.903   4.604
    3ASP    OD2   31   2.799   2.905   4.473
    3ASP      C   32   2.350   2.898   4.301
    3ASP      O   33   2.302   2.820   4.223
    4GLY      N   34   2.315   3.033   4.297
    4GLY     HN   35   2.341   3.089   4.375
    4GLY     CA   36   2.219   3.091   4.208
    4GLY    HA1   37   2.194   3.185   4.255
    4GLY    HA2   38   2.133   3.027   4.189
    4GLY      C   39   2.275   3.126   4.072
    4GLY      O   40   2.387   3.087   4.028
    5PRO      N   41   2.205   3.207   3.993
    5PRO     CD   42   2.070   3.232   4.024
    5PRO    HD1   43   2.072   3.301   4.112
    5PRO    HD2   44   2.003   3.145   4.038
    5PRO     CA   45   2.266   3.294   3.893
    5PRO     HA   46   2.294   3.223   3.816
    5PRO     CB   47   2.148   3.388   3.864
    5PRO    HB1   48   2.151   3.421   3.758
    5PRO    HB2   49   2.157   3.476   3.931
    5PRO     CG   50   2.019   3.320   3.910
    5PRO    HG1   51   1.937   3.391   3.933
    5PRO    HG2   52   1.994   3.248   3.829
    5PRO      C   53   2.383   3.377   3.943
    5PRO      O   54   2.387   3.442   4.046
    6GLY      N   55   2.484   3.391   3.864
    6GLY     HN   56   2.478   3.341   3.778
    6GLY     CA   57   2.606   3.466   3.888
    6GLY    HA1   58   2.678   3.390   3.863
    6GLY    HA2   59   2.611   3.514   3.985
    6GLY      C   60   2.630   3.579   3.790
    6GLY      O   61   2.540   3.630   3.722
    7ASP      N   62   2.758   3.627   3.794
    7ASP     HN   63   2.830   3.581   3.846
    7ASP     CA   64   2.816   3.739   3.715
    7ASP     HA   65   2.766   3.829   3.749
    7ASP     CB   66   2.975   3.742   3.732
    7ASP    HB1   67   3.016   3.828   3.675
    7ASP    HB2   68   3.013   3.647   3.689
    7ASP     CG   69   3.023   3.759   3.869
    7ASP    OD1   70   2.961   3.836   3.951
    7ASP    OD2   71   3.135   3.712   3.893
    7ASP      C   72   2.800   3.733   3.556
    7ASP      O   73   2.794   3.621   3.507
    8PRO      N   74   2.779   3.844   3.478
    8PRO     CD   75   2.781   3.979   3.523
    8PRO    HD1   76   2.877   4.008   3.572
    8PRO    HD2   77   2.699   3.994   3.597
    8PRO     CA   78   2.777   3.832   3.330
    8PRO     HA   79   2.679   3.790   3.311
    8PRO     CB   80   2.795   3.983   3.283
    8PRO    HB1   81   2.740   3.999   3.188
    8PRO    HB2   82   2.903   4.001   3.267
    8PRO     CG   83   2.744   4.066   3.406
    8PRO    HG1   84   2.790   4.167   3.414
    8PRO    HG2   85   2.636   4.081   3.386
    8PRO      C   86   2.870   3.736   3.258
    8PRO      O   87   2.990   3.746   3.279
    9GLY      N   88   2.818   3.647   3.177
    9GLY     HN   89   2.721   3.654   3.159
    9GLY     CA   90   2.890   3.559   3.078
    9GLY    HA1   91   2.822   3.509   3.011
    9GLY    HA2   92   2.943   3.486   3.137
    9GLY      C   93   2.990   3.629   2.987
    9GLY      O   94   2.972   3.745   2.959
   10ASP      N   95   3.084   3.553   2.919
   10ASP     HN   96   3.100   3.455   2.932
   10ASP     CA   97   3.186   3.606   2.835
   10ASP     HA   98   3.239   3.679   2.893
   10ASP     CB   99   3.291   3.495   2.795
   10ASP    HB1  100   3.347   3.524   2.703
   10ASP    HB2  101   3.235   3.409   2.752
   10ASP     CG  102   3.378   3.449   2.905
   10ASP    OD1  103   3.402   3.530   3.003
   10ASP    OD2  104   3.453   3.345   2.888
   10ASP      C  105   3.133   3.673   2.703
   10ASP      O  106   3.073   3.610   2.611
   11GLY      N  107   3.158   3.804   2.691
   11GLY     HN  108   3.212   3.847   2.762
   11GLY     CA  109   3.090   3.886   2.604
   11GLY    HA1  110   3.088   3.980   2.656
   11GLY    HA2  111   2.993   3.843   2.585
   11GLY      C  112   3.147   3.916   2.461
   11GLY    OT1  113   3.256   3.863   2.429
   11GLY    OT2  114   3.093   4.003   2.388
   12SOD    SOD  115   4.213   0.549   2.081
   13SOD    SOD  116   0.230   1.363   0.952
   14SOD    SOD  117   3.210   0.307   2.740
   15SOD    SOD  118   0.039   0.399   3.035
   16SOD    SOD  119   3.795   1.418   3.920
   17SOD    SOD  120   2.043   3.697   5.049
   18SOD    SOD  121   6.466   1.860   1.286
   19SOD    SOD  122   4.952   0.408   4.796
   20SOD    SOD  123   5.479   1.667   4.556
   21SOD    SOD  124   0.215   1.654  -0.004
   22SOD    SOD  125   6.598   0.919   4.882
   23SOD    SOD  126   3.926   1.141   2.681
   24SOD    SOD  127   2.585   1.182   5.373
   25SOD    SOD  128   2.457   4.181   1.331
   26SOD    SOD  129   3.651   6.133   3.129
   27SOD    SOD  130   3.884   2.890   3.973
   28SOD    SOD  131   5.614   2.524   3.774
   29SOD    SOD  132   0.724   2.253   3.073
   30SOD    SOD  133   3.791   0.977   4.481
   31SOD    SOD  134   2.319   6.547   3.890
   32SOD    SOD  135   3.360   4.123   2.059
   33SOD    SOD  136   0.950   3.619   2.907
   34SOD    SOD  137   0.039   0.664   2.585
   35SOD    SOD  138   3.522   2.894   1.835
   36SOD    SOD  139   5.253   2.889   4.932
   37SOD    SOD  140   3.907   4.563   0.682
   38SOD    SOD  141   1.025   5.046   4.854
   39SOD    SOD  142   7.177   4.169   3.478
   40SOD    SOD  143   4.543   0.839   0.950
   41SOD    SOD  144   0.424   3.831   2.109
   42SOD    SOD  145   5.688   4.421   5.493
   43CLA    CLA  146   1.011   4.725   4.540
   44CLA    CLA  147   3.531   0.589   4.710
   45CLA    CLA  148   6.792   0.979   5.562
   46CLA    CLA  149   4.953   3.806   4.144
   47CLA    CLA  150   2.877   0.345   1.231
   48CLA    CLA  151   4.276   0.702   4.107
   49CLA    CLA  152   6.596   2.805   5.179
   50CLA    CLA  153   3.030   6.159   4.128
   51CLA    CLA  154   6.234   5.202   3.939
   52CLA    CLA  155   1.832   2.770   3.161
   53CLA    CLA  156   1.466   4.351   0.779
   54CLA    CLA  157   5.017   4.419   3.164
   55CLA    CLA  158   0.776   0.277   2.767
   56CLA    CLA  159  -0.040   2.341   0.167
   57CLA    CLA  160   2.432   4.655   2.203
   58CLA    CLA  161   4.032   2.406   2.664
   59CLA    CLA  162   6.960   3.194   2.191
   60CLA    CLA  163   2.311   1.223   4.951
   61CLA    CLA  164   5.948   2.983   1.356
   62CLA    CLA  165   4.998   2.412   2.274
   63CLA    CLA  166   0.364   2.969   3.984
   64CLA    CLA  167   4.169   6.306   1.192
   65CLA    CLA  168   3.834   0.425   3.167
   66CLA    CLA  169   0.248   5.097   2.697
   67CLA    CLA  170   0.935   1.731   1.928
   68CLA    CLA  171   5.895   0.266   0.825
   69CLA    CLA  172   4.717   1.602   3.187
   70TIP3   OH2  173   3.161   5.486   4.721
   70TIP3    H1  174   3.142   5.416   4.783
   70TIP3    H2  175   3.257   5.494   4.723
   71TIP3   OH2  176   2.135   6.337   0.805
   71TIP3    H1  177   2.108   6.277   0.735
   71TIP3    H2  178   2.160   6.417   0.759
   72TIP3   OH2  179   4.508   4.402   5.765
   72TIP3    H1  180   4.469   4.347   5.833
   72TIP3    H2  181   4.602   4.401   5.784
   73TIP3   OH2  182   5.425   6.717   5.554
   73TIP3    H1  183   5.487   6.650   5.583
   73TIP3    H2  184   5.363   6.671   5.498
   74TIP3   OH2  185   3.204   6.438   5.185
   74TIP3    H1  186   3.181   6.530   5.199
   74TIP3    H2  187   3.189   6.424   5.091
   75TIP3   OH2  188   2.252   5.072   1.522
   75TIP3    H1  189   2.294   5.088   1.607
   75TIP3    H2  190   2.249   4.977   1.514
   76TIP3   OH2  191   4.984   5.152   0.075
   76TIP3    H1  192   5.032   5.138   0.156
   76TIP3    H2  193   4.900   5.187   0.103
   77TIP3   OH2  194   1.617   3.711   0.444
   77TIP3    H1  195   1.708   3.685   0.460
   77TIP3    H2  196   1.590   3.756   0.524
   78TIP3   OH2  197   4.416   1.328   0.471
   78TIP3    H1  198   4.438   1.359   0.383
   78TIP3    H2  199   4.364   1.249   0.456
   79TIP3   OH2  200   4.549   3.260   5.823
   79TIP3    H1  201   4.457   3.289   5.820
   79TIP3    H2  202   4.547   3.172   5.785
   80TIP3   OH2  203   1.728   1.521   3.396
   80TIP3    H1  204   1.781   1.558   3.325
   80TIP3    H2  205   1.775   1.544   3.476
   81TIP3   OH2  206   1.221   0.221   0.270
   81TIP3    H1  207   1.263   0.285   0.328
   81TIP3    H2  208   1.154   0.270   0.223
   82TIP3   OH2  209   1.538   2.919   4.862
   82TIP3    H1  210   1.457   2.962   4.889
   82TIP3    H2  211   1.509   2.853   4.799
   83TIP3   OH2  212   7.019   0.402   1.670
   83TIP3    H1  213   7.029   0.453   1.750
   83TIP3    H2  214   7.064   0.319   1.689
   84TIP3   OH2  215   1.373   4.261   3.918
   84TIP3    H1  216   1.462   4.294   3.919
   84TIP3    H2  217   1.383   4.166   3.908
   85TIP3   OH2  218   3.558   6.451   1.273
   85TIP3    H1  219   3.483   6.458   1.332
   85TIP3    H2  220   3.558   6.533   1.224
   86TIP3   OH2  221   3.442   5.663   0.011
   86TIP3    H1  222   3.409   5.688   0.097
   86TIP3    H2  223   3.418   5.737  -0.046
   87TIP3   OH2  224   4.289   2.474   4.661
   87TIP3    H1  225   4.350   2.421   4.610
   87TIP3    H2  226   4.335   2.555   4.678
   88TIP3   OH2  227   5.792   0.161   1.828
   88TIP3    H1  228   5.800   0.179   1.735
   88TIP3    H2  229   5.881   0.167   1.862
   89TIP3   OH2  230   4.474   5.057   4.539
   89TIP3    H1  231   4.489   5.071   4.446
   89TIP3    H2  232   4.378   5.055   4.547
   90TIP3   OH2  233   0.930   2.510   2.261
   90TIP3    H1  234   0.892   2.486   2.176
   90TIP3    H2  235   0.863   2.484   2.324
   91TIP3   OH2  236   0.841   2.308   1.096
   91TIP3    H1  237   0.899   2.359   1.041
   91TIP3    H2  238   0.772   2.278   1.037
   92TIP3   OH2  239   5.781   5.320   4.080
   92TIP3    H1  240   5.788   5.386   4.011
   92TIP3    H2  241   5.704   5.347   4.131
   93TIP3   OH2  242   0.595   1.313   0.176
   93TIP3    H1  243   0.664   1.363   0.132
   93TIP3    H2  244   0.538   1.284   0.105
   94TIP3   OH2  245   4.463   0.924   3.210
   94TIP3    H1  246   4.493   0.994   3.268
   94TIP3    H2  247   4.533   0.859   3.213
   95TIP3   OH2  248   1.480   2.007   3.921
   95TIP3    H1  249   1.385   2.015   3.912
   95TIP3    H2  250   1.492   1.971   4.009
   96TIP3   OH2  251   1.571   4.144   1.082
   96TIP3    H1  252   1.523   4.185   1.010
   96TIP3    H2  253   1.515   4.070   1.108
   97TIP3   OH2  254   0.843   2.654   0.771
   97TIP3    H1  255   0.913   2.687   0.714
   97TIP3    H2  256   0.775   2.624   0.710
   98TIP3   OH2  257   5.305   4.041   3.584
   98TIP3    H1  258   5.281   4.134   3.579
   98TIP3    H2  259   5.289   4.017   3.675
   99TIP3   OH2  260   4.466   0.705   2.467
   99TIP3    H1  261   4.490   0.613   2.473
   99TIP3    H2  262   4.509   0.746   2.542
  100TIP3   OH2  263   6.545   5.834   0.522
  100TIP3    H1  264   6.536   5.741   0.502
  100TIP3    H2  265   6.458   5.871   0.507
  101TIP3   OH2  266   5.052   5.750   5.576
  101TIP3    H1  267   5.111   5.790   5.639
  101TIP3    H2  268   5.043   5.815   5.507
  102TIP3   OH2  269   4.776   4.204   5.538
  102TIP3    H1  270   4.781   4.206   5.443
  102TIP3    H2  271   4.821   4.284   5.566
  103TIP3   OH2  272   2.663   0.252   1.023
  103TIP3    H1  273   2.736   0.281   1.078
  103TIP3    H2  274   2.596   0.225   1.086
  104TIP3   OH2  275   4.470   5.364   2.240
  104TIP3    H1  276   4.537   5.342   2.305
  104TIP3    H2  277   4.426   5.441   2.275
  105TIP3   OH2  278   4.745   1.917   0.584
  105TIP3    H1  279   4.782   1.993   0.628
  105TIP3    H2  280   4.811   1.849   0.594
  106TIP3   OH2  281   4.465   5.673   1.028
  106TIP3    H1  282   4.375   5.652   1.053
  106TIP3    H2  283   4.458   5.754   0.978
  107TIP3   OH2  284   0.808   5.840   5.265
  107TIP3    H1  285   0.737   5.903   5.254
  107TIP3    H2  286   0.765   5.754   5.265
  108TIP3   OH2  287   4.057   1.158   3.226
  108TIP3    H1  288   4.026   1.214   3.155
  108TIP3    H2  289   4.139   1.120   3.193
  109TIP3   OH2  290   1.984   3.266   1.367
  109TIP3    H1  291   1.977   3.232   1.456
  109TIP3    H2  292   2.034   3.199   1.320
  110TIP3   OH2  293   3.405   1.566   1.343
  110TIP3    H1  294   3.439   1.483   1.309
  110TIP3    H2  295   3.452   1.578   1.426
  111TIP3   OH2  296   3.570   1.475   1.976
  111TIP3    H1  297   3.611   1.420   2.041
  111TIP3    H2  298   3.501   1.521   2.023
  112TIP3   OH2  299   7.251   2.023   1.361
  112TIP3    H1  300   7.244   1.950   1.422
  112TIP3    H2  301   7.233   2.100   1.414
  113TIP3   OH2  302   2.613   0.956   5.790
  113TIP3    H1  303   2.669   0.989   5.861
  113TIP3    H2  304   2.663   0.883   5.752
  114TIP3   OH2  305   6.365   6.111   0.465
  114TIP3    H1  306   6.338   6.066   0.545
  114TIP3    H2  307   6.286   6.115   0.412
  115TIP3   OH2  308   3.705   2.395   2.376
  115TIP3    H1  309   3.652   2.413   2.454
  115TIP3    H2  310   3.646   2.348   2.318
  116TIP3   OH2  311   2.943   1.747   3.043
  116TIP3    H1  312   3.010   1.703   3.097
  116TIP3    H2  313   2.989   1.821   3.004
  117TIP3   OH2  314   1.947   3.218   4.369
  117TIP3    H1  315   2.019   3.231   4.431
  117TIP3    H2  316   1.903   3.303   4.366
  118TIP3   OH2  317   0.918   5.394   4.722
  118TIP3    H1  318   0.971   5.332   4.772
  118TIP3    H2  319   0.835   5.399   4.770
  119TIP3   OH2  320   5.581   2.099   4.314
  119TIP3    H1  321   5.581   2.098   4.218
  119TIP3    H2  322   5.670   2.073   4.338
  120TIP3   OH2  323   2.667   1.590   4.674
  120TIP3    H1  324   2.683   1.545   4.591
  120TIP3    H2  325   2.632   1.675   4.649
  121TIP3   OH2  326   2.133   0.861   5.439
  121TIP3    H1  327   2.152   0.910   5.359
  121TIP3    H2  328   2.109   0.773   5.408
  122TIP3   OH2  329   4.674   3.686   0.426
  122TIP3    H1  330   4.636   3.730   0.350
  122TIP3    H2  331   4.690   3.597   0.395
  123TIP3   OH2  332   6.462   5.535   0.503
  123TIP3    H1  333   6.483   5.455   0.553
  123TIP3    H2  334   6.394   5.578   0.554
  124TIP3   OH2  335   5.274   1.950   0.290
  124TIP3    H1  336   5.334   1.877   0.275
  124TIP3    H2  337   5.304   1.990   0.371
  125TIP3   OH2  338   3.730   3.464   4.669
  125TIP3    H1  339   3.708   3.514   4.590
  125TIP3    H2  340   3.659   3.401   4.679
  126TIP3   OH2  341   6.290   2.932   1.950
  126TIP3    H1  342   6.223   2.973   2.006
  126TIP3    H2  343   6.248   2.852   1.918
  127TIP3   OH2  344   3.462   3.339   1.687
  127TIP3    H1  345   3.544   3.386   1.703
  127TIP3    H2  346   3.397   3.390   1.736
  128TIP3   OH2  347   0.412   6.265   3.668
  128TIP3    H1  348   0.501   6.295   3.687
  128TIP3    H2  349   0.399   6.189   3.724
  129TIP3   OH2  350   2.176   2.617   0.432
  129TIP3    H1  351   2.168   2.584   0.522
  129TIP3    H2  352   2.228   2.697   0.441
  130TIP3   OH2  353   0.562   1.854   2.382
  130TIP3    H1  354   0.613   1.799   2.442
  130TIP3    H2  355   0.623   1.920   2.351
  131TIP3   OH2  356   7.000   6.451   0.830
  131TIP3    H1  357   6.954   6.399   0.764
  131TIP3    H2  358   7.068   6.497   0.781
  132TIP3   OH2  359   4.214   2.404   0.651
  132TIP3    H1  360   4.249   2.387   0.738
  132TIP3    H2  361   4.129   2.360   0.650
  133TIP3   OH2  362   4.074   1.539   5.454
  133TIP3    H1  363   4.126   1.619   5.451
  133TIP3    H2  364   4.059   1.516   5.362
  134TIP3   OH2  365   4.816   4.836   3.503
  134TIP3    H1  366   4.811   4.766   3.437
  134TIP3    H2  367   4.905   4.870   3.495
  135TIP3   OH2  368   1.458   4.941   5.337
  135TIP3    H1  369   1.534   4.993   5.363
  135TIP3    H2  370   1.416   4.993   5.268
  136TIP3   OH2  371   0.377   4.284   2.870
  136TIP3    H1  372   0.350   4.196   2.895
  136TIP3    H2  373   0.422   4.273   2.786
  137TIP3   OH2  374   1.233   5.918   0.707
  137TIP3    H1  375   1.256   5.853   0.773
  137TIP3    H2  376   1.147   5.951   0.734
  138TIP3   OH2  377   4.904   4.446   5.533
  138TIP3    H1  378   4.972   4.511   5.551
  138TIP3    H2  379   4.887   4.454   5.439
  139TIP3   OH2  380   0.967   6.046   4.817
  139TIP3    H1  381   0.977   5.995   4.897
  139TIP3    H2  382   1.000   6.133   4.840
  140TIP3   OH2  383   4.344   0.399   3.815
  140TIP3    H1  384   4.371   0.485   3.782
  140TIP3    H2  385   4.274   0.372   3.756
  141TIP3   OH2  386   3.258   4.070   3.514
  141TIP3    H1  387   3.251   4.027   3.429
  141TIP3    H2  388   3.345   4.047   3.545
  142TIP3   OH2  389   5.628   2.268   4.805
  142TIP3    H1  390   5.539   2.273   4.839
  142TIP3    H2  391   5.617   2.248   4.712
  143TIP3   OH2  392   2.713   4.847   3.727
  143TIP3    H1  393   2.753   4.760   3.721
  143TIP3    H2  394   2.761   4.900   3.663
  144TIP3   OH2  395   6.575   4.463   1.156
  144TIP3    H1  396   6.532   4.384   1.124
  144TIP3    H2  397   6.667   4.451   1.134
  145TIP3   OH2  398   5.782   3.248   1.765
  145TIP3    H1  399   5.699   3.272   1.725
  145TIP3    H2  400   5.842   3.237   1.692
  146TIP3   OH2  401   1.410   3.535   3.381
  146TIP3    H1  402   1.496   3.542   3.422
  146TIP3    H2  403   1.416   3.590   3.302
  147TIP3   OH2  404   3.367   2.836   1.649
  147TIP3    H1  405   3.357   2.931   1.652
  147TIP3    H2  406   3.289   2.805   1.602
  148TIP3   OH2  407   0.414   5.140   0.662
  148TIP3    H1  408   0.356   5.216   0.662
  148TIP3    H2  409   0.444   5.134   0.753
  149TIP3   OH2  410   5.842   2.529   2.838
  149TIP3    H1  411   5.866   2.619   2.857
  149TIP3    H2  412   5.842   2.523   2.742
  150TIP3   OH2  413   4.493   0.260   0.076
  150TIP3    H1  414   4.547   0.334   0.103
  150TIP3    H2  415   4.555   0.197   0.038
  151TIP3   OH2  416   3.006   0.969   2.100
  151TIP3    H1  417   2.983   0.957   2.008
  151TIP3    H2  418   2.944   1.034   2.132
  152TIP3   OH2  419   5.977   0.895   1.012
  152TIP3    H1  420   5.931   0.833   0.955
  152TIP3    H2  421   5.986   0.848   1.095
  153TIP3   OH2  422   6.474   4.683   3.790
  153TIP3    H1  423   6.558   4.730   3.793
  153TIP3    H2  424   6.413   4.740   3.837
  154TIP3   OH2  425   4.090   4.372   4.512
  154TIP3    H1  426   4.159   4.425   4.472
  154TIP3    H2  427   4.010   4.423   4.499
  155TIP3   OH2  428   1.072   2.724   2.353
  155TIP3    H1  429   1.088   2.760   2.266
  155TIP3    H2  430   1.005   2.658   2.340
  156TIP3   OH2  431   1.358   5.322   1.471
  156TIP3    H1  432   1.393   5.272   1.397
  156TIP3    H2  433   1.281   5.367   1.436
  157TIP3   OH2  434   4.577   1.393   5.340
  157TIP3    H1  435   4.551   1.484   5.349
  157TIP3    H2  436   4.530   1.347   5.409
  158TIP3   OH2  437   1.535   0.549   0.166
  158TIP3    H1  438   1.568   0.634   0.136
  158TIP3    H2  439   1.441   0.553   0.150
  159TIP3   OH2  440   3.284   0.087   5.908
  159TIP3    H1  441   3.286   0.020   5.840
  159TIP3    H2  442   3.191   0.095   5.931
  160TIP3   OH2  443   0.609   5.701   4.028
  160TIP3    H1  444   0.703   5.706   4.043
  160TIP3    H2  445   0.569   5.743   4.104
  161TIP3   OH2  446   4.717   2.053   5.665
  161TIP3    H1  447   4.663   2.019   5.593
  161TIP3    H2  448   4.660   2.047   5.742
  162TIP3   OH2  449   2.887   4.783   1.390
  162TIP3    H1  450   2.881   4.739   1.305
  162TIP3    H2  451   2.797   4.790   1.420
  163TIP3   OH2  452  -0.022   1.202   4.848
  163TIP3    H1  453  -0.017   1.270   4.915
  163TIP3    H2  454   0.069   1.188   4.822
  164TIP3   OH2  455   0.987   5.796   2.131
  164TIP3    H1  456   0.984   5.853   2.054
  164TIP3    H2  457   0.911   5.823   2.184
  165TIP3   OH2  458   3.044   5.578   0.876
  165TIP3    H1  459   2.966   5.559   0.824
  165TIP3    H2  460   3.095   5.639   0.822
  166TIP3   OH2  461   5.142   3.407   4.700
  166TIP3    H1  462   5.106   3.412   4.789
  166TIP3    H2  463   5.064   3.404   4.644
  167TIP3   OH2  464   0.231   1.134   2.867
  167TIP3    H1  465   0.191   1.142   2.954
  167TIP3    H2  466   0.314   1.090   2.882
  168TIP3   OH2  467   5.899   3.949   0.685
  168TIP3    H1  468   5.892   4.016   0.752
  168TIP3    H2  469   5.838   3.880   0.712
  169TIP3   OH2  470   7.075   4.774   1.730
  169TIP3    H1  471   7.091   4.853   1.782
  169TIP3    H2  472   7.033   4.714   1.791
  170TIP3   OH2  473   2.340   6.210   4.052
  170TIP3    H1  474   2.250   6.241   4.044
  170TIP3    H2  475   2.372   6.250   4.133
  171TIP3   OH2  476   1.584   1.445   1.071
  171TIP3    H1  477   1.680   1.451   1.077
  171TIP3    H2  478   1.556   1.423   1.160
  172TIP3   OH2  479   7.157   1.047   0.268
  172TIP3    H1  480   7.111   0.962   0.265
  172TIP3    H2  481   7.087   1.111   0.283
  173TIP3   OH2  482   3.510   2.150   5.187
  173TIP3    H1  483   3.489   2.058   5.167
  173TIP3    H2  484   3.434   2.181   5.236
  174TIP3   OH2  485   5.810   4.295   0.640
  174TIP3    H1  486   5.773   4.211   0.666
  174TIP3    H2  487   5.900   4.292   0.673
  175TIP3   OH2  488   3.971   1.320   0.578
  175TIP3    H1  489   3.989   1.266   0.655
  175TIP3    H2  490   3.878   1.306   0.560
  176TIP3   OH2  491   1.651   0.760   0.980
  176TIP3    H1  492   1.691   0.844   1.002
  176TIP3    H2  493   1.575   0.784   0.927
  177TIP3   OH2  494   5.616   2.291   2.047
  177TIP3    H1  495   5.677   2.235   2.096
  177TIP3    H2  496   5.617   2.374   2.094
  178TIP3   OH2  497   4.755   4.711   5.501
  178TIP3    H1  498   4.836   4.684   5.546
  178TIP3    H2  499   4.750   4.654   5.425
  179TIP3   OH2  500   6.363   1.881   1.078
  179TIP3    H1  501   6.338   1.839   0.995
  179TIP3    H2  502   6.286   1.933   1.102
  180TIP3   OH2  503   2.810   5.827   5.089
  180TIP3    H1  504   2.759   5.748   5.108
  180TIP3    H2  505   2.892   5.795   5.051
  181TIP3   OH2  506   2.821   5.663   5.446
  181TIP3    H1  507   2.865   5.593   5.494
  181TIP3    H2  508   2.732   5.665   5.481
  182TIP3   OH2  509   0.664   0.015   1.475
  182TIP3    H1  510   0.723   0.086   1.500
  182TIP3    H2  511   0.592   0.020   1.537
  183TIP3   OH2  512   1.647   6.678   2.075
  183TIP3    H1  513   1.688   6.644   2.155
  183TIP3    H2  514   1.623   6.599   2.026
  184TIP3   OH2  515   0.743   4.734   5.001
  184TIP3    H1  516   0.730   4.646   5.035
  184TIP3    H2  517   0.677   4.787   5.047
  185TIP3   OH2  518  -0.002   4.061   2.873
  185TIP3    H1  519  -0.013   4.154   2.855
  185TIP3    H2  520   0.024   4.023   2.788
  186TIP3   OH2  521   2.393   3.255   0.546
  186TIP3    H1  522   2.320   3.300   0.588
  186TIP3    H2  523   2.432   3.202   0.615
  187TIP3   OH2  524   4.935   2.613   1.359
  187TIP3    H1  525   4.992   2.555   1.307
  187TIP3    H2  526   4.847   2.578   1.347
  188TIP3   OH2  527   6.882   2.093   0.251
  188TIP3    H1  528   6.890   2.189   0.250
  188TIP3    H2  529   6.908   2.068   0.339
  189TIP3   OH2  530   4.249   1.944   2.104
  189TIP3    H1  531   4.215   1.908   2.022
  189TIP3    H2  532   4.342   1.956   2.087
  190TIP3   OH2  533   1.275   0.114   3.649
  190TIP3    H1  534   1.351   0.165   3.678
  190TIP3    H2  535   1.226   0.098   3.729
  191TIP3   OH2  536   1.702   5.775   0.071
  191TIP3    H1  537   1.651   5.816   0.001
  191TIP3    H2  538   1.793   5.779   0.040
  192TIP3   OH2  539   3.418   2.414   0.707
  192TIP3    H1  540   3.381   2.448   0.625
  192TIP3    H2  541   3.348   2.424   0.771
  193TIP3   OH2  542   0.829   2.686   3.635
  193TIP3    H1  543   0.749   2.737   3.636
  193TIP3    H2  544   0.822   2.631   3.556
  194TIP3   OH2  545   3.594   4.712   3.087
  194TIP3    H1  546   3.586   4.616   3.085
  194TIP3    H2  547   3.678   4.728   3.130
  195TIP3   OH2  548   5.350   3.540   4.836
  195TIP3    H1  549   5.301   3.500   4.764
  195TIP3    H2  550   5.283   3.557   4.903
  196TIP3   OH2  551   2.961   0.974   5.608
  196TIP3    H1  552   3.029   0.983   5.540
  196TIP3    H2  553   3.010   0.977   5.690
  197TIP3   OH2  554   2.916   0.627   0.885
  197TIP3    H1  555   2.854   0.630   0.958
  197TIP3    H2  556   2.955   0.539   0.891
  198TIP3   OH2  557   1.078   5.877   1.298
  198TIP3    H1  558   0.992   5.835   1.303
  198TIP3    H2  559   1.103   5.890   1.390
  199TIP3   OH2  560   2.664   1.796   3.140
  199TIP3    H1  561   2.752   1.769   3.112
  199TIP3    H2  562   2.650   1.880   3.095
  200TIP3   OH2  563   5.744   5.527   2.633
  200TIP3    H1  564   5.691   5.551   2.710
  200TIP3    H2  565   5.718   5.588   2.565
  201TIP3   OH2  566   6.631   3.423   3.385
  201TIP3    H1  567   6.569   3.351   3.383
  201TIP3    H2  568   6.600   3.480   3.456
  202TIP3   OH2  569   2.853   5.635   2.883
  202TIP3    H1  570   2.916   5.565   2.899
  202TIP3    H2  571   2.846   5.640   2.788
  203TIP3   OH2  572   1.891   5.429   3.656
  203TIP3    H1  573   1.923   5.421   3.746
  203TIP3    H2  574   1.828   5.501   3.660
  204TIP3   OH2  575   2.432   2.786   2.812
  204TIP3    H1  576   2.373   2.765   2.884
  204TIP3    H2  577   2.383   2.847   2.757
  205TIP3   OH2  578   4.595   5.736   0.431
  205TIP3    H1  579   4.573   5.799   0.500
  205TIP3    H2  580   4.512   5.696   0.407
  206TIP3   OH2  581   0.357   3.289   5.425
  206TIP3    H1  582   0.426   3.340   5.383
  206TIP3    H2  583   0.400   3.208   5.452
  207TIP3   OH2  584   6.417   4.020   4.579
  207TIP3    H1  585   6.421   3.928   4.607
  207TIP3    H2  586   6.433   4.018   4.485
  208TIP3   OH2  587   1.247   1.474   2.437
  208TIP3    H1  588   1.155   1.447   2.441
  208TIP3    H2  589   1.259   1.505   2.347
  209TIP3   OH2  590   3.503   2.415   1.998
  209TIP3    H1  591   3.488   2.469   1.921
  209TIP3    H2  592   3.444   2.451   2.064
  210TIP3   OH2  593   6.055   0.883   5.737
  210TIP3    H1  594   6.122   0.853   5.798
  210TIP3    H2  595   5.980   0.905   5.793
  211TIP3   OH2  596   7.055   4.003   0.721
  211TIP3    H1  597   7.139   4.004   0.768
  211TIP3    H2  598   7.058   3.923   0.669
  212TIP3   OH2  599   4.027   3.574   3.412
  212TIP3    H1  600   3.951   3.631   3.417
  212TIP3    H2  601   4.101   3.634   3.403
  213TIP3   OH2  602   4.362   6.112   1.969
  213TIP3    H1  603   4.393   6.196   2.004
  213TIP3    H2  604   4.360   6.054   2.044
  214TIP3   OH2  605   3.698   1.186   1.799
  214TIP3    H1  606   3.643   1.257   1.833
  214TIP3    H2  607   3.787   1.218   1.808
  215TIP3   OH2  608   6.347   2.314   0.880
  215TIP3    H1  609   6.278   2.304   0.945
  215TIP3    H2  610   6.354   2.229   0.837
  216TIP3   OH2  611   0.406   4.167   0.400
  216TIP3    H1  612   0.479   4.193   0.456
  216TIP3    H2  613   0.335   4.147   0.461
  217TIP3   OH2  614   0.154   6.534   1.395
  217TIP3    H1  615   0.207   6.533   1.315
  217TIP3    H2  616   0.098   6.610   1.385
  218TIP3   OH2  617   3.260   5.609   0.239
  218TIP3    H1  618   3.278   5.609   0.333
  218TIP3    H2  619   3.231   5.520   0.220
  219TIP3   OH2  620   6.947   3.175   4.679
  219TIP3    H1  621   6.954   3.178   4.584
  219TIP3    H2  622   6.928   3.266   4.705
  220TIP3   OH2  623   7.121   5.909   2.201
  220TIP3    H1  624   7.066   5.856   2.144
  220TIP3    H2  625   7.060   5.947   2.265
  221TIP3   OH2  626   3.132   2.382   0.263
  221TIP3    H1  627   3.066   2.362   0.330
  221TIP3    H2  628   3.098   2.342   0.183
  222TIP3   OH2  629   6.107   1.700   2.547
  222TIP3    H1  630   6.100   1.747   2.465
  222TIP3    H2  631   6.081   1.610   2.526
  223TIP3   OH2  632   1.241   2.202   0.367
  223TIP3    H1  633   1.335   2.193   0.378
  223TIP3    H2  634   1.204   2.130   0.419
  224TIP3   OH2  635   6.689   3.739   1.951
  224TIP3    H1  636   6.731   3.654   1.967
  224TIP3    H2  637   6.743   3.802   1.997
  225TIP3   OH2  638   2.682   0.134   1.343
  225TIP3    H1  639   2.723   0.204   1.292
  225TIP3    H2  640   2.692   0.055   1.289
  226TIP3   OH2  641   4.824   2.603   3.116
  226TIP3    H1  642   4.845   2.598   3.023
  226TIP3    H2  643   4.909   2.598   3.160
  227TIP3   OH2  644   5.586   4.449   5.691
  227TIP3    H1  645   5.526   4.510   5.734
  227TIP3    H2  646   5.533   4.371   5.675
  228TIP3   OH2  647   4.080   4.906   3.373
  228TIP3    H1  648   4.086   4.917   3.468
  228TIP3    H2  649   4.146   4.840   3.352
  229TIP3   OH2  650   2.940   5.060   0.770
  229TIP3    H1  651   3.001   5.107   0.712
  229TIP3    H2  652   2.993   5.037   0.847
  230TIP3   OH2  653   0.492   2.914   2.431
  230TIP3    H1  654   0.449   2.837   2.469
  230TIP3    H2  655   0.573   2.880   2.393
  231TIP3   OH2  656   4.731   1.692   3.492
  231TIP3    H1  657   4.714   1.674   3.399
  231TIP3    H2  658   4.813   1.647   3.511
  232TIP3   OH2  659   3.225   2.461   4.918
  232TIP3    H1  660   3.167   2.467   4.842
  232TIP3    H2  661   3.166   2.452   4.993
  233TIP3   OH2  662   0.229   6.001   5.551
  233TIP3    H1  663   0.139   6.003   5.516
  233TIP3    H2  664   0.284   6.009   5.473
  234TIP3   OH2  665   4.727   2.441   1.075
  234TIP3    H1  666   4.811   2.485   1.066
  234TIP3    H2  667   4.715   2.433   1.170
  235TIP3   OH2  668   1.390   0.058   4.945
  235TIP3    H1  669   1.442   0.094   5.016
  235TIP3    H2  670   1.356   0.135   4.898
  236TIP3   OH2  671   3.689   3.664   3.718
  236TIP3    H1  672   3.740   3.732   3.674
  236TIP3    H2  673   3.631   3.712   3.778
  237TIP3   OH2  674   1.554   3.255   4.144
  237TIP3    H1  675   1.488   3.228   4.080
  237TIP3    H2  676   1.521   3.221   4.227
  238TIP3   OH2  677   1.875   0.934   3.291
  238TIP3    H1  678   1.817   0.918   3.217
  238TIP3    H2  679   1.935   0.859   3.291
  239TIP3   OH2  680   4.438   3.324   0.596
  239TIP3    H1  681   4.449   3.247   0.653
  239TIP3    H2  682   4.377   3.295   0.529
  240TIP3   OH2  683   5.651   6.324   0.527
  240TIP3    H1  684   5.571   6.309   0.579
  240TIP3    H2  685   5.701   6.387   0.579
  241TIP3   OH2  686   4.416   0.951   2.688
  241TIP3    H1  687   4.389   1.040   2.666
  241TIP3    H2  688   4.397   0.943   2.782
  242TIP3   OH2  689   5.409   4.320   1.492
  242TIP3    H1  690   5.437   4.237   1.453
  242TIP3    H2  691   5.398   4.300   1.585
  243TIP3   OH2  692   3.267   5.817   1.035
  243TIP3    H1  693   3.306   5.904   1.045
  243TIP3    H2  694   3.174   5.831   1.053
  244TIP3   OH2  695   1.984   3.377   0.322
  244TIP3    H1  696   2.043   3.405   0.252
  244TIP3    H2  697   1.918   3.323   0.278
  245TIP3   OH2  698   6.343   0.107   2.884
  245TIP3    H1  699   6.349   0.199   2.862
  245TIP3    H2  700   6.419   0.067   2.841
  246TIP3   OH2  701   5.875   5.455   5.610
  246TIP3    H1  702   5.841   5.516   5.676
  246TIP3    H2  703   5.861   5.369   5.648
  247TIP3   OH2  704   1.585   5.904   3.332
  247TIP3    H1  705   1.677   5.899   3.359
  247TIP3    H2  706   1.559   5.994   3.352
  248TIP3   OH2  707   6.089   5.711   5.712
  248TIP3    H1  708   6.096   5.691   5.618
  248TIP3    H2  709   5.995   5.707   5.730
  249TIP3   OH2  710   0.751   3.084   5.327
  249TIP3    H1  711   0.776   3.013   5.269
  249TIP3    H2  712   0.805   3.158   5.300
  250TIP3   OH2  713   5.279   0.592   3.055
  250TIP3    H1  714   5.359   0.538   3.059
  250TIP3    H2  715   5.209   0.531   3.077
  251TIP3   OH2  716   5.097   3.495   4.393
  251TIP3    H1  717   5.071   3.530   4.308
  251TIP3    H2  718   5.038   3.421   4.408
  252TIP3   OH2  719   0.135   4.156   2.191
  252TIP3    H1  720   0.201   4.106   2.142
  252TIP3    H2  721   0.121   4.105   2.270
  253TIP3   OH2  722   1.044   5.084   5.694
  253TIP3    H1  723   1.065   4.992   5.679
  253TIP3    H2  724   0.988   5.109   5.620
  254TIP3   OH2  725   3.938   0.031   2.378
  254TIP3    H1  726   3.964   0.098   2.315
  254TIP3    H2  727   4.011   0.027   2.440
  255TIP3   OH2  728   6.678   1.260   0.959
  255TIP3    H1  729   6.704   1.322   1.027
  255TIP3    H2  730   6.752   1.200   0.952
  256TIP3   OH2  731   4.062   2.112   4.628
  256TIP3    H1  732   4.007   2.046   4.669
  256TIP3    H2  733   4.090   2.168   4.701
  257TIP3   OH2  734   0.806   1.068   1.015
  257TIP3    H1  735   0.808   1.138   1.080
  257TIP3    H2  736   0.751   1.000   1.056
  258TIP3   OH2  737   7.048   2.528   4.519
  258TIP3    H1  738   7.009   2.558   4.601
  258TIP3    H2  739   7.139   2.558   4.524
  259TIP3   OH2  740   3.482   2.850   4.882
  259TIP3    H1  741   3.570   2.882   4.863
  259TIP3    H2  742   3.427   2.928   4.883
  260TIP3   OH2  743   5.050   0.117   0.879
  260TIP3    H1  744   4.973   0.154   0.921
  260TIP3    H2  745   5.121   0.178   0.899
  261TIP3   OH2  746   4.872   6.046   4.384
  261TIP3    H1  747   4.894   6.093   4.303
  261TIP3    H2  748   4.955   6.016   4.418
  262TIP3   OH2  749   1.089   3.195   1.590
  262TIP3    H1  750   1.080   3.283   1.626
  262TIP3    H2  751   1.099   3.139   1.666
  263TIP3   OH2  752   0.128   6.131   2.285
  263TIP3    H1  753   0.161   6.113   2.196
  263TIP3    H2  754   0.058   6.195   2.272
  264TIP3   OH2  755   3.565   2.958   0.210
  264TIP3    H1  756   3.499   2.958   0.279
  264TIP3    H2  757   3.515   2.971   0.129
  265TIP3   OH2  758   1.352   0.405   4.245
  265TIP3    H1  759   1.361   0.366   4.332
  265TIP3    H2  760   1.384   0.337   4.186
  266TIP3   OH2  761   4.229   2.647   2.594
  266TIP3    H1  762   4.177   2.571   2.620
  266TIP3    H2  763   4.184   2.682   2.517
  267TIP3   OH2  764   3.434   3.547   1.095
  267TIP3    H1  765   3.376   3.491   1.147
  267TIP3    H2  766   3.382   3.571   1.019
  268TIP3   OH2  767   0.811   0.932   4.552
  268TIP3    H1  768   0.717   0.925   4.570
  268TIP3    H2  769   0.824   1.023   4.527
  269TIP3   OH2  770   2.967   6.390   4.603
  269TIP3    H1  771   2.939   6.339   4.679
  269TIP3    H2  772   3.045   6.344   4.571
  270TIP3   OH2  773   3.766   3.441   2.466
  270TIP3    H1  774   3.697   3.415   2.405
  270TIP3    H2  775   3.754   3.383   2.541
  271TIP3   OH2  776   2.777   2.764   4.747
  271TIP3    H1  777   2.758   2.823   4.820
  271TIP3    H2  778   2.738   2.807   4.671
  272TIP3   OH2  779   1.884   3.834   0.476
  272TIP3    H1  780   1.885   3.927   0.500
  272TIP3    H2  781   1.972   3.817   0.441
  273TIP3   OH2  782   2.459   0.897   1.334
  273TIP3    H1  783   2.503   0.867   1.413
  273TIP3    H2  784   2.367   0.872   1.346
  274TIP3   OH2  785   4.877   5.798   1.925
  274TIP3    H1  786   4.795   5.769   1.884
  274TIP3    H2  787   4.943   5.789   1.856
  275TIP3   OH2  788   6.016   6.087   3.121
  275TIP3    H1  789   6.083   6.130   3.174
  275TIP3    H2  790   5.968   6.032   3.183
  276TIP3   OH2  791   2.834   2.268   1.368
  276TIP3    H1  792   2.877   2.215   1.434
  276TIP3    H2  793   2.772   2.208   1.325
  277TIP3   OH2  794   1.771   1.228   3.754
  277TIP3    H1  795   1.754   1.277   3.834
  277TIP3    H2  796   1.850   1.177   3.773
  278TIP3   OH2  797   3.935   6.053   4.967
  278TIP3    H1  798   3.971   6.101   5.042
  278TIP3    H2  799   3.861   6.105   4.939
  279TIP3   OH2  800   6.341   2.212   3.443
  279TIP3    H1  801   6.264   2.183   3.492
  279TIP3    H2  802   6.414   2.198   3.503
  280TIP3   OH2  803   2.770   2.781   0.689
  280TIP3    H1  804   2.762   2.706   0.748
  280TIP3    H2  805   2.810   2.746   0.610
  281TIP3   OH2  806   7.053   0.886   4.333
  281TIP3    H1  807   7.075   0.801   4.371
  281TIP3    H2  808   6.996   0.928   4.398
  282TIP3   OH2  809   6.032   4.550   3.545
  282TIP3    H1  810   5.941   4.579   3.546
  282TIP3    H2  811   6.043   4.504   3.628
  283TIP3   OH2  812   1.425   6.678   4.674
  283TIP3    H1  813   1.408   6.764   4.637
  283TIP3    H2  814   1.433   6.693   4.768
  284TIP3   OH2  815   4.429   0.438   4.064
  284TIP3    H1  816   4.392   0.522   4.090
  284TIP3    H2  817   4.387   0.419   3.980
  285TIP3   OH2  818   0.916   0.542   3.753
  285TIP3    H1  819   0.942   0.575   3.667
  285TIP3    H2  820   0.853   0.473   3.734
  286TIP3   OH2  821   6.241   3.555   4.507
  286TIP3    H1  822   6.169   3.504   4.545
  286TIP3    H2  823   6.209   3.578   4.419
  287TIP3   OH2  824   3.894   4.981   0.876
  287TIP3    H1  825   3.868   5.071   0.892
  287TIP3    H2  826   3.963   4.964   0.940
  288TIP3   OH2  827   6.212   0.422   0.344
  288TIP3    H1  828   6.246   0.449   0.429
  288TIP3    H2  829   6.150   0.491   0.320
  289TIP3   OH2  830   6.848   5.641   2.632
  289TIP3    H1  831   6.924   5.695   2.654
  289TIP3    H2  832   6.886   5.558   2.601
  290TIP3   OH2  833   4.217   1.934   0.283
  290TIP3    H1  834   4.291   1.995   0.290
  290TIP3    H2  835   4.222   1.880   0.361
  291TIP3   OH2  836   5.565   2.697   3.943
  291TIP3    H1  837   5.614   2.732   4.018
  291TIP3    H2  838   5.493   2.758   3.930
  292TIP3   OH2  839   5.641   6.370   2.563
  292TIP3    H1  840   5.703   6.311   2.521
  292TIP3    H2  841   5.607   6.322   2.638
  293TIP3   OH2  842   0.250   2.046   3.699
  293TIP3    H1  843   0.325   1.986   3.692
  293TIP3    H2  844   0.204   2.016   3.778
  294TIP3   OH2  845   4.186   1.455   4.967
  294TIP3    H1  846   4.198   1.510   4.890
  294TIP3    H2  847   4.140   1.378   4.935
  295TIP3   OH2  848   4.591   4.719   3.129
  295TIP3    H1  849   4.624   4.782   3.065
  295TIP3    H2  850   4.612   4.633   3.092
  296TIP3   OH2  851   2.310   2.553   5.227
  296TIP3    H1  852   2.355   2.630   5.191
  296TIP3    H2  853   2.380   2.499   5.263
  297TIP3   OH2  854   3.686   4.860   0.688
  297TIP3    H1  855   3.706   4.773   0.723
  297TIP3    H2  856   3.763   4.912   0.708
  298TIP3   OH2  857   3.273   3.075   2.549
  298TIP3    H1  858   3.220   3.100   2.625
  298TIP3    H2  859   3.324   3.154   2.529
  299TIP3   OH2  860   5.594   1.056   5.005
  299TIP3    H1  861   5.600   1.085   5.097
  299TIP3    H2  862   5.630   1.129   4.955
  300TIP3   OH2  863   1.319   5.136   5.179
  300TIP3    H1  864   1.320   5.193   5.102
  300TIP3    H2  865   1.294   5.194   5.251
  301TIP3   OH2  866   1.697   1.836   2.865
  301TIP3    H1  867   1.769   1.774   2.870
  301TIP3    H2  868   1.662   1.840   2.954
  302TIP3   OH2  869   4.557   3.789   4.721
  302TIP3    H1  870   4.490   3.721   4.713
  302TIP3    H2  871   4.534   3.835   4.802
  303TIP3   OH2  872   4.955   0.964   3.154
  303TIP3    H1  873   4.981   1.044   3.107
  303TIP3    H2  874   5.032   0.907   3.149
  304TIP3   OH2  875   2.597   2.831   3.192
  304TIP3    H1  876   2.661   2.812   3.124
  304TIP3    H2  877   2.514   2.799   3.157
  305TIP3   OH2  878   3.971   3.388   5.010
  305TIP3    H1  879   3.905   3.331   4.970
  305TIP3    H2  880   3.995   3.449   4.940
  306TIP3   OH2  881   4.189   0.294   2.412
  306TIP3    H1  882   4.120   0.359   2.396
  306TIP3    H2  883   4.207   0.300   2.506
  307TIP3   OH2  884   0.525   0.433   0.676
  307TIP3    H1  885   0.575   0.353   0.660
  307TIP3    H2  886   0.584   0.489   0.725
  308TIP3   OH2  887   6.152   2.365   1.946
  308TIP3    H1  888   6.131   2.429   2.014
  308TIP3    H2  889   6.194   2.293   1.994
  309TIP3   OH2  890   7.242   1.408   5.678
  309TIP3    H1  891   7.158   1.362   5.668
  309TIP3    H2  892   7.225   1.475   5.744
  310TIP3   OH2  893   1.850   4.132   0.872
  310TIP3    H1  894   1.822   4.216   0.907
  310TIP3    H2  895   1.945   4.139   0.865
  311TIP3   OH2  896   4.885   2.372   1.869
  311TIP3    H1  897   4.906   2.434   1.799
  311TIP3    H2  898   4.873   2.427   1.946
  312TIP3   OH2  899   6.137   1.623   1.497
  312TIP3    H1  900   6.055   1.630   1.546
  312TIP3    H2  901   6.180   1.546   1.534
  313TIP3   OH2  902   0.472   0.765   3.000
  313TIP3    H1  903   0.435   0.851   2.980
  313TIP3    H2  904   0.565   0.773   2.977
  314TIP3   OH2  905   2.437   1.591   2.511
  314TIP3    H1  906   2.356   1.566   2.555
  314TIP3    H2  907   2.432   1.687   2.504
  315TIP3   OH2  908   6.270   2.662   1.864
  315TIP3    H1  909   6.230   2.580   1.834
  315TIP3    H2  910   6.363   2.651   1.844
  316TIP3   OH2  911   4.868   4.185   2.784
  316TIP3    H1  912   4.920   4.125   2.838
  316TIP3    H2  913   4.840   4.131   2.710
  317TIP3   OH2  914   7.196   6.678   2.763
  317TIP3    H1  915   7.126   6.622   2.798
  317TIP3    H2  916   7.249   6.619   2.709
  318TIP3   OH2  917   3.974   4.943   0.018
  318TIP3    H1  918   3.963   4.888  -0.060
  318TIP3    H2  919   3.987   4.881   0.089
  319TIP3   OH2  920   2.019   3.399   3.504
  319TIP3    H1  921   2.010   3.310   3.539
  319TIP3    H2  922   2.107   3.402   3.468
  320TIP3   OH2  923   3.366   0.340   3.771
  320TIP3    H1  924   3.325   0.408   3.717
  320TIP3    H2  925   3.439   0.308   3.719
  321TIP3   OH2  926   2.416   2.453   3.369
  321TIP3    H1  927   2.395   2.527   3.426
  321TIP3    H2  928   2.504   2.426   3.397
  322TIP3   OH2  929   3.905   3.217   4.566
  322TIP3    H1  930   3.828   3.249   4.518
  322TIP3    H2  931   3.891   3.247   4.656
  323TIP3   OH2  932   2.485   6.097   3.366
  323TIP3    H1  933   2.512   6.006   3.354
  323TIP3    H2  934   2.396   6.090   3.401
  324TIP3   OH2  935   4.689   1.865   3.868
  324TIP3    H1  936   4.612   1.919   3.850
  324TIP3    H2  937   4.669   1.780   3.828
  325TIP3   OH2  938   1.586   1.404   1.651
  325TIP3    H1  939   1.533   1.478   1.681
  325TIP3    H2  940   1.523   1.337   1.626
  326TIP3   OH2  941   6.856   6.551   4.048
  326TIP3    H1  942   6.827   6.593   3.968
  326TIP3    H2  943   6.778   6.511   4.085
  327TIP3   OH2  944   7.076   0.532   1.906
  327TIP3    H1  945   7.064   0.627   1.917
  327TIP3    H2  946   7.133   0.507   1.979
  328TIP3   OH2  947   2.895   6.387   4.973
  328TIP3    H1  948   2.976   6.429   4.944
  328TIP3    H2  949   2.924   6.307   5.018
  329TIP3   OH2  950   3.319   0.669   1.828
  329TIP3    H1  951   3.234   0.633   1.803
  329TIP3    H2  952   3.383   0.612   1.784
  330TIP3   OH2  953   5.463   5.638   0.287
  330TIP3    H1  954   5.433   5.547   0.295
  330TIP3    H2  955   5.478   5.666   0.378
  331TIP3   OH2  956   0.926   3.503   1.305
  331TIP3    H1  957   0.934   3.582   1.358
  331TIP3    H2  958   1.014   3.466   1.305
  332TIP3   OH2  959   2.041   0.780   2.435
  332TIP3    H1  960   2.095   0.851   2.468
  332TIP3    H2  961   2.085   0.750   2.355
  333TIP3   OH2  962   5.093   5.981   4.534
  333TIP3    H1  963   5.062   5.973   4.625
  333TIP3    H2  964   5.117   5.892   4.509
  334TIP3   OH2  965   5.489   3.064   2.821
  334TIP3    H1  966   5.417   3.039   2.879
  334TIP3    H2  967   5.512   3.153   2.848
  335TIP3   OH2  968   0.942   5.871   4.301
  335TIP3    H1  969   0.967   5.860   4.392
  335TIP3    H2  970   1.017   5.915   4.260
  336TIP3   OH2  971   0.529   2.358   3.182
  336TIP3    H1  972   0.474   2.315   3.248
  336TIP3    H2  973   0.467   2.402   3.125
  337TIP3   OH2  974   1.741   0.124   2.598
  337TIP3    H1  975   1.711   0.033   2.605
  337TIP3    H2  976   1.830   0.122   2.632
  338TIP3   OH2  977   5.860   2.873   5.462
  338TIP3    H1  978   5.943   2.862   5.508
  338TIP3    H2  979   5.800   2.812   5.505
  339TIP3   OH2  980   0.586   0.683   3.828
  339TIP3    H1  981   0.576   0.621   3.756
  339TIP3    H2  982   0.646   0.640   3.889
  340TIP3   OH2  983   2.507   4.638   4.758
  340TIP3    H1  984   2.415   4.636   4.733
  340TIP3    H2  985   2.554   4.598   4.684
  341TIP3   OH2  986   1.950   4.687   2.829
  341TIP3    H1  987   1.993   4.602   2.837
  341TIP3    H2  988   1.941   4.700   2.734
  342TIP3   OH2  989   0.587   6.023   0.353
  342TIP3    H1  990   0.498   5.990   0.360
  342TIP3    H2  991   0.615   5.997   0.265
  343TIP3   OH2  992   4.986   0.763   0.868
  343TIP3    H1  993   5.029   0.685   0.903
  343TIP3    H2  994   5.017   0.834   0.924
  344TIP3   OH2  995   6.880   3.781   2.480
  344TIP3    H1  996   6.849   3.698   2.445
  344TIP3    H2  997   6.934   3.818   2.411
  345TIP3   OH2  998   5.675   3.157   2.302
  345TIP3    H1  999   5.620   3.162   2.380
  345TIP3    H2 1000   5.614   3.155   2.229
  346TIP3   OH2 1001   2.849   4.963   1.950
  346TIP3    H1 1002   2.928   4.991   1.905
  346TIP3    H2 1003   2.855   5.004   2.037
  347TIP3   OH2 1004   5.156   5.150   2.853
  347TIP3    H1 1005   5.118   5.206   2.921
  347TIP3    H2 1006   5.099   5.161   2.777
  348TIP3   OH2 1007   3.383   5.630   5.777
  348TIP3    H1 1008   3.381   5.597   5.867
  348TIP3    H2 1009   3.468   5.673   5.769
  349TIP3   OH2 1010   4.364   2.573   3.844
  349TIP3    H1 1011   4.335   2.661   3.872
  349TIP3    H2 1012   4.455   2.585   3.819
  350TIP3   OH2 1013   5.218   3.239   2.757
  350TIP3    H1 1014   5.150   3.293   2.797
  350TIP3    H2 1015   5.227   3.164   2.816
  351TIP3   OH2 1016   4.330   4.254   2.198
  351TIP3    H1 1017   4.235   4.265   2.210
  351TIP3    H2 1018   4.345   4.161   2.217
  352TIP3   OH2 1019   4.417   1.720   1.922
  352TIP3    H1 1020   4.349   1.776   1.882
  352TIP3    H2 1021   4.424   1.645   1.864
  353TIP3   OH2 1022   4.844   5.734   4.586
  353TIP3    H1 1023   4.764   5.725   4.639
  353TIP3    H2 1024   4.898   5.796   4.635
  354TIP3   OH2 1025   1.675   4.687   4.557
  354TIP3    H1 1026   1.695   4.709   4.466
  354TIP3    H2 1027   1.665   4.591   4.557
  355TIP3   OH2 1028   3.294   2.170   3.108
  355TIP3    H1 1029   3.235   2.236   3.143
  355TIP3    H2 1030   3.381   2.206   3.122
  356TIP3   OH2 1031   3.159   0.788   3.698
  356TIP3    H1 1032   3.194   0.862   3.650
  356TIP3    H2 1033   3.075   0.819   3.733
  357TIP3   OH2 1034   0.371   4.358   0.187
  357TIP3    H1 1035   0.458   4.341   0.151
  357TIP3    H2 1036   0.374   4.320   0.275
  358TIP3   OH2 1037   2.074   2.464   2.134
  358TIP3    H1 1038   2.100   2.382   2.175
  358TIP3    H2 1039   2.064   2.443   2.041
  359TIP3   OH2 1040   2.559   5.779   3.060
  359TIP3    H1 1041   2.619   5.704   3.059
  359TIP3    H2 1042   2.538   5.792   3.153
  360TIP3   OH2 1043   1.453   4.399   3.480
  360TIP3    H1 1044   1.402   4.420   3.558
  360TIP3    H2 1045   1.476   4.307   3.489
  361TIP3   OH2 1046   1.298   5.290   2.545
  361TIP3    H1 1047   1.374   5.273   2.490
  361TIP3    H2 1048   1.267   5.204   2.571
  362TIP3   OH2 1049   1.001   3.779   2.698
  362TIP3    H1 1050   1.033   3.865   2.724
  362TIP3    H2 1051   1.038   3.765   2.611
  363TIP3   OH2 1052   6.345   4.470   4.131
  363TIP3    H1 1053   6.379   4.386   4.160
  363TIP3    H2 1054   6.404   4.535   4.168
  364TIP3   OH2 1055   3.247   2.429   5.580
  364TIP3    H1 1056   3.182   2.401   5.645
  364TIP3    H2 1057   3.323   2.457   5.631
  365TIP3   OH2 1058   5.702   0.744   3.647
  365TIP3    H1 1059   5.785   0.717   3.607
  365TIP3    H2 1060   5.654   0.786   3.575
  366TIP3   OH2 1061   4.892   3.991   2.577
  366TIP3    H1 1062   4.898   3.921   2.641
  366TIP3    H2 1063   4.960   3.970   2.513
  367TIP3   OH2 1064   4.759   4.523   1.482
  367TIP3    H1 1065   4.837   4.568   1.447
  367TIP3    H2 1066   4.766   4.534   1.577
  368TIP3   OH2 1067   2.305   3.079   0.008
  368TIP3    H1 1068   2.242   3.134   0.054
  368TIP3    H2 1069   2.325   3.127  -0.072
  369TIP3   OH2 1070   1.146   6.477   3.975
  369TIP3    H1 1071   1.140   6.572   3.975
  369TIP3    H2 1072   1.116   6.451   4.062
  370TIP3   OH2 1073   0.420   5.258   2.280
  370TIP3    H1 1074   0.453   5.327   2.338
  370TIP3    H2 1075   0.329   5.246   2.307
  371TIP3   OH2 1076   6.373   3.693   1.692
  371TIP3    H1 1077   6.376   3.649   1.776
  371TIP3    H2 1078   6.464   3.696   1.663
  372TIP3   OH2 1079   6.110   6.107   1.015
  372TIP3    H1 1080   6.091   6.198   1.038
  372TIP3    H2 1081   6.035   6.058   1.049
  373TIP3   OH2 1082   5.432   0.158   3.853
  373TIP3    H1 1083   5.350   0.121   3.885
  373TIP3    H2 1084   5.479   0.084   3.816
  374TIP3   OH2 1085   2.820   0.309   0.590
  374TIP3    H1 1086   2.873   0.342   0.518
  374TIP3    H2 1087   2.739   0.278   0.548
  375TIP3   OH2 1088   1.774   5.841   4.315
  375TIP3    H1 1089   1.703   5.891   4.276
  375TIP3    H2 1090   1.732   5.789   4.383
  376TIP3   OH2 1091   4.014   5.660   4.446
  376TIP3    H1 1092   4.071   5.616   4.383
  376TIP3    H2 1093   3.932   5.673   4.398
  377TIP3   OH2 1094   3.542   0.129   4.710
  377TIP3    H1 1095   3.595   0.193   4.662
  377TIP3    H2 1096   3.475   0.181   4.753
  378TIP3   OH2 1097   6.239   6.379   4.969
  378TIP3    H1 1098   6.334   6.386   4.975
  378TIP3    H2 1099   6.223   6.307   4.909
  379TIP3   OH2 1100   5.534   3.471   0.882
  379TIP3    H1 1101   5.532   3.444   0.974
  379TIP3    H2 1102   5.446   3.504   0.864
  380TIP3   OH2 1103   4.229   4.516   4.341
  380TIP3    H1 1104   4.230   4.494   4.248
  380TIP3    H2 1105   4.225   4.612   4.342
  381TIP3   OH2 1106   5.977   0.539   5.858
  381TIP3    H1 1107   6.053   0.576   5.813
  381TIP3    H2 1108   5.929   0.492   5.790
  382TIP3   OH2 1109   5.569   4.569   4.757
  382TIP3    H1 1110   5.502   4.502   4.750
  382TIP3    H2 1111   5.652   4.521   4.759
  383TIP3   OH2 1112   5.883   3.425   4.864
  383TIP3    H1 1113   5.872   3.348   4.919
  383TIP3    H2 1114   5.794   3.453   4.843
  384TIP3   OH2 1115   0.791   4.180   4.725
  384TIP3    H1 1116   0.702   4.173   4.690
  384TIP3    H2 1117   0.788   4.256   4.783
  385TIP3   OH2 1118   5.912   3.010   0.017
  385TIP3    H1 1119   5.865   3.086   0.049
  385TIP3    H2 1120   6.002   3.040   0.005
  386TIP3   OH2 1121   2.172   5.884   3.082
  386TIP3    H1 1122   2.080   5.862   3.070
  386TIP3    H2 1123   2.217   5.835   3.013
  387TIP3   OH2 1124   3.787   1.704   3.463
  387TIP3    H1 1125   3.805   1.796   3.482
  387TIP3    H2 1126   3.853   1.680   3.398
  388TIP3   OH2 1127   3.147   2.318   1.288
  388TIP3    H1 1128   3.150   2.408   1.321
  388TIP3    H2 1129   3.074   2.278   1.335
  389TIP3   OH2 1130   5.798   2.972   5.009
  389TIP3    H1 1131   5.781   2.882   4.982
  389TIP3    H2 1132   5.889   2.972   5.039
  390TIP3   OH2 1133   5.287   2.295   0.332
  390TIP3    H1 1134   5.339   2.293   0.252
  390TIP3    H2 1135   5.335   2.240   0.394
  391TIP3   OH2 1136   1.649   3.387   2.376
  391TIP3    H1 1137   1.574   3.385   2.435
  391TIP3    H2 1138   1.663   3.295   2.352
  392TIP3   OH2 1139   3.340   2.696   0.180
  392TIP3    H1 1140   3.377   2.729   0.262
  392TIP3    H2 1141   3.315   2.775   0.132
  393TIP3   OH2 1142   0.107   4.344   3.413
  393TIP3    H1 1143   0.198   4.334   3.382
  393TIP3    H2 1144   0.098   4.437   3.431
  394TIP3   OH2 1145   1.143   3.535   4.597
  394TIP3    H1 1146   1.059   3.489   4.591
  394TIP3    H2 1147   1.126   3.622   4.560
  395TIP3   OH2 1148   6.188   2.376   4.801
  395TIP3    H1 1149   6.174   2.458   4.754
  395TIP3    H2 1150   6.283   2.374   4.818
  396TIP3   OH2 1151   2.954   0.251   5.115
  396TIP3    H1 1152   2.999   0.320   5.165
  396TIP3    H2 1153   2.863   0.280   5.112
  397TIP3   OH2 1154   5.803   0.774   1.855
  397TIP3    H1 1155   5.733   0.825   1.815
  397TIP3    H2 1156   5.774   0.683   1.845
  398TIP3   OH2 1157   4.716   3.646   5.160
  398TIP3    H1 1158   4.630   3.624   5.194
  398TIP3    H2 1159   4.711   3.629   5.066
  399TIP3   OH2 1160   2.754   6.459   3.148
  399TIP3    H1 1161   2.820   6.439   3.214
  399TIP3    H2 1162   2.746   6.555   3.150
  400TIP3   OH2 1163   6.533   0.721   0.150
  400TIP3    H1 1164   6.621   0.718   0.188
  400TIP3    H2 1165   6.527   0.642   0.096
  401TIP3   OH2 1166   5.089   3.767   4.444
  401TIP3    H1 1167   5.101   3.674   4.459
  401TIP3    H2 1168   5.030   3.772   4.369
  402TIP3   OH2 1169   2.189   6.076   4.413
  402TIP3    H1 1170   2.137   6.043   4.340
  402TIP3    H2 1171   2.237   5.999   4.445
  403TIP3   OH2 1172   4.931   4.668   4.848
  403TIP3    H1 1173   4.955   4.619   4.769
  403TIP3    H2 1174   4.987   4.746   4.846
  404TIP3   OH2 1175   6.454   5.134   2.671
  404TIP3    H1 1176   6.416   5.219   2.693
  404TIP3    H2 1177   6.388   5.070   2.697
  405TIP3   OH2 1178   1.641   0.606   0.574
  405TIP3    H1 1179   1.717   0.638   0.526
  405TIP3    H2 1180   1.582   0.574   0.505
  406TIP3   OH2 1181   0.734   3.201   4.030
  406TIP3    H1 1182   0.749   3.157   3.946
  406TIP3    H2 1183   0.659   3.259   4.013
  407TIP3   OH2 1184   6.054   3.587   2.307
  407TIP3    H1 1185   5.993   3.542   2.367
  407TIP3    H2 1186   6.125   3.524   2.294
  408TIP3   OH2 1187   2.803   5.402   0.197
  408TIP3    H1 1188   2.883   5.375   0.153
  408TIP3    H2 1189   2.802   5.497   0.189
  409TIP3   OH2 1190   4.534   3.488   5.318
  409TIP3    H1 1191   4.497   3.401   5.337
  409TIP3    H2 1192   4.471   3.549   5.356
  410TIP3   OH2 1193   3.630   4.971   1.356
  410TIP3    H1 1194   3.681   4.890   1.357
  410TIP3    H2 1195   3.539   4.942   1.360
  411TIP3   OH2 1196   6.598   1.879   5.802
  411TIP3    H1 1197   6.524   1.931   5.834
  411TIP3    H2 1198   6.659   1.944   5.765
  412TIP3   OH2 1199   1.676   6.380   3.501
  412TIP3    H1 1200   1.702   6.381   3.593
  412TIP3    H2 1201   1.589   6.420   3.500
  413TIP3   OH2 1202   0.984   6.652   0.977
  413TIP3    H1 1203   0.944   6.650   1.064
  413TIP3    H2 1204   1.067   6.607   0.987
  414TIP3   OH2 1205   6.638   4.001   0.947
  414TIP3    H1 1206   6.716   4.055   0.955
  414TIP3    H2 1207   6.670   3.914   0.923
  415TIP3   OH2 1208   0.761   3.799   2.597
  415TIP3    H1 1209   0.746   3.738   2.525
  415TIP3    H2 1210   0.849   3.777   2.629
  416TIP3   OH2 1211   1.283   0.682   5.623
  416TIP3    H1 1212   1.320   0.652   5.540
  416TIP3    H2 1213   1.189   0.685   5.608
  417TIP3   OH2 1214   5.051   2.929   4.099
  417TIP3    H1 1215   5.077   3.008   4.147
  417TIP3    H2 1216   4.957   2.938   4.087
  418TIP3   OH2 1217   0.473   4.697   0.723
  418TIP3    H1 1218   0.396   4.691   0.779
  418TIP3    H2 1219   0.440   4.678   0.635
  419TIP3   OH2 1220   5.571   5.074   4.410
  419TIP3    H1 1221   5.621   5.075   4.328
  419TIP3    H2 1222   5.540   4.984   4.418
  420TIP3   OH2 1223   4.558   2.276   4.097
  420TIP3    H1 1224   4.555   2.329   4.177
  420TIP3    H2 1225   4.650   2.281   4.068
  421TIP3   OH2 1226   6.079   3.549   5.270
  421TIP3    H1 1227   6.128   3.628   5.250
  421TIP3    H2 1228   5.994   3.580   5.301
  422TIP3   OH2 1229   1.217   0.953   2.135
  422TIP3    H1 1230   1.166   0.945   2.215
  422TIP3    H2 1231   1.190   0.879   2.081
  423TIP3   OH2 1232   5.975   2.587   1.602
  423TIP3    H1 1233   5.968   2.615   1.510
  423TIP3    H2 1234   5.979   2.669   1.651
  424TIP3   OH2 1235   1.962   4.427   4.310
  424TIP3    H1 1236   1.930   4.474   4.233
  424TIP3    H2 1237   2.010   4.492   4.361
  425TIP3   OH2 1238   6.901   3.997   4.172
  425TIP3    H1 1239   6.874   3.932   4.236
  425TIP3    H2 1240   6.984   4.031   4.205
  426TIP3   OH2 1241   2.838   4.618   5.852
  426TIP3    H1 1242   2.834   4.670   5.771
  426TIP3    H2 1243   2.882   4.537   5.827
  427TIP3   OH2 1244   0.154   5.717   1.826
  427TIP3    H1 1245   0.152   5.699   1.920
  427TIP3    H2 1246   0.246   5.737   1.807
  428TIP3   OH2 1247   3.855   5.391   5.230
  428TIP3    H1 1248   3.909   5.378   5.152
  428TIP3    H2 1249   3.767   5.408   5.195
  429TIP3   OH2 1250   1.339   1.609   5.550
  429TIP3    H1 1251   1.334   1.705   5.548
  429TIP3    H2 1252   1.333   1.584   5.457
  430TIP3   OH2 1253   1.084   4.537   4.278
  430TIP3    H1 1254   1.056   4.603   4.342
  430TIP3    H2 1255   1.100   4.458   4.330
  431TIP3   OH2 1256   2.733   0.107   3.929
  431TIP3    H1 1257   2.770   0.035   3.981
  431TIP3    H2 1258   2.662   0.066   3.879
  432TIP3   OH2 1259   4.677   6.620   5.661
  432TIP3    H1 1260   4.640   6.534   5.644
  432TIP3    H2 1261   4.612   6.681   5.626
  433TIP3   OH2 1262   4.919   2.842   4.403
  433TIP3    H1 1263   4.843   2.892   4.372
  433TIP3    H2 1264   4.942   2.785   4.331
  434TIP3   OH2 1265   1.610   0.365   3.393
  434TIP3    H1 1266   1.694   0.357   3.349
  434TIP3    H2 1267   1.609   0.455   3.428
  435TIP3   OH2 1268   0.396   3.601   4.940
  435TIP3    H1 1269   0.384   3.689   4.975
  435TIP3    H2 1270   0.344   3.545   4.997
  436TIP3   OH2 1271   0.240   6.225   5.325
  436TIP3    H1 1272   0.323   6.177   5.324
  436TIP3    H2 1273   0.242   6.275   5.406
  437TIP3   OH2 1274   4.741   1.341   4.421
  437TIP3    H1 1275   4.696   1.402   4.480
  437TIP3    H2 1276   4.672   1.306   4.365
  438TIP3   OH2 1277   4.324   1.654   2.182
  438TIP3    H1 1278   4.293   1.745   2.178
  438TIP3    H2 1279   4.348   1.633   2.092
  439TIP3   OH2 1280   5.838   0.753   0.251
  439TIP3    H1 1281   5.824   0.709   0.168
  439TIP3    H2 1282   5.932   0.766   0.257
  440TIP3   OH2 1283   1.845   1.588   0.565
  440TIP3    H1 1284   1.876   1.652   0.502
  440TIP3    H2 1285   1.753   1.573   0.543
  441TIP3   OH2 1286   1.687   6.042   5.337
  441TIP3    H1 1287   1.752   6.055   5.267
  441TIP3    H2 1288   1.703   6.114   5.397
  442TIP3   OH2 1289   6.962   0.819   3.892
  442TIP3    H1 1290   6.909   0.880   3.840
  442TIP3    H2 1291   6.937   0.837   3.983
  443TIP3   OH2 1292   3.981   1.000   4.607
  443TIP3    H1 1293   4.005   0.979   4.697
  443TIP3    H2 1294   4.062   1.030   4.566
  444TIP3   OH2 1295   0.948   2.339   4.283
  444TIP3    H1 1296   0.931   2.408   4.218
  444TIP3    H2 1297   1.024   2.292   4.249
  445TIP3   OH2 1298   3.220   2.118   2.866
  445TIP3    H1 1299   3.259   2.138   2.951
  445TIP3    H2 1300   3.140   2.069   2.887
  446TIP3   OH2 1301   5.151   3.897   2.470
  446TIP3    H1 1302   5.207   3.917   2.396
  446TIP3    H2 1303   5.175   3.808   2.496
  447TIP3   OH2 1304   0.632   6.079   4.079
  447TIP3    H1 1305   0.561   6.143   4.087
  447TIP3    H2 1306   0.614   6.033   3.997
  448TIP3   OH2 1307   1.075   5.862   3.459
  448TIP3    H1 1308   1.125   5.943   3.453
  448TIP3    H2 1309   1.010   5.868   3.389
  449TIP3   OH2 1310   2.341   5.785   2.893
  449TIP3    H1 1311   2.407   5.802   2.959
  449TIP3    H2 1312   2.380   5.719   2.836
  450TIP3   OH2 1313   6.704   0.951   3.311
  450TIP3    H1 1314   6.776   0.985   3.257
  450TIP3    H2 1315   6.734   0.962   3.401
  451TIP3   OH2 1316   3.050   0.752   0.616
  451TIP3    H1 1317   2.975   0.705   0.650
  451TIP3    H2 1318   3.118   0.740   0.682
  452TIP3   OH2 1319   4.811   5.337   3.228
  452TIP3    H1 1320   4.757   5.272   3.183
  452TIP3    H2 1321   4.819   5.304   3.318
  453TIP3   OH2 1322   2.502   0.861   2.409
  453TIP3    H1 1323   2.503   0.858   2.313
  453TIP3    H2 1324   2.477   0.772   2.435
  454TIP3   OH2 1325   6.898   0.410   5.405
  454TIP3    H1 1326   6.985   0.380   5.381
  454TIP3    H2 1327   6.875   0.357   5.482
  455TIP3   OH2 1328   6.081   5.462   3.138
  455TIP3    H1 1329   6.075   5.455   3.043
  455TIP3    H2 1330   6.162   5.511   3.154
  456TIP3   OH2 1331   2.920   3.413   4.521
  456TIP3    H1 1332   3.012   3.412   4.547
  456TIP3    H2 1333   2.886   3.329   4.549
  457TIP3   OH2 1334   4.342   4.603   4.046
  457TIP3    H1 1335   4.328   4.553   3.966
  457TIP3    H2 1336   4.437   4.610   4.054
  458TIP3   OH2 1337   4.179   5.268   4.693
  458TIP3    H1 1338   4.107   5.299   4.638
  458TIP3    H2 1339   4.217   5.348   4.729
  459TIP3   OH2 1340   4.846   6.399   5.151
  459TIP3    H1 1341   4.798   6.328   5.195
  459TIP3    H2 1342   4.841   6.376   5.058
  460TIP3   OH2 1343   6.710   3.532   2.716
  460TIP3    H1 1344   6.777   3.600   2.721
  460TIP3    H2 1345   6.642   3.561   2.777
  461TIP3   OH2 1346   1.509   1.290   3.125
  461TIP3    H1 1347   1.479   1.380   3.142
  461TIP3    H2 1348   1.563   1.268   3.201
  462TIP3   OH2 1349   7.043   1.442   1.169
  462TIP3    H1 1350   7.092   1.427   1.088
  462TIP3    H2 1351   7.035   1.356   1.209
  463TIP3   OH2 1352   2.583   3.621   2.841
  463TIP3    H1 1353   2.504   3.629   2.894
  463TIP3    H2 1354   2.602   3.528   2.840
  464TIP3   OH2 1355   2.578   4.296   3.270
  464TIP3    H1 1356   2.553   4.312   3.179
  464TIP3    H2 1357   2.667   4.329   3.277
  465TIP3   OH2 1358   0.681   1.669   4.380
  465TIP3    H1 1359   0.707   1.577   4.392
  465TIP3    H2 1360   0.666   1.677   4.285
  466TIP3   OH2 1361   3.585   3.363   1.396
  466TIP3    H1 1362   3.501   3.374   1.351
  466TIP3    H2 1363   3.564   3.372   1.489
  467TIP3   OH2 1364   2.680   5.632   3.841
  467TIP3    H1 1365   2.636   5.578   3.775
  467TIP3    H2 1366   2.702   5.713   3.795
  468TIP3   OH2 1367   1.820   2.074   5.092
  468TIP3    H1 1368   1.852   2.118   5.013
  468TIP3    H2 1369   1.859   2.123   5.164
  469TIP3   OH2 1370   0.727   2.862   3.089
  469TIP3    H1 1371   0.683   2.947   3.088
  469TIP3    H2 1372   0.820   2.882   3.098
  470TIP3   OH2 1373   2.161   0.569   3.970
  470TIP3    H1 1374   2.190   0.478   3.964
  470TIP3    H2 1375   2.071   0.563   4.003
  471TIP3   OH2 1376   3.965   5.512   5.732
  471TIP3    H1 1377   3.931   5.498   5.644
  471TIP3    H2 1378   3.895   5.559   5.778
  472TIP3   OH2 1379   5.239   3.623   2.257
  472TIP3    H1 1380   5.279   3.636   2.344
  472TIP3    H2 1381   5.220   3.711   2.226
  473TIP3   OH2 1382   2.381   2.561   5.782
  473TIP3    H1 1383   2.311   2.496   5.783
  473TIP3    H2 1384   2.382   2.594   5.692
  474TIP3   OH2 1385   2.835   0.074   2.510
  474TIP3    H1 1386   2.754   0.122   2.528
  474TIP3    H2 1387   2.810  -0.018   2.514
  475TIP3   OH2 1388   5.115   3.660   3.070
  475TIP3    H1 1389   5.038   3.716   3.063
  475TIP3    H2 1390   5.098   3.604   3.145
  476TIP3   OH2 1391   4.164   6.734   2.773
  476TIP3    H1 1392   4.082   6.687   2.786
  476TIP3    H2 1393   4.185   6.721   2.681
  477TIP3   OH2 1394   4.803   4.583   4.273
  477TIP3    H1 1395   4.802   4.496   4.312
  477TIP3    H2 1396   4.779   4.642   4.345
  478TIP3   OH2 1397   6.927   2.227   1.939
  478TIP3    H1 1398   6.866   2.156   1.960
  478TIP3    H2 1399   6.986   2.232   2.014
  479TIP3   OH2 1400   0.240   4.559   1.618
  479TIP3    H1 1401   0.280   4.477   1.644
  479TIP3    H2 1402   0.296   4.592   1.547
  480TIP3   OH2 1403   0.477   3.989   5.579
  480TIP3    H1 1404   0.545   3.922   5.590
  480TIP3    H2 1405   0.428   3.960   5.503
  481TIP3   OH2 1406   1.986   6.731   5.484
  481TIP3    H1 1407   2.003   6.818   5.521
  481TIP3    H2 1408   2.061   6.714   5.428
  482TIP3   OH2 1409   2.008   1.149   4.874
  482TIP3    H1 1410   1.978   1.059   4.859
  482TIP3    H2 1411   2.104   1.141   4.878
  483TIP3   OH2 1412   2.678   4.513   5.074
  483TIP3    H1 1413   2.758   4.463   5.092
  483TIP3    H2 1414   2.688   4.542   4.983
  484TIP3   OH2 1415   3.224   5.604   0.522
  484TIP3    H1 1416   3.163   5.540   0.557
  484TIP3    H2 1417   3.234   5.669   0.592
  485TIP3   OH2 1418   3.678   5.935   3.245
  485TIP3    H1 1419   3.624   5.914   3.321
  485TIP3    H2 1420   3.766   5.910   3.271
  486TIP3   OH2 1421   5.855   2.933   2.214
  486TIP3    H1 1422   5.768   2.899   2.236
  486TIP3    H2 1423   5.849   3.027   2.230
  487TIP3   OH2 1424   4.382   5.826   3.541
  487TIP3    H1 1425   4.410   5.748   3.494
  487TIP3    H2 1426   4.441   5.831   3.617
  488TIP3   OH2 1427   5.429   5.068   0.237
  488TIP3    H1 1428   5.410   5.044   0.328
  488TIP3    H2 1429   5.512   5.115   0.242
  489TIP3   OH2 1430   0.142   1.810   0.163
  489TIP3    H1 1431   0.107   1.896   0.186
  489TIP3    H2 1432   0.196   1.785   0.237
  490TIP3   OH2 1433   4.650   5.775   0.161
  490TIP3    H1 1434   4.590   5.757   0.088
  490TIP3    H2 1435   4.594   5.778   0.238
  491TIP3   OH2 1436   5.601   0.367   2.325
  491TIP3    H1 1437   5.602   0.383   2.420
  491TIP3    H2 1438   5.633   0.277   2.316
  492TIP3   OH2 1439   5.496   0.060   4.951
  492TIP3    H1 1440   5.437   0.136   4.959
  492TIP3    H2 1441   5.483   0.030   4.861
  493TIP3   OH2 1442   2.022   3.833   4.465
  493TIP3    H1 1443   1.962   3.846   4.539
  493TIP3    H2 1444   1.970   3.786   4.400
  494TIP3   OH2 1445   3.588   3.548   5.366
  494TIP3    H1 1446   3.498   3.536   5.396
  494TIP3    H2 1447   3.640   3.551   5.447
  495TIP3   OH2 1448   5.493   4.197   0.837
  495TIP3    H1 1449   5.473   4.141   0.762
  495TIP3    H2 1450   5.513   4.283   0.799
  496TIP3   OH2 1451   4.487   5.107   5.440
  496TIP3    H1 1452   4.438   5.147   5.368
  496TIP3    H2 1453   4.498   5.016   5.414
  497TIP3   OH2 1454   1.329   2.882   3.046
  497TIP3    H1 1455   1.405   2.838   3.084
  497TIP3    H2 1456   1.258   2.818   3.056
  498TIP3   OH2 1457   1.561   5.124   4.551
  498TIP3    H1 1458   1.574   5.076   4.469
  498TIP3    H2 1459   1.505   5.197   4.528
  499TIP3   OH2 1460   7.034   3.891   2.257
  499TIP3    H1 1461   6.980   3.946   2.199
  499TIP3    H2 1462   7.009   3.801   2.234
  500TIP3   OH2 1463   4.130   3.497   5.364
  500TIP3    H1 1464   4.041   3.465   5.377
  500TIP3    H2 1465   4.166   3.443   5.294
  501TIP3   OH2 1466   4.976   1.810   4.920
  501TIP3    H1 1467   5.065   1.778   4.909
  501TIP3    H2 1468   4.930   1.738   4.963
  502TIP3   OH2 1469   3.719   4.028   1.499
  502TIP3    H1 1470   3.683   3.977   1.426
  502TIP3    H2 1471   3.803   4.060   1.466
  503TIP3   OH2 1472   1.993   3.301   5.851
  503TIP3    H1 1473   2.001   3.206   5.840
  503TIP3    H2 1474   2.065   3.325   5.909
  504TIP3   OH2 1475   3.970   2.295   0.639
  504TIP3    H1 1476   3.881   2.327   0.656
  504TIP3    H2 1477   3.961   2.199   0.642
  505TIP3   OH2 1478   2.404   4.647   4.285
  505TIP3    H1 1479   2.491   4.669   4.318
  505TIP3    H2 1480   2.413   4.558   4.250
  506TIP3   OH2 1481   0.582   0.908   1.661
  506TIP3    H1 1482   0.573   0.997   1.628
  506TIP3    H2 1483   0.662   0.875   1.619
  507TIP3   OH2 1484   2.494   2.456   0.850
  507TIP3    H1 1485   2.560   2.505   0.800
  507TIP3    H2 1486   2.532   2.450   0.938
  508TIP3   OH2 1487   6.677   5.883   4.663
  508TIP3    H1 1488   6.597   5.906   4.617
  508TIP3    H2 1489   6.648   5.827   4.736
  509TIP3   OH2 1490   4.367   3.964   1.114
  509TIP3    H1 1491   4.317   3.942   1.192
  509TIP3    H2 1492   4.301   3.982   1.047
  510TIP3   OH2 1493   4.960   1.169   1.077
  510TIP3    H1 1494   5.028   1.229   1.109
  510TIP3    H2 1495   5.003   1.084   1.072
  511TIP3   OH2 1496   2.799   5.870   1.497
  511TIP3    H1 1497   2.747   5.802   1.539
  511TIP3    H2 1498   2.870   5.823   1.455
  512TIP3   OH2 1499   6.038   5.294   2.266
  512TIP3    H1 1500   5.978   5.318   2.337
  512TIP3    H2 1501   5.998   5.217   2.226
  513TIP3   OH2 1502   5.345   1.436   0.978
  513TIP3    H1 1503   5.289   1.460   0.904
  513TIP3    H2 1504   5.365   1.519   1.021
  514TIP3   OH2 1505   4.346   2.160   4.370
  514TIP3    H1 1506   4.389   2.189   4.450
  514TIP3    H2 1507   4.416   2.123   4.316
  515TIP3   OH2 1508   2.691   2.934   4.979
  515TIP3    H1 1509   2.630   3.007   4.983
  515TIP3    H2 1510   2.751   2.949   5.052
  516TIP3   OH2 1511   2.128   4.862   2.078
  516TIP3    H1 1512   2.130   4.886   1.985
  516TIP3    H2 1513   2.151   4.769   2.079
  517TIP3   OH2 1514   6.393   6.526   0.504
  517TIP3    H1 1515   6.469   6.583   0.498
  517TIP3    H2 1516   6.385   6.505   0.597
  518TIP3   OH2 1517   4.347   1.014   4.932
  518TIP3    H1 1518   4.323   1.076   5.001
  518TIP3    H2 1519   4.441   1.003   4.942
  519TIP3   OH2 1520   1.278   0.421   5.036
  519TIP3    H1 1521   1.312   0.367   5.107
  519TIP3    H2 1522   1.209   0.367   4.996
  520TIP3   OH2 1523   3.599   3.333   2.029
  520TIP3    H1 1524   3.525   3.335   2.091
  520TIP3    H2 1525   3.628   3.424   2.024
  521TIP3   OH2 1526   0.249   1.753   1.395
  521TIP3    H1 1527   0.219   1.816   1.460
  521TIP3    H2 1528   0.331   1.790   1.361
  522TIP3   OH2 1529   3.750   2.116   3.236
  522TIP3    H1 1530   3.801   2.179   3.288
  522TIP3    H2 1531   3.678   2.167   3.201
  523TIP3   OH2 1532   0.271   5.213   1.861
  523TIP3    H1 1533   0.210   5.261   1.918
  523TIP3    H2 1534   0.217   5.184   1.787
  524TIP3   OH2 1535   6.163   6.757   2.734
  524TIP3    H1 1536   6.118   6.722   2.811
  524TIP3    H2 1537   6.233   6.812   2.770
  525TIP3   OH2 1538   3.586   1.833   2.516
  525TIP3    H1 1539   3.558   1.894   2.447
  525TIP3    H2 1540   3.589   1.886   2.595
  526TIP3   OH2 1541   0.123   5.775   4.910
  526TIP3    H1 1542   0.121   5.870   4.901
  526TIP3    H2 1543   0.176   5.745   4.836
  527TIP3   OH2 1544   3.928   6.078   0.157
  527TIP3    H1 1545   3.883   6.121   0.230
  527TIP3    H2 1546   3.924   6.141   0.085
  528TIP3   OH2 1547   0.802   2.992   2.658
  528TIP3    H1 1548   0.792   3.082   2.628
  528TIP3    H2 1549   0.895   2.985   2.680
  529TIP3   OH2 1550   6.828   0.695   1.488
  529TIP3    H1 1551   6.850   0.603   1.478
  529TIP3    H2 1552   6.805   0.724   1.400
  530TIP3   OH2 1553   2.210   1.468   4.653
  530TIP3    H1 1554   2.193   1.531   4.584
  530TIP3    H2 1555   2.243   1.390   4.608
  531TIP3   OH2 1556   4.899   0.946   1.546
  531TIP3    H1 1557   4.896   1.021   1.487
  531TIP3    H2 1558   4.935   0.981   1.628
  532TIP3   OH2 1559   5.639   2.124   4.026
  532TIP3    H1 1560   5.598   2.056   3.974
  532TIP3    H2 1561   5.730   2.096   4.035
  533TIP3   OH2 1562   5.082   3.492   3.547
  533TIP3    H1 1563   5.062   3.542   3.626
  533TIP3    H2 1564   5.054   3.549   3.476
  534TIP3   OH2 1565   1.752   3.098   4.935
  534TIP3    H1 1566   1.698   3.114   5.012
  534TIP3    H2 1567   1.702   3.034   4.884
  535TIP3   OH2 1568   3.182   4.504   4.525
  535TIP3    H1 1569   3.192   4.586   4.478
  535TIP3    H2 1570   3.087   4.494   4.535
  536TIP3   OH2 1571   5.427   4.624   1.098
  536TIP3    H1 1572   5.505   4.635   1.043
  536TIP3    H2 1573   5.460   4.583   1.178
  537TIP3   OH2 1574   5.597   0.102   0.361
  537TIP3    H1 1575   5.532   0.103   0.432
  537TIP3    H2 1576   5.639   0.188   0.365
  538TIP3   OH2 1577   0.060   2.199   5.400
  538TIP3    H1 1578  -0.003   2.239   5.341
  538TIP3    H2 1579   0.041   2.105   5.396
  539TIP3   OH2 1580   5.476   0.865   0.669
  539TIP3    H1 1581   5.454   0.870   0.576
  539TIP3    H2 1582   5.541   0.795   0.675
  540TIP3   OH2 1583   6.802   6.663   1.967
  540TIP3    H1 1584   6.803   6.691   2.058
  540TIP3    H2 1585   6.872   6.598   1.961
  541TIP3   OH2 1586   5.484   2.474   5.679
  541TIP3    H1 1587   5.459   2.469   5.587
  541TIP3    H2 1588   5.448   2.394   5.718
  542TIP3   OH2 1589   2.070   6.650   0.933
  542TIP3    H1 1590   2.157   6.648   0.972
  542TIP3    H2 1591   2.021   6.583   0.980
  543TIP3   OH2 1592   5.756   3.640   0.385
  543TIP3    H1 1593   5.674   3.679   0.414
  543TIP3    H2 1594   5.735   3.599   0.301
  544TIP3   OH2 1595   3.002   6.129   1.880
  544TIP3    H1 1596   2.951   6.147   1.959
  544TIP3    H2 1597   2.942   6.078   1.824
  545TIP3   OH2 1598   6.449   3.430   4.963
  545TIP3    H1 1599   6.391   3.415   5.037
  545TIP3    H2 1600   6.394   3.418   4.886
  546TIP3   OH2 1601   6.932   6.032   5.824
  546TIP3    H1 1602   6.916   6.108   5.880
  546TIP3    H2 1603   6.925   6.066   5.734
  547TIP3   OH2 1604   4.174   6.428   3.235
  547TIP3    H1 1605   4.267   6.408   3.241
  547TIP3    H2 1606   4.130   6.349   3.266
  548TIP3   OH2 1607   4.684   1.859   5.342
  548TIP3    H1 1608   4.714   1.946   5.313
  548TIP3    H2 1609   4.739   1.798   5.293
  549TIP3   OH2 1610   2.835   0.175   5.668
  549TIP3    H1 1611   2.884   0.120   5.729
  549TIP3    H2 1612   2.827   0.122   5.589
  550TIP3   OH2 1613   4.110   5.470   3.865
  550TIP3    H1 1614   4.136   5.560   3.881
  550TIP3    H2 1615   4.164   5.418   3.925
  551TIP3   OH2 1616   4.083   1.332   1.284
  551TIP3    H1 1617   4.129   1.416   1.284
  551TIP3    H2 1618   3.992   1.354   1.264
  552TIP3   OH2 1619   1.555   4.965   1.268
  552TIP3    H1 1620   1.468   4.949   1.306
  552TIP3    H2 1621   1.554   4.917   1.185
  553TIP3   OH2 1622   6.290   2.484   3.382
  553TIP3    H1 1623   6.334   2.508   3.463
  553TIP3    H2 1624   6.318   2.394   3.365
  554TIP3   OH2 1625   4.132   1.174   1.667
  554TIP3    H1 1626   4.189   1.238   1.624
  554TIP3    H2 1627   4.126   1.101   1.604
  555TIP3   OH2 1628   3.368   5.006   0.052
  555TIP3    H1 1629   3.351   4.931  -0.005
  555TIP3    H2 1630   3.460   5.027   0.038
  556TIP3   OH2 1631   6.119   3.271   3.559
  556TIP3    H1 1632   6.180   3.329   3.606
  556TIP3    H2 1633   6.068   3.229   3.629
  557TIP3   OH2 1634   0.461   5.470   3.621
  557TIP3    H1 1635   0.385   5.482   3.678
  557TIP3    H2 1636   0.426   5.477   3.532
  558TIP3   OH2 1637   6.582   5.945  -0.031
  558TIP3    H1 1638   6.583   5.854  -0.003
  558TIP3    H2 1639   6.542   5.992   0.042
  559TIP3   OH2 1640   2.729   2.527   5.507
  559TIP3    H1 1641   2.816   2.540   5.546
  559TIP3    H2 1642   2.747   2.494   5.419
  560TIP3   OH2 1643   0.652   4.141   0.867
  560TIP3    H1 1644   0.651   4.164   0.774
  560TIP3    H2 1645   0.742   4.154   0.895
  561TIP3   OH2 1646   2.047   4.402   2.805
  561TIP3    H1 1647   2.065   4.344   2.730
  561TIP3    H2 1648   1.966   4.369   2.842
  562TIP3   OH2 1649   1.432   4.081   1.972
  562TIP3    H1 1650   1.479   4.112   1.895
  562TIP3    H2 1651   1.394   4.160   2.010
  563TIP3   OH2 1652   1.294   2.964   1.758
  563TIP3    H1 1653   1.277   3.051   1.794
  563TIP3    H2 1654   1.266   2.904   1.827
  564TIP3   OH2 1655   5.937   1.459   4.193
  564TIP3    H1 1656   5.903   1.413   4.270
  564TIP3    H2 1657   5.858   1.492   4.149
  565TIP3   OH2 1658   1.202   2.741   0.461
  565TIP3    H1 1659   1.262   2.666   0.450
  565TIP3    H2 1660   1.135   2.728   0.394
  566TIP3   OH2 1661   1.508   3.279   2.601
  566TIP3    H1 1662   1.434   3.222   2.619
  566TIP3    H2 1663   1.585   3.224   2.617
  567TIP3   OH2 1664   0.087   6.432   4.364
  567TIP3    H1 1665   0.096   6.407   4.272
  567TIP3    H2 1666   0.021   6.502   4.362
  568TIP3   OH2 1667   5.138   1.586   2.283
  568TIP3    H1 1668   5.198   1.656   2.258
  568TIP3    H2 1669   5.051   1.625   2.275
  569TIP3   OH2 1670   6.929   6.619   0.544
  569TIP3    H1 1671   6.965   6.647   0.629
  569TIP3    H2 1672   6.933   6.524   0.548
  570TIP3   OH2 1673   3.369   5.421   2.459
  570TIP3    H1 1674   3.373   5.469   2.376
  570TIP3    H2 1675   3.289   5.369   2.452
  571TIP3   OH2 1676   1.463   1.009   4.469
  571TIP3    H1 1677   1.476   1.100   4.442
  571TIP3    H2 1678   1.393   0.976   4.414
  572TIP3   OH2 1679   0.875   6.327   1.752
  572TIP3    H1 1680   0.893   6.421   1.754
  572TIP3    H2 1681   0.803   6.315   1.814
  573TIP3   OH2 1682   3.661   3.847   2.220
  573TIP3    H1 1683   3.706   3.894   2.290
  573TIP3    H2 1684   3.575   3.890   2.214
  574TIP3   OH2 1685   4.567   2.180   3.648
  574TIP3    H1 1686   4.541   2.159   3.738
  574TIP3    H2 1687   4.589   2.095   3.609
  575TIP3   OH2 1688   2.809   0.852   3.628
  575TIP3    H1 1689   2.828   0.946   3.622
  575TIP3    H2 1690   2.716   0.848   3.649
  576TIP3   OH2 1691   0.411   1.860   1.761
  576TIP3    H1 1692   0.319   1.849   1.737
  576TIP3    H2 1693   0.411   1.930   1.826
  577TIP3   OH2 1694   0.327   3.775   2.833
  577TIP3    H1 1695   0.314   3.741   2.921
  577TIP3    H2 1696   0.355   3.865   2.846
  578TIP3   OH2 1697   5.068   3.404   2.345
  578TIP3    H1 1698   5.138   3.469   2.347
  578TIP3    H2 1699   5.053   3.388   2.252
  579TIP3   OH2 1700   0.841   0.871   5.096
  579TIP3    H1 1701   0.891   0.854   5.175
  579TIP3    H2 1702   0.902   0.913   5.036
  580TIP3   OH2 1703   2.451   6.056   1.241
  580TIP3    H1 1704   2.475   6.144   1.213
  580TIP3    H2 1705   2.530   6.003   1.225
  581TIP3   OH2 1706   3.021   1.572   2.385
  581TIP3    H1 1707   3.034   1.525   2.467
  581TIP3    H2 1708   2.998   1.504   2.322
  582TIP3   OH2 1709   4.730   3.331   3.783
  582TIP3    H1 1710   4.726   3.426   3.771
  582TIP3    H2 1711   4.739   3.295   3.695
  583TIP3   OH2 1712   1.469   6.263   2.684
  583TIP3    H1 1713   1.450   6.278   2.776
  583TIP3    H2 1714   1.561   6.289   2.674
  584TIP3   OH2 1715   7.131   1.199   4.150
  584TIP3    H1 1716   7.116   1.283   4.107
  584TIP3    H2 1717   7.050   1.182   4.198
  585TIP3   OH2 1718   0.599   1.091   1.447
  585TIP3    H1 1719   0.522   1.079   1.392
  585TIP3    H2 1720   0.656   1.017   1.425
  586TIP3   OH2 1721   2.020   1.679   1.059
  586TIP3    H1 1722   1.991   1.766   1.086
  586TIP3    H2 1723   2.088   1.656   1.122
  587TIP3   OH2 1724   3.524   6.782   1.622
  587TIP3    H1 1725   3.599   6.821   1.667
  587TIP3    H2 1726   3.528   6.689   1.644
  588TIP3   OH2 1727   2.096   1.653   2.796
  588TIP3    H1 1728   2.163   1.593   2.829
  588TIP3    H2 1729   2.144   1.734   2.776
  589TIP3   OH2 1730   2.639   3.953   2.647
  589TIP3    H1 1731   2.560   3.916   2.687
  589TIP3    H2 1732   2.635   3.925   2.555
  590TIP3   OH2 1733   6.597   6.497   4.084
  590TIP3    H1 1734   6.546   6.548   4.021
  590TIP3    H2 1735   6.562   6.408   4.077
  591TIP3   OH2 1736   4.914   3.279   3.081
  591TIP3    H1 1737   4.995   3.314   3.118
  591TIP3    H2 1738   4.937   3.256   2.991
  592TIP3   OH2 1739   5.139   0.313   4.438
  592TIP3    H1 1740   5.194   0.381   4.478
  592TIP3    H2 1741   5.102   0.355   4.360
  593TIP3   OH2 1742   0.158   0.568   1.178
  593TIP3    H1 1743   0.167   0.616   1.095
  593TIP3    H2 1744   0.069   0.588   1.208
  594TIP3   OH2 1745   5.472   0.144   0.615
  594TIP3    H1 1746   5.457   0.206   0.687
  594TIP3    H2 1747   5.562   0.115   0.626
  595TIP3   OH2 1748   1.824   1.619   4.676
  595TIP3    H1 1749   1.797   1.672   4.751
  595TIP3    H2 1750   1.888   1.558   4.712
  596TIP3   OH2 1751   4.673   5.580   4.774
  596TIP3    H1 1752   4.583   5.591   4.805
  596TIP3    H2 1753   4.725   5.568   4.854
  597TIP3   OH2 1754   4.498   0.801   3.506
  597TIP3    H1 1755   4.566   0.836   3.449
  597TIP3    H2 1756   4.443   0.748   3.448
  598TIP3   OH2 1757   1.174   4.281   3.228
  598TIP3    H1 1758   1.203   4.205   3.278
  598TIP3    H2 1759   1.250   4.339   3.227
  599TIP3   OH2 1760   1.336   2.709   1.946
  599TIP3    H1 1761   1.426   2.682   1.928
  599TIP3    H2 1762   1.345   2.779   2.011
  600TIP3   OH2 1763   5.344   1.803   3.877
  600TIP3    H1 1764   5.413   1.849   3.829
  600TIP3    H2 1765   5.269   1.863   3.875
  601TIP3   OH2 1766   6.669   6.621   0.537
  601TIP3    H1 1767   6.759   6.654   0.533
  601TIP3    H2 1768   6.623   6.685   0.591
  602TIP3   OH2 1769   6.546   1.247   1.342
  602TIP3    H1 1770   6.589   1.174   1.388
  602TIP3    H2 1771   6.461   1.256   1.386
  603TIP3   OH2 1772   3.347   2.326   3.741
  603TIP3    H1 1773   3.354   2.246   3.688
  603TIP3    H2 1774   3.264   2.315   3.789
  604TIP3   OH2 1775   6.157   3.823   2.999
  604TIP3    H1 1776   6.080   3.854   2.951
  604TIP3    H2 1777   6.123   3.797   3.084
  605TIP3   OH2 1778   0.625   4.346   1.925
  605TIP3    H1 1779   0.585   4.260   1.939
  605TIP3    H2 1780   0.627   4.357   1.830
  606TIP3   OH2 1781   4.666   1.279   1.819
  606TIP3    H1 1782   4.619   1.358   1.794
  606TIP3    H2 1783   4.637   1.212   1.757
  607TIP3   OH2 1784   1.667   6.549   0.404
  607TIP3    H1 1785   1.688   6.636   0.438
  607TIP3    H2 1786   1.636   6.500   0.480
  608TIP3   OH2 1787   0.578   2.104   2.230
  608TIP3    H1 1788   0.645   2.042   2.199
  608TIP3    H2 1789   0.567   2.166   2.157
  609TIP3   OH2 1790   7.218   3.041   4.675
  609TIP3    H1 1791   7.205   2.974   4.743
  609TIP3    H2 1792   7.136   3.091   4.675
  610TIP3   OH2 1793   6.364   5.061   2.268
  610TIP3    H1 1794   6.323   4.982   2.233
  610TIP3    H2 1795   6.452   5.034   2.292
  611TIP3   OH2 1796   4.973   3.017   4.621
  611TIP3    H1 1797   5.004   2.962   4.550
  611TIP3    H2 1798   4.880   3.030   4.603
  612TIP3   OH2 1799   2.310   3.644   0.731
  612TIP3    H1 1800   2.278   3.575   0.789
  612TIP3    H2 1801   2.289   3.612   0.643
  613TIP3   OH2 1802   1.914   6.765   1.208
  613TIP3    H1 1803   1.886   6.838   1.263
  613TIP3    H2 1804   1.923   6.691   1.269
  614TIP3   OH2 1805   0.080   2.660   4.653
  614TIP3    H1 1806   0.087   2.654   4.749
  614TIP3    H2 1807   0.000   2.710   4.638
  615TIP3   OH2 1808   2.842   5.139   5.484
  615TIP3    H1 1809   2.835   5.074   5.414
  615TIP3    H2 1810   2.935   5.160   5.488
  616TIP3   OH2 1811   6.541   5.610   3.739
  616TIP3    H1 1812   6.598   5.636   3.811
  616TIP3    H2 1813   6.600   5.591   3.666
  617TIP3   OH2 1814   2.141   0.883   3.094
  617TIP3    H1 1815   2.108   0.868   3.006
  617TIP3    H2 1816   2.224   0.836   3.096
  618TIP3   OH2 1817   1.804   4.298   1.171
  618TIP3    H1 1818   1.715   4.269   1.151
  618TIP3    H2 1819   1.805   4.391   1.145
  619TIP3   OH2 1820   4.935   4.734   0.704
  619TIP3    H1 1821   4.973   4.646   0.706
  619TIP3    H2 1822   4.851   4.724   0.749
  620TIP3   OH2 1823   0.673   0.770   5.510
  620TIP3    H1 1824   0.580   0.787   5.519
  620TIP3    H2 1825   0.701   0.737   5.595
  621TIP3   OH2 1826   5.366   3.187   3.181
  621TIP3    H1 1827   5.377   3.232   3.265
  621TIP3    H2 1828   5.455   3.166   3.153
  622TIP3   OH2 1829   2.471   1.991   3.366
  622TIP3    H1 1830   2.479   1.896   3.374
  622TIP3    H2 1831   2.407   2.004   3.296
  623TIP3   OH2 1832   4.200   4.574   1.389
  623TIP3    H1 1833   4.216   4.545   1.479
  623TIP3    H2 1834   4.107   4.597   1.387
  624TIP3   OH2 1835   7.170   3.948   3.117
  624TIP3    H1 1836   7.165   3.960   3.022
  624TIP3    H2 1837   7.080   3.959   3.147
  625TIP3   OH2 1838   6.707   2.535   5.412
  625TIP3    H1 1839   6.769   2.588   5.463
  625TIP3    H2 1840   6.685   2.589   5.337
  626TIP3   OH2 1841   1.288   1.520   2.945
  626TIP3    H1 1842   1.383   1.520   2.962
  626TIP3    H2 1843   1.278   1.577   2.868
  627TIP3   OH2 1844   0.060   3.032   2.848
  627TIP3    H1 1845   0.083   3.062   2.760
  627TIP3    H2 1846   0.005   3.101   2.883
  628TIP3   OH2 1847   4.063   3.084   2.198
  628TIP3    H1 1848   4.086   2.997   2.167
  628TIP3    H2 1849   4.095   3.143   2.130
  629TIP3   OH2 1850   6.754   1.021   2.954
  629TIP3    H1 1851   6.666   1.020   2.991
  629TIP3    H2 1852   6.797   0.944   2.990
  630TIP3   OH2 1853   4.753   3.837   1.193
  630TIP3    H1 1854   4.669   3.853   1.150
  630TIP3    H2 1855   4.731   3.827   1.286
  631TIP3   OH2 1856   1.971   1.932   2.265
  631TIP3    H1 1857   1.916   1.902   2.193
  631TIP3    H2 1858   1.937   1.887   2.342
  632TIP3   OH2 1859   5.074   1.894   2.227
  632TIP3    H1 1860   4.981   1.895   2.247
  632TIP3    H2 1861   5.103   1.983   2.245
  633TIP3   OH2 1862   4.261   5.011   2.469
  633TIP3    H1 1863   4.231   5.080   2.410
  633TIP3    H2 1864   4.201   4.938   2.453
  634TIP3   OH2 1865   0.398   4.857   1.881
  634TIP3    H1 1866   0.418   4.763   1.888
  634TIP3    H2 1867   0.305   4.861   1.861
  635TIP3   OH2 1868   1.165   1.722   1.115
  635TIP3    H1 1869   1.088   1.770   1.147
  635TIP3    H2 1870   1.131   1.668   1.043
  636TIP3   OH2 1871   0.783   5.401   0.564
  636TIP3    H1 1872   0.827   5.333   0.615
  636TIP3    H2 1873   0.809   5.384   0.473
  637TIP3   OH2 1874   4.195   4.244   1.708
  637TIP3    H1 1875   4.282   4.229   1.670
  637TIP3    H2 1876   4.213   4.273   1.798
  638TIP3   OH2 1877   0.089   4.600   3.514
  638TIP3    H1 1878   0.037   4.675   3.543
  638TIP3    H2 1879   0.177   4.618   3.545
  639TIP3   OH2 1880   1.979   4.321   5.900
  639TIP3    H1 1881   1.943   4.361   5.821
  639TIP3    H2 1882   1.979   4.391   5.964
  640TIP3   OH2 1883   2.300   3.929   0.975
  640TIP3    H1 1884   2.245   3.851   0.972
  640TIP3    H2 1885   2.379   3.900   1.021
  641TIP3   OH2 1886   6.181   1.928   4.066
  641TIP3    H1 1887   6.205   2.014   4.030
  641TIP3    H2 1888   6.241   1.867   4.022
  642TIP3   OH2 1889   2.838   5.592   2.131
  642TIP3    H1 1890   2.874   5.525   2.189
  642TIP3    H2 1891   2.814   5.664   2.189
  643TIP3   OH2 1892   2.947   3.115   3.602
  643TIP3    H1 1893   2.943   3.076   3.689
  643TIP3    H2 1894   3.035   3.152   3.596
  644TIP3   OH2 1895   7.164   5.938   5.628
  644TIP3    H1 1896   7.103   5.868   5.649
  644TIP3    H2 1897   7.166   5.941   5.532
  645TIP3   OH2 1898   1.274   1.634   3.440
  645TIP3    H1 1899   1.332   1.694   3.488
  645TIP3    H2 1900   1.332   1.587   3.381
  646TIP3   OH2 1901   3.976   5.120   4.959
  646TIP3    H1 1902   3.954   5.050   4.898
  646TIP3    H2 1903   4.072   5.120   4.962
  647TIP3   OH2 1904   5.849   1.785   5.725
  647TIP3    H1 1905   5.908   1.856   5.698
  647TIP3    H2 1906   5.768   1.801   5.677
  648TIP3   OH2 1907   0.163   2.160   0.371
  648TIP3    H1 1908   0.145   2.247   0.335
  648TIP3    H2 1909   0.090   2.106   0.341
  649TIP3   OH2 1910   1.580   6.136  -0.016
  649TIP3    H1 1911   1.575   6.176   0.071
  649TIP3    H2 1912   1.532   6.054  -0.008
  650TIP3   OH2 1913   6.702   3.451   0.588
  650TIP3    H1 1914   6.794   3.455   0.562
  650TIP3    H2 1915   6.704   3.447   0.684
  651TIP3   OH2 1916   3.662   2.080   4.822
  651TIP3    H1 1917   3.742   2.133   4.826
  651TIP3    H2 1918   3.680   2.005   4.878
  652TIP3   OH2 1919   2.775   3.067   0.746
  652TIP3    H1 1920   2.858   3.079   0.701
  652TIP3    H2 1921   2.756   2.974   0.737
  653TIP3   OH2 1922   4.000   3.021   0.349
  653TIP3    H1 1923   4.062   3.064   0.408
  653TIP3    H2 1924   4.054   2.982   0.281
  654TIP3   OH2 1925   3.374   2.106   3.557
  654TIP3    H1 1926   3.465   2.080   3.573
  654TIP3    H2 1927   3.357   2.081   3.467
  655TIP3   OH2 1928   5.353   1.383   2.542
  655TIP3    H1 1929   5.267   1.401   2.581
  655TIP3    H2 1930   5.334   1.368   2.449
  656TIP3   OH2 1931   0.580   4.541   3.066
  656TIP3    H1 1932   0.619   4.541   2.979
  656TIP3    H2 1933   0.651   4.568   3.125
  657TIP3   OH2 1934   2.844   0.788   0.127
  657TIP3    H1 1935   2.843   0.739   0.045
  657TIP3    H2 1936   2.906   0.860   0.111
  658TIP3   OH2 1937   5.948   1.108   3.511
  658TIP3    H1 1938   5.990   1.103   3.425
  658TIP3    H2 1939   5.916   1.198   3.516
  659TIP3   OH2 1940   1.566   2.661   3.890
  659TIP3    H1 1941   1.515   2.741   3.903
  659TIP3    H2 1942   1.632   2.663   3.958
  660TIP3   OH2 1943   4.440   4.334   5.496
  660TIP3    H1 1944   4.421   4.420   5.459
  660TIP3    H2 1945   4.463   4.351   5.587
  661TIP3   OH2 1946   2.708   5.534   3.158
  661TIP3    H1 1947   2.735   5.496   3.242
  661TIP3    H2 1948   2.707   5.460   3.097
  662TIP3   OH2 1949   1.460   5.598   0.768
  662TIP3    H1 1950   1.543   5.562   0.735
  662TIP3    H2 1951   1.466   5.692   0.749
  663TIP3   OH2 1952   0.912   3.839   3.483
  663TIP3    H1 1953   0.843   3.882   3.431
  663TIP3    H2 1954   0.903   3.877   3.570
  664TIP3   OH2 1955   1.673   2.159   5.805
  664TIP3    H1 1956   1.585   2.195   5.812
  664TIP3    H2 1957   1.696   2.170   5.713
  665TIP3   OH2 1958   4.105   4.907   4.072
  665TIP3    H1 1959   4.035   4.886   4.010
  665TIP3    H2 1960   4.160   4.829   4.074
  666TIP3   OH2 1961   6.346   0.899   3.930
  666TIP3    H1 1962   6.263   0.860   3.956
  666TIP3    H2 1963   6.322   0.971   3.872
  667TIP3   OH2 1964   3.725   5.777   0.403
  667TIP3    H1 1965   3.719   5.861   0.449
  667TIP3    H2 1966   3.648   5.728   0.434
  668TIP3   OH2 1967   4.947   5.279   5.346
  668TIP3    H1 1968   4.974   5.307   5.259
  668TIP3    H2 1969   4.956   5.184   5.345
  669TIP3   OH2 1970   6.532   2.650   1.792
  669TIP3    H1 1971   6.586   2.571   1.794
  669TIP3    H2 1972   6.595   2.722   1.799
  670TIP3   OH2 1973   3.143   2.949   2.356
  670TIP3    H1 1974   3.090   2.878   2.391
  670TIP3    H2 1975   3.183   2.991   2.433
  671TIP3   OH2 1976   4.413   4.245   5.243
  671TIP3    H1 1977   4.462   4.163   5.235
  671TIP3    H2 1978   4.435   4.278   5.330
  672TIP3   OH2 1979   2.125   2.614   3.251
  672TIP3    H1 1980   2.035   2.644   3.248
  672TIP3    H2 1981   2.119   2.519   3.238
  673TIP3   OH2 1982   4.164   1.270   0.262
  673TIP3    H1 1983   4.163   1.347   0.205
  673TIP3    H2 1984   4.080   1.272   0.307
  674TIP3   OH2 1985   5.526   5.986   5.719
  674TIP3    H1 1986   5.438   6.024   5.718
  674TIP3    H2 1987   5.526   5.923   5.647
  675TIP3   OH2 1988   0.014   2.658   0.247
  675TIP3    H1 1989  -0.032   2.575   0.238
  675TIP3    H2 1990   0.080   2.643   0.315
  676TIP3   OH2 1991   6.053   6.591   5.547
  676TIP3    H1 1992   5.999   6.523   5.588
  676TIP3    H2 1993   5.996   6.668   5.545
  677TIP3   OH2 1994   0.588   4.249   5.871
  677TIP3    H1 1995   0.616   4.322   5.926
  677TIP3    H2 1996   0.622   4.171   5.914
  678TIP3   OH2 1997   3.548   5.173   1.599
  678TIP3    H1 1998   3.581   5.085   1.585
  678TIP3    H2 1999   3.588   5.225   1.529
  679TIP3   OH2 2000   0.027   1.062   1.936
  679TIP3    H1 2001   0.025   0.968   1.922
  679TIP3    H2 2002   0.094   1.095   1.876
  680TIP3   OH2 2003   0.481   4.568   4.173
  680TIP3    H1 2004   0.506   4.650   4.132
  680TIP3    H2 2005   0.464   4.508   4.100
  681TIP3   OH2 2006   2.201   1.681   5.626
  681TIP3    H1 2007   2.159   1.766   5.611
  681TIP3    H2 2008   2.134   1.617   5.601
  682TIP3   OH2 2009   6.226   5.745   4.716
  682TIP3    H1 2010   6.258   5.680   4.779
  682TIP3    H2 2011   6.195   5.818   4.770
  683TIP3   OH2 2012   1.634   2.088   2.679
  683TIP3    H1 2013   1.581   2.042   2.744
  683TIP3    H2 2014   1.608   2.050   2.595
  684TIP3   OH2 2015   1.862   1.751   4.371
  684TIP3    H1 2016   1.934   1.704   4.414
  684TIP3    H2 2017   1.788   1.740   4.431
  685TIP3   OH2 2018   6.398   0.049   0.995
  685TIP3    H1 2019   6.406   0.120   1.058
  685TIP3    H2 2020   6.472   0.061   0.935
  686TIP3   OH2 2021   3.825   2.652   0.855
  686TIP3    H1 2022   3.824   2.658   0.950
  686TIP3    H2 2023   3.831   2.558   0.837
  687TIP3   OH2 2024   1.416   6.468   3.510
  687TIP3    H1 2025   1.356   6.430   3.446
  687TIP3    H2 2026   1.359   6.505   3.578
  688TIP3   OH2 2027   5.564   3.895   0.313
  688TIP3    H1 2028   5.492   3.906   0.374
  688TIP3    H2 2029   5.643   3.908   0.366
  689TIP3   OH2 2030   5.218   6.342   2.644
  689TIP3    H1 2031   5.213   6.333   2.549
  689TIP3    H2 2032   5.175   6.426   2.662
  690TIP3   OH2 2033   0.631   0.347   1.547
  690TIP3    H1 2034   0.604   0.319   1.634
  690TIP3    H2 2035   0.568   0.415   1.523
  691TIP3   OH2 2036   6.796   6.386   1.314
  691TIP3    H1 2037   6.822   6.404   1.223
  691TIP3    H2 2038   6.864   6.428   1.367
  692TIP3   OH2 2039   2.834   2.983   2.832
  692TIP3    H1 2040   2.827   3.029   2.916
  692TIP3    H2 2041   2.915   2.933   2.838
  693TIP3   OH2 2042   0.119   4.775   2.083
  693TIP3    H1 2043   0.159   4.862   2.088
  693TIP3    H2 2044   0.059   4.773   2.157
  694TIP3   OH2 2045   0.463   4.660   4.860
  694TIP3    H1 2046   0.486   4.684   4.950
  694TIP3    H2 2047   0.491   4.735   4.808
  695TIP3   OH2 2048   6.963   5.487   5.048
  695TIP3    H1 2049   7.054   5.494   5.018
  695TIP3    H2 2050   6.955   5.553   5.116
  696TIP3   OH2 2051   1.569   1.268   0.782
  696TIP3    H1 2052   1.569   1.333   0.852
  696TIP3    H2 2053   1.521   1.194   0.819
  697TIP3   OH2 2054   2.572   0.470   3.889
  697TIP3    H1 2055   2.639   0.527   3.927
  697TIP3    H2 2056   2.559   0.503   3.801
  698TIP3   OH2 2057   4.901   6.007   1.638
  698TIP3    H1 2058   4.856   5.986   1.556
  698TIP3    H2 2059   4.979   5.951   1.639
  699TIP3   OH2 2060   4.076   3.296   1.258
  699TIP3    H1 2061   4.061   3.371   1.316
  699TIP3    H2 2062   4.049   3.327   1.172
  700TIP3   OH2 2063   0.754   2.494   5.456
  700TIP3    H1 2064   0.772   2.588   5.461
  700TIP3    H2 2065   0.810   2.463   5.385
  701TIP3   OH2 2066   5.547   0.693   4.398
  701TIP3    H1 2067   5.490   0.680   4.473
  701TIP3    H2 2068   5.603   0.615   4.395
  702TIP3   OH2 2069   3.452   3.056   3.610
  702TIP3    H1 2070   3.528   3.114   3.618
  702TIP3    H2 2071   3.482   2.986   3.552
  703TIP3   OH2 2072   4.439   6.383   0.780
  703TIP3    H1 2073   4.457   6.394   0.874
  703TIP3    H2 2074   4.524   6.393   0.738
  704TIP3   OH2 2075   4.871   2.663   0.462
  704TIP3    H1 2076   4.947   2.608   0.444
  704TIP3    H2 2077   4.895   2.749   0.429
  705TIP3   OH2 2078   5.754   1.400   0.903
  705TIP3    H1 2079   5.818   1.341   0.945
  705TIP3    H2 2080   5.796   1.486   0.906
  706TIP3   OH2 2081   3.907   1.913   4.701
  706TIP3    H1 2082   3.866   1.896   4.616
  706TIP3    H2 2083   3.836   1.945   4.756
  707TIP3   OH2 2084   3.868   4.946   2.893
  707TIP3    H1 2085   3.949   4.993   2.912
  707TIP3    H2 2086   3.845   4.974   2.804
  708TIP3   OH2 2087   0.287   1.999   5.263
  708TIP3    H1 2088   0.358   2.025   5.322
  708TIP3    H2 2089   0.268   1.908   5.287
  709TIP3   OH2 2090   4.407   1.031   2.942
  709TIP3    H1 2091   4.406   1.124   2.966
  709TIP3    H2 2092   4.418   0.984   3.025
  710TIP3   OH2 2093   0.903   5.197   2.093
  710TIP3    H1 2094   0.917   5.286   2.062
  710TIP3    H2 2095   0.815   5.174   2.061
  711TIP3   OH2 2096   6.817   3.797   1.482
  711TIP3    H1 2097   6.734   3.824   1.521
  711TIP3    H2 2098   6.800   3.796   1.388
  712TIP3   OH2 2099   2.920   3.348   3.780
  712TIP3    H1 2100   2.883   3.260   3.776
  712TIP3    H2 2101   2.962   3.361   3.694
  713TIP3   OH2 2102   2.422   3.492   4.895
  713TIP3    H1 2103   2.341   3.543   4.901
  713TIP3    H2 2104   2.446   3.496   4.803
  714TIP3   OH2 2105   2.045   3.300   5.275
  714TIP3    H1 2106   2.128   3.348   5.275
  714TIP3    H2 2107   2.069   3.210   5.253
  715TIP3   OH2 2108   6.127   2.991   1.104
  715TIP3    H1 2109   6.069   2.952   1.170
  715TIP3    H2 2110   6.207   3.012   1.153
  716TIP3   OH2 2111   5.989   0.382   0.064
  716TIP3    H1 2112   5.921   0.317   0.080
  716TIP3    H2 2113   5.942   0.463   0.048
  717TIP3   OH2 2114   1.441   6.323   3.893
  717TIP3    H1 2115   1.351   6.344   3.917
  717TIP3    H2 2116   1.438   6.232   3.864
  718TIP3   OH2 2117   1.721   4.387   5.424
  718TIP3    H1 2118   1.684   4.434   5.349
  718TIP3    H2 2119   1.646   4.365   5.479
  719TIP3   OH2 2120   1.689   3.975   4.409
  719TIP3    H1 2121   1.657   4.010   4.492
  719TIP3    H2 2122   1.686   3.880   4.420
  720TIP3   OH2 2123   5.323   2.538   3.230
  720TIP3    H1 2124   5.341   2.454   3.188
  720TIP3    H2 2125   5.404   2.559   3.276
  721TIP3   OH2 2126   6.437   4.276   4.352
  721TIP3    H1 2127   6.394   4.191   4.358
  721TIP3    H2 2128   6.386   4.333   4.410
  722TIP3   OH2 2129   2.625   5.674   4.792
  722TIP3    H1 2130   2.583   5.714   4.867
  722TIP3    H2 2131   2.717   5.665   4.817
  723TIP3   OH2 2132   2.150   4.314   0.175
  723TIP3    H1 2133   2.120   4.223   0.175
  723TIP3    H2 2134   2.148   4.340   0.267
  724TIP3   OH2 2135   5.997   0.520   3.940
  724TIP3    H1 2136   6.031   0.456   4.002
  724TIP3    H2 2137   6.067   0.530   3.875
  725TIP3   OH2 2138   1.215   2.039   3.867
  725TIP3    H1 2139   1.168   2.117   3.839
  725TIP3    H2 2140   1.155   1.993   3.924
  726TIP3   OH2 2141   0.708   4.962   1.089
  726TIP3    H1 2142   0.677   4.876   1.118
  726TIP3    H2 2143   0.629   5.017   1.088
  727TIP3   OH2 2144   0.718   1.472   3.635
  727TIP3    H1 2145   0.690   1.401   3.578
  727TIP3    H2 2146   0.745   1.542   3.576
  728TIP3   OH2 2147   6.265   5.857   3.074
  728TIP3    H1 2148   6.313   5.864   2.991
  728TIP3    H2 2149   6.191   5.916   3.064
  729TIP3   OH2 2150   0.992   1.908   0.271
  729TIP3    H1 2151   0.991   1.984   0.213
  729TIP3    H2 2152   1.004   1.945   0.358
  730TIP3   OH2 2153   0.785   5.346   3.999
  730TIP3    H1 2154   0.829   5.305   4.073
  730TIP3    H2 2155   0.815   5.437   4.000
  731TIP3   OH2 2156   3.911   3.371   3.577
  731TIP3    H1 2157   3.930   3.435   3.508
  731TIP3    H2 2158   3.930   3.418   3.658
  732TIP3   OH2 2159   4.901   4.663   0.417
  732TIP3    H1 2160   4.848   4.583   0.415
  732TIP3    H2 2161   4.902   4.689   0.509
  733TIP3   OH2 2162   3.360   2.959   1.988
  733TIP3    H1 2163   3.342   3.029   2.051
  733TIP3    H2 2164   3.274   2.922   1.967
  734TIP3   OH2 2165   3.731   6.276   5.783
  734TIP3    H1 2166   3.809   6.303   5.736
  734TIP3    H2 2167   3.666   6.344   5.762
  735TIP3   OH2 2168   5.926   6.596   4.155
  735TIP3    H1 2169   5.869   6.664   4.190
  735TIP3    H2 2170   5.931   6.530   4.224
  736TIP3   OH2 2171   6.934   5.105   1.010
  736TIP3    H1 2172   6.909   5.034   1.069
  736TIP3    H2 2173   7.012   5.073   0.964
  737TIP3   OH2 2174   2.908   4.431   4.441
  737TIP3    H1 2175   2.834   4.375   4.463
  737TIP3    H2 2176   2.953   4.385   4.371
  738TIP3   OH2 2177   0.924   5.276   2.822
  738TIP3    H1 2178   0.841   5.319   2.843
  738TIP3    H2 2179   0.975   5.281   2.903
  739TIP3   OH2 2180   2.945   5.060   2.205
  739TIP3    H1 2181   2.895   5.008   2.268
  739TIP3    H2 2182   3.024   5.007   2.189
  740TIP3   OH2 2183   5.045   2.345   2.655
  740TIP3    H1 2184   4.950   2.349   2.656
  740TIP3    H2 2185   5.074   2.434   2.637
  741TIP3   OH2 2186   3.852   1.209   4.456
  741TIP3    H1 2187   3.806   1.273   4.402
  741TIP3    H2 2188   3.942   1.241   4.460
  742TIP3   OH2 2189   0.653   6.286   1.533
  742TIP3    H1 2190   0.711   6.355   1.500
  742TIP3    H2 2191   0.699   6.204   1.513
  743TIP3   OH2 2192   6.332   2.083   2.957
  743TIP3    H1 2193   6.325   2.135   3.037
  743TIP3    H2 2194   6.426   2.077   2.940
  744TIP3   OH2 2195   0.225   0.540   0.657
  744TIP3    H1 2196   0.319   0.522   0.663
  744TIP3    H2 2197   0.208   0.546   0.564
  745TIP3   OH2 2198   0.507   0.452   3.153
  745TIP3    H1 2199   0.525   0.502   3.073
  745TIP3    H2 2200   0.417   0.421   3.142
  746TIP3   OH2 2201   0.065   4.182   1.322
  746TIP3    H1 2202  -0.008   4.238   1.298
  746TIP3    H2 2203   0.113   4.168   1.240
  747TIP3   OH2 2204   3.766   1.181   0.940
  747TIP3    H1 2205   3.830   1.180   1.011
  747TIP3    H2 2206   3.692   1.130   0.974
  748TIP3   OH2 2207   5.591   5.838   3.106
  748TIP3    H1 2208   5.580   5.809   3.197
  748TIP3    H2 2209   5.523   5.792   3.057
  749TIP3   OH2 2210   6.392   2.523   4.165
  749TIP3    H1 2211   6.429   2.456   4.107
  749TIP3    H2 2212   6.468   2.569   4.200
  750TIP3   OH2 2213   2.797   0.180   3.128
  750TIP3    H1 2214   2.812   0.224   3.044
  750TIP3    H2 2215   2.703   0.163   3.129
  751TIP3   OH2 2216   4.420   6.679   0.988
  751TIP3    H1 2217   4.494   6.637   0.944
  751TIP3    H2 2218   4.435   6.663   1.081
  752TIP3   OH2 2219   1.881   2.093   2.810
  752TIP3    H1 2220   1.818   2.028   2.841
  752TIP3    H2 2221   1.845   2.124   2.727
  753TIP3   OH2 2222   7.076   4.844   5.625
  753TIP3    H1 2223   7.020   4.819   5.698
  753TIP3    H2 2224   7.162   4.810   5.648
  754TIP3   OH2 2225   1.919   0.882   1.522
  754TIP3    H1 2226   1.847   0.944   1.523
  754TIP3    H2 2227   1.919   0.843   1.610
  755TIP3   OH2 2228   2.031   1.349   2.855
  755TIP3    H1 2229   1.989   1.377   2.774
  755TIP3    H2 2230   1.970   1.285   2.893
  756TIP3   OH2 2231   5.683   0.857   4.630
  756TIP3    H1 2232   5.689   0.766   4.658
  756TIP3    H2 2233   5.709   0.856   4.538
  757TIP3   OH2 2234   5.132   5.152   1.807
  757TIP3    H1 2235   5.090   5.229   1.845
  757TIP3    H2 2236   5.210   5.186   1.764
  758TIP3   OH2 2237   5.493   5.705   5.612
  758TIP3    H1 2238   5.586   5.722   5.602
  758TIP3    H2 2239   5.473   5.638   5.547
  759TIP3   OH2 2240   5.482   1.883   2.543
  759TIP3    H1 2241   5.535   1.844   2.473
  759TIP3    H2 2242   5.404   1.829   2.547
  760TIP3   OH2 2243   5.436   6.262   4.197
  760TIP3    H1 2244   5.443   6.169   4.219
  760TIP3    H2 2245   5.473   6.307   4.273
  761TIP3   OH2 2246   0.547   6.692   4.857
  761TIP3    H1 2247   0.619   6.748   4.829
  761TIP3    H2 2248   0.519   6.647   4.777
  762TIP3   OH2 2249   3.782   5.334   0.609
  762TIP3    H1 2250   3.865   5.293   0.585
  762TIP3    H2 2251   3.807   5.413   0.657
  763TIP3   OH2 2252   3.114   2.652   5.839
  763TIP3    H1 2253   3.030   2.677   5.878
  763TIP3    H2 2254   3.135   2.568   5.880
  764TIP3   OH2 2255   5.957   3.267   1.532
  764TIP3    H1 2256   5.935   3.195   1.474
  764TIP3    H2 2257   5.975   3.341   1.474
  765TIP3   OH2 2258   6.210   5.130   4.242
  765TIP3    H1 2259   6.201   5.218   4.280
  765TIP3    H2 2260   6.221   5.146   4.148
  766TIP3   OH2 2261   3.186   3.584   4.838
  766TIP3    H1 2262   3.104   3.632   4.827
  766TIP3    H2 2263   3.187   3.522   4.765
  767TIP3   OH2 2264   2.281   5.637   5.346
  767TIP3    H1 2265   2.250   5.611   5.259
  767TIP3    H2 2266   2.301   5.555   5.390
  768TIP3   OH2 2267   6.057   5.675   2.711
  768TIP3    H1 2268   5.962   5.683   2.710
  768TIP3    H2 2269   6.076   5.621   2.788
  769TIP3   OH2 2270   0.113   3.150   0.287
  769TIP3    H1 2271   0.027   3.142   0.328
  769TIP3    H2 2272   0.145   3.060   0.282
  770TIP3   OH2 2273   1.635   2.385   4.392
  770TIP3    H1 2274   1.666   2.339   4.314
  770TIP3    H2 2275   1.641   2.320   4.462
  771TIP3   OH2 2276   1.874   0.575   4.001
  771TIP3    H1 2277   1.817   0.638   3.957
  771TIP3    H2 2278   1.818   0.499   4.019
  772TIP3   OH2 2279   6.552   4.180   2.484
  772TIP3    H1 2280   6.569   4.085   2.484
  772TIP3    H2 2281   6.516   4.198   2.398
  773TIP3   OH2 2282   5.052   3.253   5.526
  773TIP3    H1 2283   5.064   3.183   5.462
  773TIP3    H2 2284   5.092   3.219   5.606
  774TIP3   OH2 2285   5.132   3.119   0.983
  774TIP3    H1 2286   5.104   3.183   1.049
  774TIP3    H2 2287   5.141   3.037   1.031
  775TIP3   OH2 2288   6.268   4.303   5.846
  775TIP3    H1 2289   6.274   4.256   5.929
  775TIP3    H2 2290   6.261   4.395   5.871
  776TIP3   OH2 2291   3.763   0.481   1.892
  776TIP3    H1 2292   3.798   0.466   1.979
  776TIP3    H2 2293   3.740   0.574   1.891
  777TIP3   OH2 2294   4.751   3.017   1.630
  777TIP3    H1 2295   4.772   3.051   1.543
  777TIP3    H2 2296   4.656   3.022   1.636
  778TIP3   OH2 2297   0.628   3.398   2.953
  778TIP3    H1 2298   0.607   3.484   2.991
  778TIP3    H2 2299   0.543   3.356   2.940
  779TIP3   OH2 2300   0.240   0.339   3.178
  779TIP3    H1 2301   0.245   0.249   3.212
  779TIP3    H2 2302   0.259   0.394   3.254
  780TIP3   OH2 2303   1.861   2.633   3.429
  780TIP3    H1 2304   1.773   2.663   3.452
  780TIP3    H2 2305   1.866   2.643   3.334
  781TIP3   OH2 2306   0.303   1.566   3.299
  781TIP3    H1 2307   0.212   1.584   3.323
  781TIP3    H2 2308   0.298   1.533   3.210
  782TIP3   OH2 2309   2.995   2.002   3.191
  782TIP3    H1 2310   3.031   1.937   3.251
  782TIP3    H2 2311   2.913   2.030   3.233
  783TIP3   OH2 2312   4.825   4.368   4.857
  783TIP3    H1 2313   4.873   4.447   4.831
  783TIP3    H2 2314   4.759   4.357   4.788
  784TIP3   OH2 2315   6.022   0.762   2.375
  784TIP3    H1 2316   6.047   0.748   2.284
  784TIP3    H2 2317   5.942   0.711   2.386
  785TIP3   OH2 2318   2.617   1.650   4.360
  785TIP3    H1 2319   2.612   1.617   4.270
  785TIP3    H2 2320   2.709   1.672   4.372
  786TIP3   OH2 2321   3.375   4.821   3.380
  786TIP3    H1 2322   3.299   4.775   3.345
  786TIP3    H2 2323   3.355   4.914   3.371
  787TIP3   OH2 2324   6.726   5.977   3.738
  787TIP3    H1 2325   6.631   5.966   3.735
  787TIP3    H2 2326   6.760   5.891   3.761
  788TIP3   OH2 2327   3.499   1.059   4.032
  788TIP3    H1 2328   3.419   1.097   3.995
  788TIP3    H2 2329   3.475   0.969   4.054
  789TIP3   OH2 2330   5.343   2.847   3.887
  789TIP3    H1 2331   5.342   2.831   3.982
  789TIP3    H2 2332   5.302   2.769   3.850
  790TIP3   OH2 2333   1.261   0.202   5.217
  790TIP3    H1 2334   1.245   0.198   5.312
  790TIP3    H2 2335   1.354   0.179   5.208
  791TIP3   OH2 2336   3.067   0.024   3.803
  791TIP3    H1 2337   3.073   0.054   3.713
  791TIP3    H2 2338   3.023   0.095   3.849
  792TIP3   OH2 2339   2.223   1.534   3.035
  792TIP3    H1 2340   2.169   1.495   2.967
  792TIP3    H2 2341   2.280   1.464   3.064
  793TIP3   OH2 2342   2.745   1.089   4.594
  793TIP3    H1 2343   2.677   1.073   4.660
  793TIP3    H2 2344   2.786   1.170   4.621
  794TIP3   OH2 2345   4.374   3.611   5.078
  794TIP3    H1 2346   4.358   3.559   5.157
  794TIP3    H2 2347   4.302   3.675   5.077
  795TIP3   OH2 2348   6.612   5.444   5.442
  795TIP3    H1 2349   6.519   5.425   5.446
  795TIP3    H2 2350   6.623   5.524   5.494
  796TIP3   OH2 2351   0.360   1.945   4.379
  796TIP3    H1 2352   0.283   1.990   4.415
  796TIP3    H2 2353   0.429   1.960   4.444
  797TIP3   OH2 2354   2.700   1.121   3.929
  797TIP3    H1 2355   2.607   1.105   3.909
  797TIP3    H2 2356   2.725   1.050   3.988
  798TIP3   OH2 2357   1.407   3.504   1.553
  798TIP3    H1 2358   1.412   3.508   1.458
  798TIP3    H2 2359   1.400   3.595   1.582
  799TIP3   OH2 2360   3.661   0.860   2.649
  799TIP3    H1 2361   3.756   0.856   2.649
  799TIP3    H2 2362   3.640   0.953   2.640
  800TIP3   OH2 2363   5.923   0.285   2.504
  800TIP3    H1 2364   5.976   0.324   2.575
  800TIP3    H2 2365   5.845   0.340   2.500
  801TIP3   OH2 2366   5.567   3.604   5.596
  801TIP3    H1 2367   5.552   3.512   5.617
  801TIP3    H2 2368   5.658   3.621   5.622
  802TIP3   OH2 2369   5.604   4.249   4.393
  802TIP3    H1 2370   5.623   4.246   4.487
  802TIP3    H2 2371   5.602   4.342   4.372
  803TIP3   OH2 2372   1.551   4.618   3.763
  803TIP3    H1 2373   1.613   4.688   3.745
  803TIP3    H2 2374   1.480   4.660   3.811
  804TIP3   OH2 2375   6.761   4.625   1.479
  804TIP3    H1 2376   6.668   4.638   1.459
  804TIP3    H2 2377   6.761   4.583   1.565
  805TIP3   OH2 2378   6.609   3.892   1.640
  805TIP3    H1 2379   6.584   3.984   1.632
  805TIP3    H2 2380   6.617   3.877   1.734
  806TIP3   OH2 2381   3.067   0.079   4.475
  806TIP3    H1 2382   3.128   0.095   4.402
  806TIP3    H2 2383   3.084   0.150   4.536
  807TIP3   OH2 2384   0.141   1.298   1.633
  807TIP3    H1 2385   0.130   1.382   1.588
  807TIP3    H2 2386   0.158   1.322   1.725
  808TIP3   OH2 2387   6.963   3.312   3.744
  808TIP3    H1 2388   6.953   3.347   3.655
  808TIP3    H2 2389   6.932   3.382   3.801
  809TIP3   OH2 2390   2.928   2.608   4.180
  809TIP3    H1 2391   3.018   2.576   4.175
  809TIP3    H2 2392   2.936   2.703   4.175
  810TIP3   OH2 2393   5.980   4.522   3.256
  810TIP3    H1 2394   6.073   4.504   3.242
  810TIP3    H2 2395   5.972   4.532   3.351
  811TIP3   OH2 2396   3.092   5.786   0.091
  811TIP3    H1 2397   3.144   5.714   0.127
  811TIP3    H2 2398   3.156   5.856   0.074
  812TIP3   OH2 2399   1.355   3.554   0.523
  812TIP3    H1 2400   1.411   3.610   0.468
  812TIP3    H2 2401   1.380   3.465   0.499
  813TIP3   OH2 2402   5.250   6.090   0.051
  813TIP3    H1 2403   5.242   6.077   0.146
  813TIP3    H2 2404   5.210   6.175   0.035
  814TIP3   OH2 2405   2.031   3.950   1.145
  814TIP3    H1 2406   1.949   3.979   1.184
  814TIP3    H2 2407   2.005   3.891   1.075
  815TIP3   OH2 2408   1.667   0.269   5.648
  815TIP3    H1 2409   1.672   0.341   5.711
  815TIP3    H2 2410   1.604   0.208   5.687
  816TIP3   OH2 2411   6.364   0.084   4.755
  816TIP3    H1 2412   6.385   0.014   4.695
  816TIP3    H2 2413   6.269   0.077   4.769
  817TIP3   OH2 2414   6.438   3.050   0.030
  817TIP3    H1 2415   6.494   3.124   0.004
  817TIP3    H2 2416   6.440   2.992  -0.046
  818TIP3   OH2 2417   6.377   3.127   5.084
  818TIP3    H1 2418   6.458   3.154   5.128
  818TIP3    H2 2419   6.324   3.088   5.154
  819TIP3   OH2 2420   5.564   4.717   3.845
  819TIP3    H1 2421   5.606   4.707   3.760
  819TIP3    H2 2422   5.547   4.811   3.852
  820TIP3   OH2 2423   3.094   4.619   1.722
  820TIP3    H1 2424   3.079   4.536   1.679
  820TIP3    H2 2425   3.038   4.681   1.677
  821TIP3   OH2 2426   5.124   3.393   3.219
  821TIP3    H1 2427   5.210   3.363   3.190
  821TIP3    H2 2428   5.139   3.429   3.306
  822TIP3   OH2 2429   3.583   1.446   2.711
  822TIP3    H1 2430   3.516   1.511   2.691
  822TIP3    H2 2431   3.547   1.363   2.679
  823TIP3   OH2 2432   1.047   3.982   4.830
  823TIP3    H1 2433   1.139   3.992   4.805
  823TIP3    H2 2434   1.049   3.975   4.925
  824TIP3   OH2 2435   1.517   2.209   0.411
  824TIP3    H1 2436   1.543   2.301   0.413
  824TIP3    H2 2437   1.542   2.180   0.323
  825TIP3   OH2 2438   5.379   3.508   3.083
  825TIP3    H1 2439   5.453   3.534   3.137
  825TIP3    H2 2440   5.326   3.588   3.074
  826TIP3   OH2 2441   1.296   1.820   0.623
  826TIP3    H1 2442   1.316   1.910   0.651
  826TIP3    H2 2443   1.216   1.798   0.671
  827TIP3   OH2 2444   0.244   6.405   2.884
  827TIP3    H1 2445   0.302   6.349   2.936
  827TIP3    H2 2446   0.250   6.491   2.927
  828TIP3   OH2 2447   5.168   5.253   2.424
  828TIP3    H1 2448   5.110   5.206   2.364
  828TIP3    H2 2449   5.210   5.184   2.476
  829TIP3   OH2 2450   4.949   1.403   4.259
  829TIP3    H1 2451   4.920   1.347   4.188
  829TIP3    H2 2452   4.870   1.421   4.310
  830TIP3   OH2 2453   6.910   1.102   3.239
  830TIP3    H1 2454   6.971   1.130   3.171
  830TIP3    H2 2455   6.963   1.098   3.319
  831TIP3   OH2 2456   0.791   1.702   1.383
  831TIP3    H1 2457   0.728   1.767   1.414
  831TIP3    H2 2458   0.825   1.662   1.463
  832TIP3   OH2 2459   5.687   3.389   5.309
  832TIP3    H1 2460   5.718   3.475   5.335
  832TIP3    H2 2461   5.713   3.331   5.381
  833TIP3   OH2 2462   5.314   1.272   5.892
  833TIP3    H1 2463   5.339   1.215   5.819
  833TIP3    H2 2464   5.355   1.232   5.968
  834TIP3   OH2 2465   3.720   2.406   5.688
  834TIP3    H1 2466   3.786   2.382   5.753
  834TIP3    H2 2467   3.768   2.460   5.625
  835TIP3   OH2 2468   0.607   1.580   4.829
  835TIP3    H1 2469   0.537   1.528   4.869
  835TIP3    H2 2470   0.599   1.666   4.870
  836TIP3   OH2 2471   6.791   1.888   3.716
  836TIP3    H1 2472   6.881   1.863   3.735
  836TIP3    H2 2473   6.771   1.955   3.782
  837TIP3   OH2 2474   4.967   5.234   5.745
  837TIP3    H1 2475   4.883   5.276   5.759
  837TIP3    H2 2476   5.014   5.292   5.685
  838TIP3   OH2 2477   3.626   6.531   5.707
  838TIP3    H1 2478   3.627   6.599   5.640
  838TIP3    H2 2479   3.570   6.566   5.776
  839TIP3   OH2 2480   0.108   1.662   1.950
  839TIP3    H1 2481   0.084   1.755   1.954
  839TIP3    H2 2482   0.127   1.639   2.041
  840TIP3   OH2 2483   2.391   4.105   5.100
  840TIP3    H1 2484   2.331   4.129   5.029
  840TIP3    H2 2485   2.366   4.015   5.123
  841TIP3   OH2 2486   0.573   3.106   0.895
  841TIP3    H1 2487   0.542   3.139   0.979
  841TIP3    H2 2488   0.665   3.084   0.911
  842TIP3   OH2 2489   5.801   0.796   5.130
  842TIP3    H1 2490   5.846   0.732   5.186
  842TIP3    H2 2491   5.871   0.856   5.102
  843TIP3   OH2 2492   2.566   0.978   3.558
  843TIP3    H1 2493   2.477   0.950   3.578
  843TIP3    H2 2494   2.575   0.966   3.464
  844TIP3   OH2 2495   5.573   3.217   2.598
  844TIP3    H1 2496   5.661   3.248   2.616
  844TIP3    H2 2497   5.545   3.175   2.680
  845TIP3   OH2 2498   6.330   1.007   2.399
  845TIP3    H1 2499   6.312   1.100   2.414
  845TIP3    H2 2500   6.288   0.988   2.315
  846TIP3   OH2 2501   1.966   5.423   3.054
  846TIP3    H1 2502   2.025   5.351   3.030
  846TIP3    H2 2503   2.025   5.495   3.077
  847TIP3   OH2 2504   6.441   1.235   0.564
  847TIP3    H1 2505   6.354   1.216   0.599
  847TIP3    H2 2506   6.481   1.295   0.626
  848TIP3   OH2 2507   0.847   2.740   5.569
  848TIP3    H1 2508   0.874   2.827   5.541
  848TIP3    H2 2509   0.828   2.749   5.662
  849TIP3   OH2 2510   3.015   1.575   4.244
  849TIP3    H1 2511   2.963   1.622   4.309
  849TIP3    H2 2512   3.094   1.548   4.291
  850TIP3   OH2 2513   0.354   2.960   1.853
  850TIP3    H1 2514   0.273   2.912   1.868
  850TIP3    H2 2515   0.354   2.977   1.759
  851TIP3   OH2 2516   5.948   0.174   5.796
  851TIP3    H1 2517   5.870   0.122   5.777
  851TIP3    H2 2518   5.935   0.256   5.749
  852TIP3   OH2 2519   0.858   6.744   4.975
  852TIP3    H1 2520   0.833   6.798   4.900
  852TIP3    H2 2521   0.799   6.773   5.046
  853TIP3   OH2 2522   3.140   3.322   5.420
  853TIP3    H1 2523   3.164   3.288   5.334
  853TIP3    H2 2524   3.193   3.271   5.481
  854TIP3   OH2 2525   0.746   5.861   1.256
  854TIP3    H1 2526   0.721   5.837   1.167
  854TIP3    H2 2527   0.767   5.778   1.298
  855TIP3   OH2 2528   0.526   1.510   1.888
  855TIP3    H1 2529   0.477   1.512   1.806
  855TIP3    H2 2530   0.609   1.470   1.866
  856TIP3   OH2 2531   5.057   4.085   0.924
  856TIP3    H1 2532   5.008   4.159   0.959
  856TIP3    H2 2533   5.010   4.008   0.954
  857TIP3   OH2 2534   4.551   1.340   0.215
  857TIP3    H1 2535   4.506   1.264   0.178
  857TIP3    H2 2536   4.596   1.307   0.292
  858TIP3   OH2 2537   4.735   1.065   4.814
  858TIP3    H1 2538   4.786   1.060   4.733
  858TIP3    H2 2539   4.684   1.146   4.805
  859TIP3   OH2 2540   2.348   4.558   2.938
  859TIP3    H1 2541   2.262   4.542   2.900
  859TIP3    H2 2542   2.368   4.649   2.915
  860TIP3   OH2 2543   3.727   0.183   5.081
  860TIP3    H1 2544   3.638   0.184   5.048
  860TIP3    H2 2545   3.770   0.257   5.039
  861TIP3   OH2 2546   2.999   3.732   4.195
  861TIP3    H1 2547   3.032   3.644   4.179
  861TIP3    H2 2548   3.011   3.777   4.111
  862TIP3   OH2 2549   2.716   1.457   3.744
  862TIP3    H1 2550   2.647   1.390   3.745
  862TIP3    H2 2551   2.699   1.510   3.822
  863TIP3   OH2 2552   4.451   0.200   4.684
  863TIP3    H1 2553   4.520   0.155   4.635
  863TIP3    H2 2554   4.411   0.132   4.737
  864TIP3   OH2 2555   3.308   6.502   1.493
  864TIP3    H1 2556   3.257   6.421   1.484
  864TIP3    H2 2557   3.349   6.496   1.579
  865TIP3   OH2 2558   4.093   3.950   1.517
  865TIP3    H1 2559   4.106   3.901   1.598
  865TIP3    H2 2560   4.039   4.025   1.542
  866TIP3   OH2 2561   6.536   6.298   0.339
  866TIP3    H1 2562   6.458   6.282   0.393
  866TIP3    H2 2563   6.534   6.392   0.321
  867TIP3   OH2 2564   3.066   2.604   3.118
  867TIP3    H1 2565   3.088   2.689   3.157
  867TIP3    H2 2566   2.972   2.594   3.132
  868TIP3   OH2 2567   0.931   2.921   3.753
  868TIP3    H1 2568   0.928   2.874   3.669
  868TIP3    H2 2569   0.839   2.939   3.773
  869TIP3   OH2 2570   3.380   2.499   1.745
  869TIP3    H1 2571   3.299   2.531   1.785
  869TIP3    H2 2572   3.433   2.577   1.732
  870TIP3   OH2 2573   4.916   1.803   2.875
  870TIP3    H1 2574   4.880   1.741   2.939
  870TIP3    H2 2575   5.008   1.780   2.870
  871TIP3   OH2 2576   5.211   1.474   0.711
  871TIP3    H1 2577   5.246   1.386   0.695
  871TIP3    H2 2578   5.287   1.532   0.705
  872TIP3   OH2 2579   3.553   6.701   1.138
  872TIP3    H1 2580   3.645   6.716   1.119
  872TIP3    H2 2581   3.507   6.775   1.098
  873TIP3   OH2 2582   4.249   5.548   5.296
  873TIP3    H1 2583   4.180   5.595   5.249
  873TIP3    H2 2584   4.322   5.610   5.298
  874TIP3   OH2 2585   5.464   4.687   5.715
  874TIP3    H1 2586   5.530   4.745   5.753
  874TIP3    H2 2587   5.407   4.664   5.788
  875TIP3   OH2 2588   1.830   4.353   3.771
  875TIP3    H1 2589   1.810   4.399   3.689
  875TIP3    H2 2590   1.814   4.261   3.750
  876TIP3   OH2 2591   5.155   0.112   3.796
  876TIP3    H1 2592   5.157   0.029   3.843
  876TIP3    H2 2593   5.078   0.158   3.831
  877TIP3   OH2 2594   4.753   0.079   5.208
  877TIP3    H1 2595   4.826   0.024   5.238
  877TIP3    H2 2596   4.787   0.168   5.214
  878TIP3   OH2 2597   6.060   4.553   1.823
  878TIP3    H1 2598   6.009   4.523   1.898
  878TIP3    H2 2599   6.126   4.611   1.861
  879TIP3   OH2 2600   6.823   1.028   3.540
  879TIP3    H1 2601   6.903   1.034   3.487
  879TIP3    H2 2602   6.853   0.997   3.626
  880TIP3   OH2 2603   4.634   0.448   1.741
  880TIP3    H1 2604   4.661   0.368   1.695
  880TIP3    H2 2605   4.709   0.507   1.733
  881TIP3   OH2 2606   1.034   1.546   4.461
  881TIP3    H1 2607   0.958   1.564   4.517
  881TIP3    H2 2608   1.004   1.567   4.373
  882TIP3   OH2 2609   4.862   0.033   1.432
  882TIP3    H1 2610   4.912   0.064   1.508
  882TIP3    H2 2611   4.785   0.090   1.429
  883TIP3   OH2 2612   1.713   5.962   4.913
  883TIP3    H1 2613   1.703   5.906   4.990
  883TIP3    H2 2614   1.635   5.943   4.860
  884TIP3   OH2 2615   4.346   1.333   3.312
  884TIP3    H1 2616   4.399   1.408   3.339
  884TIP3    H2 2617   4.257   1.353   3.342
  885TIP3   OH2 2618   6.630   0.312   0.476
  885TIP3    H1 2619   6.702   0.254   0.498
  885TIP3    H2 2620   6.617   0.299   0.382
  886TIP3   OH2 2621   1.402   2.569   2.836
  886TIP3    H1 2622   1.362   2.643   2.791
  886TIP3    H2 2623   1.353   2.562   2.918
  887TIP3   OH2 2624   5.280   4.037   2.679
  887TIP3    H1 2625   5.371   4.018   2.656
  887TIP3    H2 2626   5.229   4.006   2.604
  888TIP3   OH2 2627   5.456   3.277   5.218
  888TIP3    H1 2628   5.514   3.344   5.254
  888TIP3    H2 2629   5.485   3.196   5.260
  889TIP3   OH2 2630   1.164   4.721   1.167
  889TIP3    H1 2631   1.157   4.731   1.072
  889TIP3    H2 2632   1.092   4.774   1.202
  890TIP3   OH2 2633   2.023   5.863   3.712
  890TIP3    H1 2634   2.023   5.864   3.808
  890TIP3    H2 2635   2.030   5.955   3.687
  891TIP3   OH2 2636   0.367   1.880   5.577
  891TIP3    H1 2637   0.412   1.835   5.648
  891TIP3    H2 2638   0.286   1.913   5.616
  892TIP3   OH2 2639   6.173   4.246   2.861
  892TIP3    H1 2640   6.123   4.289   2.930
  892TIP3    H2 2641   6.200   4.162   2.899
  893TIP3   OH2 2642   1.457   3.164   4.411
  893TIP3    H1 2643   1.370   3.160   4.370
  893TIP3    H2 2644   1.439   3.158   4.505
  894TIP3   OH2 2645   6.785   2.863   1.390
  894TIP3    H1 2646   6.775   2.914   1.471
  894TIP3    H2 2647   6.877   2.872   1.367
  895TIP3   OH2 2648   2.270   6.278   5.522
  895TIP3    H1 2649   2.232   6.299   5.437
  895TIP3    H2 2650   2.307   6.190   5.512
  896TIP3   OH2 2651   3.379   3.941   1.568
  896TIP3    H1 2652   3.288   3.972   1.566
  896TIP3    H2 2653   3.428   4.015   1.604
  897TIP3   OH2 2654   3.192   4.247   3.246
  897TIP3    H1 2655   3.277   4.275   3.212
  897TIP3    H2 2656   3.206   4.157   3.274
  898TIP3   OH2 2657   3.395   1.054   4.487
  898TIP3    H1 2658   3.314   1.103   4.472
  898TIP3    H2 2659   3.370   0.963   4.472
  899TIP3   OH2 2660   0.545   3.511   1.820
  899TIP3    H1 2661   0.521   3.426   1.783
  899TIP3    H2 2662   0.630   3.531   1.780
  900TIP3   OH2 2663   1.076   0.148   4.678
  900TIP3    H1 2664   1.075   0.065   4.630
  900TIP3    H2 2665   1.008   0.201   4.636
  901TIP3   OH2 2666   6.405   3.023   5.743
  901TIP3    H1 2667   6.346   3.032   5.669
  901TIP3    H2 2668   6.407   2.928   5.761
  902TIP3   OH2 2669   1.747   6.693   5.840
  902TIP3    H1 2670   1.827   6.646   5.816
  902TIP3    H2 2671   1.736   6.758   5.771
  903TIP3   OH2 2672   5.068   3.499   1.738
  903TIP3    H1 2673   5.041   3.567   1.799
  903TIP3    H2 2674   4.990   3.445   1.727
  904TIP3   OH2 2675   6.670   6.313   0.585
  904TIP3    H1 2676   6.643   6.404   0.573
  904TIP3    H2 2677   6.648   6.270   0.502
  905TIP3   OH2 2678   3.042   3.289   2.988
  905TIP3    H1 2679   3.096   3.299   3.066
  905TIP3    H2 2680   2.975   3.226   3.013
  906TIP3   OH2 2681   1.533   0.486   2.158
  906TIP3    H1 2682   1.491   0.468   2.074
  906TIP3    H2 2683   1.496   0.570   2.186
  907TIP3   OH2 2684   6.680   4.973   5.649
  907TIP3    H1 2685   6.774   4.967   5.632
  907TIP3    H2 2686   6.655   4.885   5.676
  908TIP3   OH2 2687   5.962   3.035   2.790
  908TIP3    H1 2688   5.953   3.041   2.695
  908TIP3    H2 2689   6.035   3.093   2.811
  909TIP3   OH2 2690   5.516   3.849   3.515
  909TIP3    H1 2691   5.567   3.877   3.439
  909TIP3    H2 2692   5.477   3.930   3.549
  910TIP3   OH2 2693   0.966   5.559   2.740
  910TIP3    H1 2694   1.044   5.594   2.696
  910TIP3    H2 2695   0.984   5.465   2.748
  911TIP3   OH2 2696   6.036   5.899   4.849
  911TIP3    H1 2697   6.025   5.862   4.937
  911TIP3    H2 2698   5.947   5.922   4.822
  912TIP3   OH2 2699   2.654   0.498   2.688
  912TIP3    H1 2700   2.694   0.519   2.603
  912TIP3    H2 2701   2.637   0.584   2.728
  913TIP3   OH2 2702   5.374   5.213   4.551
  913TIP3    H1 2703   5.424   5.196   4.472
  913TIP3    H2 2704   5.380   5.132   4.601
  914TIP3   OH2 2705   3.740   4.802   2.412
  914TIP3    H1 2706   3.715   4.737   2.346
  914TIP3    H2 2707   3.691   4.776   2.490
  915TIP3   OH2 2708   0.169   0.070   4.734
  915TIP3    H1 2709   0.238   0.111   4.786
  915TIP3    H2 2710   0.171  -0.023   4.758
  916TIP3   OH2 2711   3.769   5.918   2.482
  916TIP3    H1 2712   3.765   5.830   2.444
  916TIP3    H2 2713   3.684   5.957   2.460
  917TIP3   OH2 2714   3.595   5.530   2.205
  917TIP3    H1 2715   3.607   5.439   2.230
  917TIP3    H2 2716   3.520   5.529   2.146
  918TIP3   OH2 2717   6.120   2.815   4.515
  918TIP3    H1 2718   6.163   2.896   4.543
  918TIP3    H2 2719   6.122   2.759   4.593
  919TIP3   OH2 2720   3.362   5.076   2.298
  919TIP3    H1 2721   3.317   5.149   2.340
  919TIP3    H2 2722   3.296   5.035   2.242
  920TIP3   OH2 2723   0.968   2.568   4.113
  920TIP3    H1 2724   0.887   2.618   4.121
  920TIP3    H2 2725   0.999   2.586   4.025
  921TIP3   OH2 2726   4.560   4.162   1.977
  921TIP3    H1 2727   4.636   4.169   2.035
  921TIP3    H2 2728   4.485   4.179   2.034
  922TIP3   OH2 2729   3.514   4.242   2.386
  922TIP3    H1 2730   3.540   4.306   2.452
  922TIP3    H2 2731   3.509   4.159   2.434
  923TIP3   OH2 2732   0.584   0.993   5.771
  923TIP3    H1 2733   0.591   1.019   5.679
  923TIP3    H2 2734   0.542   1.068   5.814
  924TIP3   OH2 2735   3.308   3.646   2.122
  924TIP3    H1 2736   3.332   3.561   2.159
  924TIP3    H2 2737   3.351   3.647   2.037
  925TIP3   OH2 2738   2.169   3.885   5.552
  925TIP3    H1 2739   2.166   3.797   5.588
  925TIP3    H2 2740   2.078   3.904   5.528
  926TIP3   OH2 2741   3.216   0.132   2.244
  926TIP3    H1 2742   3.284   0.165   2.302
  926TIP3    H2 2743   3.220   0.037   2.255
  927TIP3   OH2 2744   3.177   5.603   3.254
  927TIP3    H1 2745   3.173   5.508   3.239
  927TIP3    H2 2746   3.086   5.631   3.256
  928TIP3   OH2 2747   6.679   2.333   1.247
  928TIP3    H1 2748   6.721   2.403   1.297
  928TIP3    H2 2749   6.703   2.253   1.294
  929TIP3   OH2 2750   2.661   1.743   1.181
  929TIP3    H1 2751   2.586   1.785   1.140
  929TIP3    H2 2752   2.726   1.812   1.190
  930TIP3   OH2 2753   2.519   1.289   5.821
  930TIP3    H1 2754   2.518   1.258   5.731
  930TIP3    H2 2755   2.553   1.378   5.815
  931TIP3   OH2 2756   6.452   2.769   4.493
  931TIP3    H1 2757   6.524   2.808   4.444
  931TIP3    H2 2758   6.410   2.843   4.537
  932TIP3   OH2 2759   4.671   5.214   5.667
  932TIP3    H1 2760   4.583   5.224   5.630
  932TIP3    H2 2761   4.721   5.167   5.601
  933TIP3   OH2 2762   1.735   0.691   4.680
  933TIP3    H1 2763   1.716   0.704   4.773
  933TIP3    H2 2764   1.660   0.731   4.635
  934TIP3   OH2 2765   4.035   5.659   5.189
  934TIP3    H1 2766   4.004   5.630   5.104
  934TIP3    H2 2767   3.974   5.728   5.215
  935TIP3   OH2 2768   4.380   5.221   1.969
  935TIP3    H1 2769   4.304   5.264   1.930
  935TIP3    H2 2770   4.403   5.275   2.045
  936TIP3   OH2 2771   4.705   2.418   2.378
  936TIP3    H1 2772   4.776   2.400   2.317
  936TIP3    H2 2773   4.747   2.465   2.450
  937TIP3   OH2 2774   2.816   1.214   3.107
  937TIP3    H1 2775   2.818   1.286   3.043
  937TIP3    H2 2776   2.842   1.137   3.057
  938TIP3   OH2 2777   0.916   0.754   1.160
  938TIP3    H1 2778   0.841   0.807   1.133
  938TIP3    H2 2779   0.975   0.815   1.205
  939TIP3   OH2 2780   1.623   2.597   5.732
  939TIP3    H1 2781   1.706   2.575   5.775
  939TIP3    H2 2782   1.648   2.622   5.644
  940TIP3   OH2 2783   5.007   1.039   3.891
  940TIP3    H1 2784   5.005   1.072   3.801
  940TIP3    H2 2785   4.920   1.000   3.904
  941TIP3   OH2 2786   0.730   6.393   4.743
  941TIP3    H1 2787   0.759   6.461   4.682
  941TIP3    H2 2788   0.678   6.333   4.689
  942TIP3   OH2 2789   0.490   5.979   0.958
  942TIP3    H1 2790   0.521   5.969   0.868
  942TIP3    H2 2791   0.429   5.907   0.971
  943TIP3   OH2 2792   7.098   1.789   3.271
  943TIP3    H1 2793   7.058   1.845   3.205
  943TIP3    H2 2794   7.024   1.748   3.316
  944TIP3   OH2 2795   6.689   1.116   5.301
  944TIP3    H1 2796   6.742   1.060   5.358
  944TIP3    H2 2797   6.608   1.131   5.350
  945TIP3   OH2 2798   3.854   4.173   2.451
  945TIP3    H1 2799   3.810   4.239   2.397
  945TIP3    H2 2800   3.805   4.093   2.436
  946TIP3   OH2 2801   4.569   4.328   3.448
  946TIP3    H1 2802   4.618   4.303   3.369
  946TIP3    H2 2803   4.599   4.267   3.515
  947TIP3   OH2 2804   1.760   3.433   2.812
  947TIP3    H1 2805   1.721   3.520   2.823
  947TIP3    H2 2806   1.721   3.381   2.883
  948TIP3   OH2 2807   2.239   4.037   2.388
  948TIP3    H1 2808   2.281   4.111   2.344
  948TIP3    H2 2809   2.293   3.962   2.365
  949TIP3   OH2 2810   0.802   4.488   2.516
  949TIP3    H1 2811   0.767   4.459   2.432
  949TIP3    H2 2812   0.815   4.407   2.565
  950TIP3   OH2 2813   0.651   6.702   2.469
  950TIP3    H1 2814   0.579   6.765   2.461
  950TIP3    H2 2815   0.622   6.641   2.537
  951TIP3   OH2 2816   1.869   3.672   0.701
  951TIP3    H1 2817   1.863   3.726   0.622
  951TIP3    H2 2818   1.841   3.585   0.673
  952TIP3   OH2 2819   0.630   3.969   2.095
  952TIP3    H1 2820   0.715   3.933   2.070
  952TIP3    H2 2821   0.625   4.052   2.048
  953TIP3   OH2 2822   0.819   0.168   5.539
  953TIP3    H1 2823   0.759   0.237   5.567
  953TIP3    H2 2824   0.768   0.087   5.546
  954TIP3   OH2 2825   5.970   6.008   5.118
  954TIP3    H1 2826   5.899   5.986   5.179
  954TIP3    H2 2827   5.999   6.095   5.146
  955TIP3   OH2 2828   3.537   1.373   1.161
  955TIP3    H1 2829   3.537   1.278   1.174
  955TIP3    H2 2830   3.476   1.387   1.088
  956TIP3   OH2 2831   0.987   1.637   2.668
  956TIP3    H1 2832   1.037   1.564   2.702
  956TIP3    H2 2833   1.005   1.637   2.574
  957TIP3   OH2 2834   3.326   1.121   3.288
  957TIP3    H1 2835   3.273   1.050   3.250
  957TIP3    H2 2836   3.379   1.153   3.215
  958TIP3   OH2 2837   5.850   3.679   0.060
  958TIP3    H1 2838   5.781   3.614   0.044
  958TIP3    H2 2839   5.928   3.626   0.079
  959TIP3   OH2 2840   6.651   1.075   0.618
  959TIP3    H1 2841   6.601   1.051   0.696
  959TIP3    H2 2842   6.584   1.098   0.553
  960TIP3   OH2 2843   6.691   3.270   3.710
  960TIP3    H1 2844   6.786   3.274   3.717
  960TIP3    H2 2845   6.664   3.359   3.688
  961TIP3   OH2 2846   3.700   5.205   4.344
  961TIP3    H1 2847   3.772   5.198   4.282
  961TIP3    H2 2848   3.626   5.164   4.300
  962TIP3   OH2 2849   0.546   1.456   3.290
  962TIP3    H1 2850   0.597   1.431   3.213
  962TIP3    H2 2851   0.473   1.506   3.255
  963TIP3   OH2 2852   3.306   0.718   0.745
  963TIP3    H1 2853   3.365   0.642   0.744
  963TIP3    H2 2854   3.281   0.727   0.837
  964TIP3   OH2 2855   0.736   3.730   1.687
  964TIP3    H1 2856   0.781   3.738   1.770
  964TIP3    H2 2857   0.786   3.665   1.638
  965TIP3   OH2 2858   0.189   4.701   5.127
  965TIP3    H1 2859   0.111   4.744   5.162
  965TIP3    H2 2860   0.228   4.657   5.202
  966TIP3   OH2 2861   3.496   0.826   1.186
  966TIP3    H1 2862   3.404   0.851   1.172
  966TIP3    H2 2863   3.499   0.733   1.166
  967TIP3   OH2 2864   5.152   0.062   3.519
  967TIP3    H1 2865   5.240   0.028   3.505
  967TIP3    H2 2866   5.146   0.074   3.614
  968TIP3   OH2 2867   5.634   0.640   0.672
  968TIP3    H1 2868   5.716   0.680   0.698
  968TIP3    H2 2869   5.634   0.555   0.717
  969TIP3   OH2 2870   2.310   4.652   0.454
  969TIP3    H1 2871   2.287   4.616   0.540
  969TIP3    H2 2872   2.394   4.612   0.433
  970TIP3   OH2 2873   0.596   1.492   3.873
  970TIP3    H1 2874   0.629   1.480   3.784
  970TIP3    H2 2875   0.583   1.402   3.905
  971TIP3   OH2 2876   1.201   1.773   4.111
  971TIP3    H1 2877   1.162   1.772   4.199
  971TIP3    H2 2878   1.126   1.789   4.053
  972TIP3   OH2 2879   1.687   3.798   3.724
  972TIP3    H1 2880   1.664   3.776   3.815
  972TIP3    H2 2881   1.744   3.726   3.696
  973TIP3   OH2 2882   7.194   6.338   5.246
  973TIP3    H1 2883   7.272   6.303   5.291
  973TIP3    H2 2884   7.180   6.278   5.173
  974TIP3   OH2 2885   2.302   2.136   4.075
  974TIP3    H1 2886   2.268   2.219   4.108
  974TIP3    H2 2887   2.394   2.136   4.098
  975TIP3   OH2 2888   0.195   2.893   2.175
  975TIP3    H1 2889   0.180   2.896   2.081
  975TIP3    H2 2890   0.272   2.948   2.190
  976TIP3   OH2 2891   5.073   5.684   5.130
  976TIP3    H1 2892   5.101   5.712   5.043
  976TIP3    H2 2893   5.116   5.745   5.190
  977TIP3   OH2 2894   2.711   6.045   2.536
  977TIP3    H1 2895   2.720   5.950   2.539
  977TIP3    H2 2896   2.618   6.060   2.517
  978TIP3   OH2 2897   3.863   6.570   2.165
  978TIP3    H1 2898   3.770   6.594   2.172
  978TIP3    H2 2899   3.863   6.491   2.112
  979TIP3   OH2 2900   4.274   2.995   1.878
  979TIP3    H1 2901   4.341   2.954   1.932
  979TIP3    H2 2902   4.192   2.977   1.924
  980TIP3   OH2 2903   6.141   0.336   4.785
  980TIP3    H1 2904   6.144   0.242   4.804
  980TIP3    H2 2905   6.077   0.345   4.716
  981TIP3   OH2 2906   1.587   5.650   4.156
  981TIP3    H1 2907   1.524   5.720   4.139
  981TIP3    H2 2908   1.640   5.646   4.077
  982TIP3   OH2 2909   6.988   2.516   3.996
  982TIP3    H1 2910   6.926   2.497   4.068
  982TIP3    H2 2911   7.006   2.430   3.957
  983TIP3   OH2 2912   3.025   4.385   3.413
  983TIP3    H1 2913   3.091   4.334   3.367
  983TIP3    H2 2914   3.073   4.426   3.486
  984TIP3   OH2 2915   5.690   1.235   5.721
  984TIP3    H1 2916   5.737   1.312   5.690
  984TIP3    H2 2917   5.685   1.177   5.645
  985TIP3   OH2 2918   3.155   6.463   4.893
  985TIP3    H1 2919   3.111   6.511   4.823
  985TIP3    H2 2920   3.248   6.466   4.869
  986TIP3   OH2 2921   2.712   4.843   0.185
  986TIP3    H1 2922   2.650   4.795   0.130
  986TIP3    H2 2923   2.701   4.934   0.160
  987TIP3   OH2 2924   1.239   3.583   5.113
  987TIP3    H1 2925   1.157   3.557   5.071
  987TIP3    H2 2926   1.240   3.533   5.195
  988TIP3   OH2 2927   6.959   4.507   3.522
  988TIP3    H1 2928   7.001   4.545   3.446
  988TIP3    H2 2929   7.005   4.545   3.597
  989TIP3   OH2 2930   2.742   0.408   5.204
  989TIP3    H1 2931   2.765   0.501   5.203
  989TIP3    H2 2932   2.731   0.386   5.297
  990TIP3   OH2 2933   2.395   4.277   4.645
  990TIP3    H1 2934   2.330   4.284   4.575
  990TIP3    H2 2935   2.393   4.185   4.672
  991TIP3   OH2 2936   2.744   4.320   2.922
  991TIP3    H1 2937   2.658   4.290   2.953
  991TIP3    H2 2938   2.806   4.274   2.978
  992TIP3   OH2 2939   3.302   2.880   2.775
  992TIP3    H1 2940   3.382   2.932   2.785
  992TIP3    H2 2941   3.232   2.941   2.797
  993TIP3   OH2 2942   6.969  -0.028   2.723
  993TIP3    H1 2943   7.019  -0.002   2.645
  993TIP3    H2 2944   6.917   0.050   2.744
  994TIP3   OH2 2945   0.485   3.240   1.982
  994TIP3    H1 2946   0.539   3.319   1.971
  994TIP3    H2 2947   0.526   3.175   1.925
  995TIP3   OH2 2948   6.015   4.640   4.877
  995TIP3    H1 2949   5.991   4.675   4.791
  995TIP3    H2 2950   5.996   4.711   4.938
  996TIP3   OH2 2951   5.948   4.277   1.086
  996TIP3    H1 2952   5.864   4.312   1.118
  996TIP3    H2 2953   5.970   4.334   1.012
  997TIP3   OH2 2954   6.135   1.143   5.018
  997TIP3    H1 2955   6.166   1.124   4.930
  997TIP3    H2 2956   6.112   1.236   5.017
  998TIP3   OH2 2957   1.732   6.156   1.802
  998TIP3    H1 2958   1.792   6.082   1.818
  998TIP3    H2 2959   1.670   6.151   1.875
  999TIP3   OH2 2960   1.744   5.729   0.605
  999TIP3    H1 2961   1.737   5.700   0.514
  999TIP3    H2 2962   1.766   5.649   0.654
 1000TIP3   OH2 2963   3.985   4.287   5.462
 1000TIP3    H1 2964   4.046   4.340   5.410
 1000TIP3    H2 2965   4.007   4.197   5.440
 1001TIP3   OH2 2966   2.332   6.629   0.968
 1001TIP3    H1 2967   2.418   6.623   0.926
 1001TIP3    H2 2968   2.351   6.660   1.057
 1002TIP3   OH2 2969   1.039   2.765   5.038
 1002TIP3    H1 2970   1.025   2.793   4.947
 1002TIP3    H2 2971   1.131   2.739   5.040
 1003TIP3   OH2 2972   6.408   6.633   0.082
 1003TIP3    H1 2973   6.362   6.716   0.091
 1003TIP3    H2 2974   6.477   6.636   0.148
 1004TIP3   OH2 2975   5.282   2.559   1.757
 1004TIP3    H1 2976   5.291   2.538   1.664
 1004TIP3    H2 2977   5.319   2.484   1.803
 1005TIP3   OH2 2978   3.778   2.695   4.040
 1005TIP3    H1 2979   3.739   2.621   3.994
 1005TIP3    H2 2980   3.842   2.655   4.100
 1006TIP3   OH2 2981   6.225   2.562   5.517
 1006TIP3    H1 2982   6.278   2.488   5.547
 1006TIP3    H2 2983   6.279   2.603   5.448
 1007TIP3   OH2 2984   1.548   0.599   4.257
 1007TIP3    H1 2985   1.571   0.616   4.165
 1007TIP3    H2 2986   1.485   0.527   4.253
 1008TIP3   OH2 2987   2.526   2.915   0.606
 1008TIP3    H1 2988   2.486   2.878   0.685
 1008TIP3    H2 2989   2.599   2.856   0.586
 1009TIP3   OH2 2990   1.216   4.061   1.093
 1009TIP3    H1 2991   1.143   4.017   1.048
 1009TIP3    H2 2992   1.214   4.151   1.058
 1010TIP3   OH2 2993   5.021   6.612   2.245
 1010TIP3    H1 2994   5.038   6.692   2.294
 1010TIP3    H2 2995   4.933   6.623   2.210
 1011TIP3   OH2 2996   3.063   0.496   2.677
 1011TIP3    H1 2997   3.038   0.588   2.682
 1011TIP3    H2 2998   3.012   0.461   2.603
 1012TIP3   OH2 2999   3.705   5.719   3.686
 1012TIP3    H1 3000   3.781   5.777   3.678
 1012TIP3    H2 3001   3.727   5.659   3.757
 1013TIP3   OH2 3002   6.780   1.770   2.576
 1013TIP3    H1 3003   6.701   1.825   2.580
 1013TIP3    H2 3004   6.776   1.727   2.491
 1014TIP3   OH2 3005   2.412   5.702   1.375
 1014TIP3    H1 3006   2.436   5.734   1.461
 1014TIP3    H2 3007   2.479   5.736   1.316
 1015TIP3   OH2 3008   4.953   0.216   5.615
 1015TIP3    H1 3009   4.859   0.200   5.611
 1015TIP3    H2 3010   4.980   0.180   5.700
 1016TIP3   OH2 3011   1.509   5.505   3.224
 1016TIP3    H1 3012   1.601   5.479   3.233
 1016TIP3    H2 3013   1.486   5.543   3.309
 1017TIP3   OH2 3014   5.364   0.492   4.521
 1017TIP3    H1 3015   5.437   0.482   4.581
 1017TIP3    H2 3016   5.396   0.457   4.437
 1018TIP3   OH2 3017   4.351   2.238   0.406
 1018TIP3    H1 3018   4.408   2.169   0.371
 1018TIP3    H2 3019   4.342   2.217   0.499
 1019TIP3   OH2 3020   1.495   5.385   0.969
 1019TIP3    H1 3021   1.422   5.441   0.993
 1019TIP3    H2 3022   1.483   5.369   0.875
 1020TIP3   OH2 3023   3.916   4.752   3.072
 1020TIP3    H1 3024   3.981   4.707   3.019
 1020TIP3    H2 3025   3.886   4.825   3.017
 1021TIP3   OH2 3026   3.016   5.004   3.101
 1021TIP3    H1 3027   3.063   4.921   3.091
 1021TIP3    H2 3028   2.931   4.979   3.136
 1022TIP3   OH2 3029   6.352   1.370   3.848
 1022TIP3    H1 3030   6.367   1.276   3.843
 1022TIP3    H2 3031   6.286   1.380   3.917
 1023TIP3   OH2 3032   0.757   3.742   2.964
 1023TIP3    H1 3033   0.722   3.822   3.002
 1023TIP3    H2 3034   0.682   3.682   2.962
 1024TIP3   OH2 3035   3.155   1.358   0.833
 1024TIP3    H1 3036   3.175   1.296   0.902
 1024TIP3    H2 3037   3.074   1.325   0.794
 1025TIP3   OH2 3038   3.385   2.737   3.047
 1025TIP3    H1 3039   3.455   2.777   3.098
 1025TIP3    H2 3040   3.341   2.810   3.004
 1026TIP3   OH2 3041   1.223   5.577   5.713
 1026TIP3    H1 3042   1.262   5.526   5.642
 1026TIP3    H2 3043   1.297   5.624   5.752
 1027TIP3   OH2 3044   4.714   3.289   2.243
 1027TIP3    H1 3045   4.750   3.201   2.245
 1027TIP3    H2 3046   4.743   3.329   2.326
 1028TIP3   OH2 3047   0.659   0.385   5.580
 1028TIP3    H1 3048   0.566   0.399   5.599
 1028TIP3    H2 3049   0.702   0.465   5.611
 1029TIP3   OH2 3050   3.914   4.098   4.609
 1029TIP3    H1 3051   3.873   4.184   4.612
 1029TIP3    H2 3052   3.878   4.051   4.685
 1030TIP3   OH2 3053   2.794   4.587   2.837
 1030TIP3    H1 3054   2.709   4.622   2.810
 1030TIP3    H2 3055   2.775   4.500   2.870
 1031TIP3   OH2 3056   6.899   5.342   2.557
 1031TIP3    H1 3057   6.921   5.289   2.634
 1031TIP3    H2 3058   6.804   5.334   2.548
 1032TIP3   OH2 3059   0.413   4.257   5.657
 1032TIP3    H1 3060   0.438   4.173   5.619
 1032TIP3    H2 3061   0.473   4.268   5.731
 1033TIP3   OH2 3062   4.880   4.167   1.709
 1033TIP3    H1 3063   4.833   4.182   1.627
 1033TIP3    H2 3064   4.829   4.098   1.753
 1034TIP3   OH2 3065   6.242   5.801   0.444
 1034TIP3    H1 3066   6.234   5.769   0.534
 1034TIP3    H2 3067   6.220   5.894   0.449
 1035TIP3   OH2 3068   4.340   4.106   2.997
 1035TIP3    H1 3069   4.430   4.134   2.980
 1035TIP3    H2 3070   4.286   4.172   2.954
 1036TIP3   OH2 3071   0.410   4.301   0.912
 1036TIP3    H1 3072   0.404   4.214   0.872
 1036TIP3    H2 3073   0.483   4.343   0.868
 1037TIP3   OH2 3074   4.773   2.965   0.606
 1037TIP3    H1 3075   4.698   2.924   0.563
 1037TIP3    H2 3076   4.843   2.964   0.540
 1038TIP3   OH2 3077   3.156   1.033   5.088
 1038TIP3    H1 3078   3.098   1.110   5.094
 1038TIP3    H2 3079   3.235   1.066   5.046
 1039TIP3   OH2 3080   0.832   3.060   0.887
 1039TIP3    H1 3081   0.902   3.028   0.945
 1039TIP3    H2 3082   0.869   3.055   0.799
 1040TIP3   OH2 3083   2.428   3.830   3.543
 1040TIP3    H1 3084   2.435   3.737   3.521
 1040TIP3    H2 3085   2.490   3.841   3.615
 1041TIP3   OH2 3086   2.295   2.021   5.634
 1041TIP3    H1 3087   2.351   2.035   5.711
 1041TIP3    H2 3088   2.208   2.005   5.672
 1042TIP3   OH2 3089   4.093   5.104   2.684
 1042TIP3    H1 3090   4.145   5.033   2.647
 1042TIP3    H2 3091   4.025   5.121   2.618
 1043TIP3   OH2 3092   3.557   4.317   0.077
 1043TIP3    H1 3093   3.569   4.341  -0.015
 1043TIP3    H2 3094   3.494   4.381   0.111
 1044TIP3   OH2 3095   0.274   0.658   0.924
 1044TIP3    H1 3096   0.229   0.615   0.851
 1044TIP3    H2 3097   0.308   0.739   0.886
 1045TIP3   OH2 3098   4.927   1.035   0.110
 1045TIP3    H1 3099   4.853   1.064   0.057
 1045TIP3    H2 3100   4.945   0.946   0.080
 1046TIP3   OH2 3101   2.920   5.016   4.013
 1046TIP3    H1 3102   2.918   4.921   4.024
 1046TIP3    H2 3103   2.990   5.031   3.950
 1047TIP3   OH2 3104   1.407   6.403   4.612
 1047TIP3    H1 3105   1.407   6.498   4.620
 1047TIP3    H2 3106   1.315   6.380   4.595
 1048TIP3   OH2 3107   6.238   4.191   1.369
 1048TIP3    H1 3108   6.303   4.127   1.397
 1048TIP3    H2 3109   6.176   4.141   1.316
 1049TIP3   OH2 3110   3.832   4.127   5.674
 1049TIP3    H1 3111   3.844   4.197   5.611
 1049TIP3    H2 3112   3.891   4.057   5.646
 1050TIP3   OH2 3113   1.274   4.049   4.209
 1050TIP3    H1 3114   1.192   4.035   4.162
 1050TIP3    H2 3115   1.342   4.029   4.144
 1051TIP3   OH2 3116   2.570   6.347   3.365
 1051TIP3    H1 3117   2.609   6.342   3.278
 1051TIP3    H2 3118   2.523   6.265   3.375
 1052TIP3   OH2 3119   5.525   5.152   3.955
 1052TIP3    H1 3120   5.457   5.118   3.896
 1052TIP3    H2 3121   5.571   5.217   3.902
 1053TIP3   OH2 3122   2.826   2.191   5.640
 1053TIP3    H1 3123   2.912   2.188   5.600
 1053TIP3    H2 3124   2.834   2.256   5.710
 1054TIP3   OH2 3125   3.070   2.054   4.265
 1054TIP3    H1 3126   3.102   1.963   4.266
 1054TIP3    H2 3127   3.138   2.103   4.219
 1055TIP3   OH2 3128   5.979   0.533   0.951
 1055TIP3    H1 3129   5.948   0.454   0.907
 1055TIP3    H2 3130   6.030   0.501   1.026
 1056TIP3   OH2 3131   2.128   5.402   5.159
 1056TIP3    H1 3132   2.203   5.413   5.101
 1056TIP3    H2 3133   2.077   5.482   5.147
 1057TIP3   OH2 3134   3.259   6.541   4.093
 1057TIP3    H1 3135   3.263   6.552   4.188
 1057TIP3    H2 3136   3.248   6.629   4.059
 1058TIP3   OH2 3137   2.910   4.853   2.709
 1058TIP3    H1 3138   2.843   4.814   2.764
 1058TIP3    H2 3139   2.975   4.783   2.698
 1059TIP3   OH2 3140   5.243   2.561   0.762
 1059TIP3    H1 3141   5.227   2.608   0.680
 1059TIP3    H2 3142   5.181   2.488   0.760
 1060TIP3   OH2 3143   4.564   5.182   3.491
 1060TIP3    H1 3144   4.571   5.087   3.479
 1060TIP3    H2 3145   4.640   5.205   3.545
 1061TIP3   OH2 3146   5.612   2.074   5.301
 1061TIP3    H1 3147   5.562   2.148   5.268
 1061TIP3    H2 3148   5.697   2.111   5.326
 1062TIP3   OH2 3149   3.673   5.723   1.817
 1062TIP3    H1 3150   3.653   5.816   1.828
 1062TIP3    H2 3151   3.756   5.711   1.865
 1063TIP3   OH2 3152   4.210   2.379   4.282
 1063TIP3    H1 3153   4.253   2.361   4.198
 1063TIP3    H2 3154   4.238   2.308   4.339
 1064TIP3   OH2 3155   1.271   2.473   0.771
 1064TIP3    H1 3156   1.352   2.444   0.812
 1064TIP3    H2 3157   1.281   2.452   0.679
 1065TIP3   OH2 3158   2.579   4.317   1.744
 1065TIP3    H1 3159   2.576   4.378   1.818
 1065TIP3    H2 3160   2.641   4.250   1.771
 1066TIP3   OH2 3161   6.556   4.106   1.821
 1066TIP3    H1 3162   6.492   4.111   1.892
 1066TIP3    H2 3163   6.596   4.193   1.818
 1067TIP3   OH2 3164   7.165   5.396   2.466
 1067TIP3    H1 3165   7.114   5.337   2.521
 1067TIP3    H2 3166   7.111   5.474   2.457
 1068TIP3   OH2 3167   0.548   1.974   5.394
 1068TIP3    H1 3168   0.608   2.035   5.436
 1068TIP3    H2 3169   0.506   1.927   5.467
 1069TIP3   OH2 3170   4.272   6.413   0.239
 1069TIP3    H1 3171   4.316   6.364   0.308
 1069TIP3    H2 3172   4.185   6.431   0.275
 1070TIP3   OH2 3173   1.545   6.241   5.669
 1070TIP3    H1 3174   1.492   6.224   5.747
 1070TIP3    H2 3175   1.494   6.207   5.596
 1071TIP3   OH2 3176   1.214   5.639   3.545
 1071TIP3    H1 3177   1.153   5.566   3.533
 1071TIP3    H2 3178   1.163   5.717   3.523
 1072TIP3   OH2 3179   4.885   4.676   2.725
 1072TIP3    H1 3180   4.901   4.735   2.799
 1072TIP3    H2 3181   4.887   4.589   2.763
 1073TIP3   OH2 3182   5.129   5.749   4.152
 1073TIP3    H1 3183   5.055   5.742   4.212
 1073TIP3    H2 3184   5.107   5.824   4.096
 1074TIP3   OH2 3185   5.488   0.381   4.013
 1074TIP3    H1 3186   5.470   0.306   3.957
 1074TIP3    H2 3187   5.546   0.436   3.960
 1075TIP3   OH2 3188   0.900   0.719   5.371
 1075TIP3    H1 3189   0.941   0.769   5.442
 1075TIP3    H2 3190   0.808   0.714   5.396
 1076TIP3   OH2 3191   5.614   1.239   1.253
 1076TIP3    H1 3192   5.685   1.296   1.222
 1076TIP3    H2 3193   5.583   1.194   1.174
 1077TIP3   OH2 3194   0.571   6.511   2.647
 1077TIP3    H1 3195   0.637   6.504   2.717
 1077TIP3    H2 3196   0.543   6.421   2.631
 1078TIP3   OH2 3197   5.639   6.235   5.376
 1078TIP3    H1 3198   5.577   6.304   5.352
 1078TIP3    H2 3199   5.724   6.268   5.347
 1079TIP3   OH2 3200   1.587   5.761   3.080
 1079TIP3    H1 3201   1.563   5.669   3.077
 1079TIP3    H2 3202   1.530   5.799   3.147
 1080TIP3   OH2 3203   7.122   2.688   3.151
 1080TIP3    H1 3204   7.112   2.776   3.188
 1080TIP3    H2 3205   7.073   2.631   3.209
 1081TIP3   OH2 3206   0.766   4.033   3.332
 1081TIP3    H1 3207   0.679   4.005   3.303
 1081TIP3    H2 3208   0.749   4.110   3.387
 1082TIP3   OH2 3209   3.177   2.482   0.831
 1082TIP3    H1 3210   3.161   2.412   0.894
 1082TIP3    H2 3211   3.132   2.558   0.867
 1083TIP3   OH2 3212   6.135   3.130   1.753
 1083TIP3    H1 3213   6.070   3.088   1.808
 1083TIP3    H2 3214   6.084   3.179   1.688
 1084TIP3   OH2 3215   6.271   3.910   2.346
 1084TIP3    H1 3216   6.353   3.904   2.298
 1084TIP3    H2 3217   6.285   3.857   2.424
 1085TIP3   OH2 3218   7.029   3.931   3.943
 1085TIP3    H1 3219   7.004   3.977   3.863
 1085TIP3    H2 3220   6.977   3.971   4.012
 1086TIP3   OH2 3221   3.282   0.668   2.492
 1086TIP3    H1 3222   3.238   0.652   2.408
 1086TIP3    H2 3223   3.308   0.760   2.488
 1087TIP3   OH2 3224   5.913   5.095   1.840
 1087TIP3    H1 3225   5.831   5.119   1.796
 1087TIP3    H2 3226   5.934   5.008   1.804
 1088TIP3   OH2 3227   5.751   4.473   4.989
 1088TIP3    H1 3228   5.773   4.497   5.079
 1088TIP3    H2 3229   5.829   4.494   4.939
 1089TIP3   OH2 3230   7.020   1.637   5.627
 1089TIP3    H1 3231   7.016   1.548   5.662
 1089TIP3    H2 3232   7.034   1.693   5.703
 1090TIP3   OH2 3233   6.553   1.539   3.901
 1090TIP3    H1 3234   6.503   1.457   3.897
 1090TIP3    H2 3235   6.634   1.520   3.854
 1091TIP3   OH2 3236   6.856   5.833   5.533
 1091TIP3    H1 3237   6.763   5.812   5.522
 1091TIP3    H2 3238   6.875   5.813   5.624
 1092TIP3   OH2 3239   4.824   4.299   2.396
 1092TIP3    H1 3240   4.749   4.334   2.443
 1092TIP3    H2 3241   4.899   4.315   2.453
 1093TIP3   OH2 3242   0.832   4.255   5.247
 1093TIP3    H1 3243   0.785   4.222   5.170
 1093TIP3    H2 3244   0.901   4.311   5.212
 1094TIP3   OH2 3245   5.756   3.855   4.841
 1094TIP3    H1 3246   5.751   3.834   4.934
 1094TIP3    H2 3247   5.821   3.794   4.806
 1095TIP3   OH2 3248   6.028   5.891   1.846
 1095TIP3    H1 3249   6.064   5.823   1.790
 1095TIP3    H2 3250   5.935   5.893   1.825
 1096TIP3   OH2 3251   1.589   4.640   2.590
 1096TIP3    H1 3252   1.661   4.582   2.615
 1096TIP3    H2 3253   1.632   4.721   2.562
 1097TIP3   OH2 3254   3.920   2.677   0.512
 1097TIP3    H1 3255   3.859   2.750   0.501
 1097TIP3    H2 3256   3.872   2.615   0.568
 1098TIP3   OH2 3257   4.722   2.574   5.710
 1098TIP3    H1 3258   4.816   2.580   5.731
 1098TIP3    H2 3259   4.679   2.563   5.795
 1099TIP3   OH2 3260   4.215   1.983   5.075
 1099TIP3    H1 3261   4.277   1.989   5.147
 1099TIP3    H2 3262   4.207   2.073   5.043
 1100TIP3   OH2 3263   5.252   5.217   0.715
 1100TIP3    H1 3264   5.168   5.185   0.681
 1100TIP3    H2 3265   5.232   5.303   0.752
 1101TIP3   OH2 3266   5.291   2.058   3.633
 1101TIP3    H1 3267   5.374   2.095   3.663
 1101TIP3    H2 3268   5.232   2.133   3.625
 1102TIP3   OH2 3269   3.337   0.971   2.452
 1102TIP3    H1 3270   3.298   0.962   2.365
 1102TIP3    H2 3271   3.426   1.003   2.434
 1103TIP3   OH2 3272   4.797   5.520   5.359
 1103TIP3    H1 3273   4.830   5.432   5.342
 1103TIP3    H2 3274   4.753   5.513   5.444
 1104TIP3   OH2 3275   6.951   5.009   2.652
 1104TIP3    H1 3276   6.893   5.010   2.575
 1104TIP3    H2 3277   6.895   4.979   2.723
 1105TIP3   OH2 3278   1.757   6.692   5.193
 1105TIP3    H1 3279   1.731   6.697   5.284
 1105TIP3    H2 3280   1.800   6.776   5.175
 1106TIP3   OH2 3281   4.576   4.172   3.906
 1106TIP3    H1 3282   4.534   4.234   3.965
 1106TIP3    H2 3283   4.520   4.094   3.910
 1107TIP3   OH2 3284   3.772   2.120   5.260
 1107TIP3    H1 3285   3.682   2.152   5.254
 1107TIP3    H2 3286   3.765   2.025   5.251
 1108TIP3   OH2 3287   2.719   4.999   5.683
 1108TIP3    H1 3288   2.754   4.912   5.662
 1108TIP3    H2 3289   2.730   5.049   5.603
 1109TIP3   OH2 3290   1.245   4.547   2.139
 1109TIP3    H1 3291   1.228   4.636   2.108
 1109TIP3    H2 3292   1.226   4.550   2.232
 1110TIP3   OH2 3293   4.308   4.833   3.885
 1110TIP3    H1 3294   4.284   4.751   3.928
 1110TIP3    H2 3295   4.352   4.805   3.804
 1111TIP3   OH2 3296   2.159   1.356   5.338
 1111TIP3    H1 3297   2.248   1.344   5.303
 1111TIP3    H2 3298   2.103   1.317   5.271
 1112TIP3   OH2 3299   4.086   0.255   0.886
 1112TIP3    H1 3300   4.080   0.189   0.955
 1112TIP3    H2 3301   4.173   0.242   0.848
 1113TIP3   OH2 3302   4.238   3.113   2.834
 1113TIP3    H1 3303   4.274   3.085   2.750
 1113TIP3    H2 3304   4.309   3.164   2.874
 1114TIP3   OH2 3305   6.316   1.285   2.392
 1114TIP3    H1 3306   6.381   1.300   2.461
 1114TIP3    H2 3307   6.231   1.297   2.436
 1115TIP3   OH2 3308   1.103   3.900   5.121
 1115TIP3    H1 3309   1.074   3.922   5.210
 1115TIP3    H2 3310   1.194   3.930   5.118
 1116TIP3   OH2 3311   3.078   2.853   2.009
 1116TIP3    H1 3312   3.014   2.908   2.055
 1116TIP3    H2 3313   3.039   2.838   1.922
 1117TIP3   OH2 3314   1.309   2.210   3.639
 1117TIP3    H1 3315   1.385   2.260   3.607
 1117TIP3    H2 3316   1.341   2.120   3.643
 1118TIP3   OH2 3317   1.541   2.675   1.784
 1118TIP3    H1 3318   1.574   2.764   1.794
 1118TIP3    H2 3319   1.468   2.684   1.723
 1119TIP3   OH2 3320   0.962   3.202   2.744
 1119TIP3    H1 3321   0.994   3.135   2.805
 1119TIP3    H2 3322   1.029   3.206   2.677
 1120TIP3   OH2 3323   6.625   2.641   4.286
 1120TIP3    H1 3324   6.616   2.619   4.379
 1120TIP3    H2 3325   6.635   2.736   4.285
 1121TIP3   OH2 3326   1.966   0.531   1.726
 1121TIP3    H1 3327   2.046   0.541   1.777
 1121TIP3    H2 3328   1.935   0.442   1.747
 1122TIP3   OH2 3329   5.420   5.960   5.049
 1122TIP3    H1 3330   5.442   5.948   4.957
 1122TIP3    H2 3331   5.502   5.946   5.096
 1123TIP3   OH2 3332   6.899   6.579   1.600
 1123TIP3    H1 3333   6.824   6.599   1.543
 1123TIP3    H2 3334   6.933   6.496   1.566
 1124TIP3   OH2 3335   4.692   2.476   4.451
 1124TIP3    H1 3336   4.767   2.416   4.448
 1124TIP3    H2 3337   4.713   2.538   4.521
 1125TIP3   OH2 3338   1.285   1.589   5.265
 1125TIP3    H1 3339   1.232   1.598   5.186
 1125TIP3    H2 3340   1.375   1.596   5.235
 1126TIP3   OH2 3341   1.881   0.915   4.926
 1126TIP3    H1 3342   1.786   0.914   4.914
 1126TIP3    H2 3343   1.898   0.846   4.991
 1127TIP3   OH2 3344   2.208   4.595   5.313
 1127TIP3    H1 3345   2.163   4.531   5.369
 1127TIP3    H2 3346   2.189   4.566   5.224
 1128TIP3   OH2 3347   3.374   3.453   5.518
 1128TIP3    H1 3348   3.286   3.432   5.488
 1128TIP3    H2 3349   3.364   3.532   5.571
 1129TIP3   OH2 3350   4.548   1.782   2.818
 1129TIP3    H1 3351   4.569   1.873   2.836
 1129TIP3    H2 3352   4.498   1.753   2.894
 1130TIP3   OH2 3353   5.538   6.730   5.837
 1130TIP3    H1 3354   5.463   6.776   5.800
 1130TIP3    H2 3355   5.516   6.717   5.929
 1131TIP3   OH2 3356   4.431   2.260   1.253
 1131TIP3    H1 3357   4.358   2.297   1.303
 1131TIP3    H2 3358   4.400   2.174   1.225
 1132TIP3   OH2 3359   3.628   2.200   4.561
 1132TIP3    H1 3360   3.643   2.161   4.647
 1132TIP3    H2 3361   3.580   2.133   4.512
 1133TIP3   OH2 3362   4.946   0.735   5.796
 1133TIP3    H1 3363   4.921   0.663   5.737
 1133TIP3    H2 3364   4.985   0.691   5.872
 1134TIP3   OH2 3365   5.497   0.422   1.045
 1134TIP3    H1 3366   5.562   0.400   1.112
 1134TIP3    H2 3367   5.475   0.514   1.062
 1135TIP3   OH2 3368   4.104   2.967   2.423
 1135TIP3    H1 3369   4.072   3.034   2.362
 1135TIP3    H2 3370   4.027   2.943   2.474
 1136TIP3   OH2 3371   0.709   5.508   5.023
 1136TIP3    H1 3372   0.684   5.425   4.981
 1136TIP3    H2 3373   0.660   5.509   5.105
 1137TIP3   OH2 3374   2.220   6.026   2.737
 1137TIP3    H1 3375   2.162   5.975   2.681
 1137TIP3    H2 3376   2.254   5.963   2.801
 1138TIP3   OH2 3377   6.903   3.250   2.597
 1138TIP3    H1 3378   6.856   3.322   2.638
 1138TIP3    H2 3379   6.920   3.189   2.668
 1139TIP3   OH2 3380   2.778   2.365   5.298
 1139TIP3    H1 3381   2.833   2.427   5.251
 1139TIP3    H2 3382   2.832   2.287   5.308
 1140TIP3   OH2 3383   2.567   4.362   5.819
 1140TIP3    H1 3384   2.561   4.411   5.737
 1140TIP3    H2 3385   2.495   4.300   5.816
 1141TIP3   OH2 3386   1.287   5.594   5.280
 1141TIP3    H1 3387   1.202   5.624   5.248
 1141TIP3    H2 3388   1.301   5.644   5.360
 1142TIP3   OH2 3389   5.021   2.331   0.698
 1142TIP3    H1 3390   4.960   2.257   0.698
 1142TIP3    H2 3391   5.066   2.325   0.614
 1143TIP3   OH2 3392   3.139   2.980   0.919
 1143TIP3    H1 3393   3.221   2.942   0.949
 1143TIP3    H2 3394   3.160   3.072   0.900
 1144TIP3   OH2 3395   6.084   2.872   1.612
 1144TIP3    H1 3396   6.041   2.892   1.529
 1144TIP3    H2 3397   6.101   2.958   1.652
 1145TIP3   OH2 3398   7.019   3.139   5.083
 1145TIP3    H1 3399   7.053   3.224   5.056
 1145TIP3    H2 3400   6.963   3.158   5.158
 1146TIP3   OH2 3401   5.918   0.382   0.508
 1146TIP3    H1 3402   5.944   0.345   0.592
 1146TIP3    H2 3403   5.986   0.352   0.447
 1147TIP3   OH2 3404   1.746   5.915   5.659
 1147TIP3    H1 3405   1.802   5.921   5.582
 1147TIP3    H2 3406   1.666   5.873   5.629
 1148TIP3   OH2 3407   2.364   2.861   5.312
 1148TIP3    H1 3408   2.337   2.840   5.223
 1148TIP3    H2 3409   2.379   2.955   5.312
 1149TIP3   OH2 3410   2.646   5.022   4.052
 1149TIP3    H1 3411   2.739   5.029   4.031
 1149TIP3    H2 3412   2.634   5.081   4.127
 1150TIP3   OH2 3413   1.918   4.437   5.645
 1150TIP3    H1 3414   1.941   4.521   5.683
 1150TIP3    H2 3415   1.860   4.458   5.572
 1151TIP3   OH2 3416   5.047   5.448   5.577
 1151TIP3    H1 3417   5.115   5.516   5.569
 1151TIP3    H2 3418   5.026   5.425   5.486
 1152TIP3   OH2 3419   7.238   3.725   3.413
 1152TIP3    H1 3420   7.199   3.772   3.487
 1152TIP3    H2 3421   7.293   3.791   3.369
 1153TIP3   OH2 3422   6.990   1.698   2.929
 1153TIP3    H1 3423   7.001   1.780   2.881
 1153TIP3    H2 3424   6.962   1.635   2.863
 1154TIP3   OH2 3425   6.126   0.113   1.000
 1154TIP3    H1 3426   6.069   0.126   0.924
 1154TIP3    H2 3427   6.209   0.084   0.963
 1155TIP3   OH2 3428   3.713   3.495   0.505
 1155TIP3    H1 3429   3.748   3.584   0.494
 1155TIP3    H2 3430   3.628   3.508   0.547
 1156TIP3   OH2 3431   6.282   2.376   0.395
 1156TIP3    H1 3432   6.250   2.422   0.473
 1156TIP3    H2 3433   6.377   2.381   0.402
 1157TIP3   OH2 3434   1.204   0.965   4.355
 1157TIP3    H1 3435   1.150   0.900   4.401
 1157TIP3    H2 3436   1.142   1.018   4.306
 1158TIP3   OH2 3437   4.274   4.557   3.112
 1158TIP3    H1 3438   4.329   4.632   3.090
 1158TIP3    H2 3439   4.215   4.590   3.181
 1159TIP3   OH2 3440   0.685   6.303   1.977
 1159TIP3    H1 3441   0.739   6.238   2.021
 1159TIP3    H2 3442   0.735   6.385   1.984
 1160TIP3   OH2 3443   1.770   1.252   4.759
 1160TIP3    H1 3444   1.767   1.323   4.823
 1160TIP3    H2 3445   1.844   1.198   4.787
 1161TIP3   OH2 3446   4.326   1.990   1.270
 1161TIP3    H1 3447   4.240   1.949   1.277
 1161TIP3    H2 3448   4.369   1.943   1.199
 1162TIP3   OH2 3449   1.788   0.319   4.381
 1162TIP3    H1 3450   1.695   0.331   4.400
 1162TIP3    H2 3451   1.823   0.408   4.378
 1163TIP3   OH2 3452   3.410   6.171   0.701
 1163TIP3    H1 3453   3.489   6.117   0.689
 1163TIP3    H2 3454   3.430   6.252   0.655
 1164TIP3   OH2 3455   6.853   6.070   5.255
 1164TIP3    H1 3456   6.865   6.163   5.272
 1164TIP3    H2 3457   6.769   6.049   5.297
 1165TIP3   OH2 3458   0.027   0.270   5.686
 1165TIP3    H1 3459   0.082   0.205   5.729
 1165TIP3    H2 3460  -0.032   0.219   5.631
 1166TIP3   OH2 3461   2.733   5.855   0.744
 1166TIP3    H1 3462   2.790   5.928   0.718
 1166TIP3    H2 3463   2.784   5.777   0.723
 1167TIP3   OH2 3464   1.773   2.992   0.324
 1167TIP3    H1 3465   1.835   2.936   0.278
 1167TIP3    H2 3466   1.687   2.958   0.301
 1168TIP3   OH2 3467   1.393   2.430   4.202
 1168TIP3    H1 3468   1.472   2.401   4.157
 1168TIP3    H2 3469   1.417   2.429   4.295
 1169TIP3   OH2 3470   2.789   0.629   4.952
 1169TIP3    H1 3471   2.785   0.635   5.048
 1169TIP3    H2 3472   2.805   0.537   4.934
 1170TIP3   OH2 3473   2.579   0.511   0.486
 1170TIP3    H1 3474   2.486   0.494   0.470
 1170TIP3    H2 3475   2.588   0.508   0.581
 1171TIP3   OH2 3476   6.025   1.218   1.533
 1171TIP3    H1 3477   5.981   1.133   1.521
 1171TIP3    H2 3478   5.969   1.280   1.487
 1172TIP3   OH2 3479   4.010   2.610   3.220
 1172TIP3    H1 3480   4.103   2.603   3.244
 1172TIP3    H2 3481   4.005   2.570   3.133
 1173TIP3   OH2 3482   1.058   6.108   1.166
 1173TIP3    H1 3483   1.074   6.024   1.208
 1173TIP3    H2 3484   1.145   6.147   1.157
 1174TIP3   OH2 3485   0.142   6.612   1.660
 1174TIP3    H1 3486   0.092   6.549   1.712
 1174TIP3    H2 3487   0.133   6.582   1.570
 1175TIP3   OH2 3488   0.612   4.364   4.379
 1175TIP3    H1 3489   0.700   4.388   4.407
 1175TIP3    H2 3490   0.560   4.443   4.392
 1176TIP3   OH2 3491   5.022   6.476   1.200
 1176TIP3    H1 3492   5.083   6.402   1.193
 1176TIP3    H2 3493   4.974   6.476   1.117
 1177TIP3   OH2 3494   1.290   1.872   4.611
 1177TIP3    H1 3495   1.212   1.872   4.554
 1177TIP3    H2 3496   1.313   1.965   4.619
 1178TIP3   OH2 3497   4.840   3.545   2.947
 1178TIP3    H1 3498   4.769   3.493   2.908
 1178TIP3    H2 3499   4.808   3.569   3.034
 1179TIP3   OH2 3500   5.512   3.453   2.410
 1179TIP3    H1 3501   5.516   3.382   2.475
 1179TIP3    H2 3502   5.462   3.522   2.454
 1180TIP3   OH2 3503   1.776   5.516   5.803
 1180TIP3    H1 3504   1.825   5.443   5.841
 1180TIP3    H2 3505   1.690   5.512   5.845
 1181TIP3   OH2 3506   1.689   3.639   5.411
 1181TIP3    H1 3507   1.737   3.574   5.360
 1181TIP3    H2 3508   1.625   3.676   5.350
 1182TIP3   OH2 3509   3.046   3.905   0.838
 1182TIP3    H1 3510   3.033   3.883   0.746
 1182TIP3    H2 3511   3.013   3.994   0.847
 1183TIP3   OH2 3512   5.900   6.307   5.278
 1183TIP3    H1 3513   5.982   6.264   5.300
 1183TIP3    H2 3514   5.906   6.393   5.319
 1184TIP3   OH2 3515   6.208   1.153   2.782
 1184TIP3    H1 3516   6.241   1.104   2.856
 1184TIP3    H2 3517   6.124   1.188   2.812
 1185TIP3   OH2 3518   4.361   3.573   0.902
 1185TIP3    H1 3519   4.432   3.619   0.856
 1185TIP3    H2 3520   4.405   3.527   0.973
 1186TIP3   OH2 3521   3.247   1.578   5.584
 1186TIP3    H1 3522   3.153   1.564   5.585
 1186TIP3    H2 3523   3.260   1.650   5.523
 1187TIP3   OH2 3524   4.585   4.955   0.629
 1187TIP3    H1 3525   4.510   4.897   0.615
 1187TIP3    H2 3526   4.595   4.958   0.724
 1188TIP3   OH2 3527   6.195   3.824   1.177
 1188TIP3    H1 3528   6.204   3.796   1.268
 1188TIP3    H2 3529   6.123   3.887   1.177
 1189TIP3   OH2 3530   3.605   3.276   0.381
 1189TIP3    H1 3531   3.641   3.353   0.425
 1189TIP3    H2 3532   3.550   3.234   0.447
 1190TIP3   OH2 3533   1.568   0.893   0.652
 1190TIP3    H1 3534   1.512   0.887   0.730
 1190TIP3    H2 3535   1.581   0.801   0.626
 1191TIP3   OH2 3536   3.615   3.701   3.370
 1191TIP3    H1 3537   3.711   3.707   3.371
 1191TIP3    H2 3538   3.596   3.643   3.296
 1192TIP3   OH2 3539   6.234   6.099   1.887
 1192TIP3    H1 3540   6.139   6.097   1.883
 1192TIP3    H2 3541   6.261   6.008   1.870
 1193TIP3   OH2 3542   5.629   1.467   0.184
 1193TIP3    H1 3543   5.704   1.524   0.203
 1193TIP3    H2 3544   5.639   1.448   0.090
 1194TIP3   OH2 3545   3.580   1.854   1.597
 1194TIP3    H1 3546   3.588   1.889   1.687
 1194TIP3    H2 3547   3.604   1.928   1.541
 1195TIP3   OH2 3548   6.133   0.100   4.071
 1195TIP3    H1 3549   6.089   0.087   3.987
 1195TIP3    H2 3550   6.225   0.109   4.048
 1196TIP3   OH2 3551   4.503   3.296   4.717
 1196TIP3    H1 3552   4.564   3.333   4.781
 1196TIP3    H2 3553   4.417   3.309   4.755
 1197TIP3   OH2 3554   5.934   5.142   4.953
 1197TIP3    H1 3555   5.874   5.140   5.027
 1197TIP3    H2 3556   6.007   5.197   4.982
 1198TIP3   OH2 3557   6.483   6.176   2.000
 1198TIP3    H1 3558   6.390   6.161   1.979
 1198TIP3    H2 3559   6.530   6.129   1.931
 1199TIP3   OH2 3560   0.154   5.703   2.088
 1199TIP3    H1 3561   0.196   5.680   2.171
 1199TIP3    H2 3562   0.085   5.766   2.112
 1200TIP3   OH2 3563   1.937   0.845   4.602
 1200TIP3    H1 3564   1.876   0.799   4.659
 1200TIP3    H2 3565   1.883   0.906   4.553
 1201TIP3   OH2 3566   5.031   1.023   2.632
 1201TIP3    H1 3567   5.123   1.007   2.654
 1201TIP3    H2 3568   4.999   1.079   2.702
 1202TIP3   OH2 3569   6.177   3.106   2.212
 1202TIP3    H1 3570   6.103   3.165   2.228
 1202TIP3    H2 3571   6.208   3.082   2.299
 1203TIP3   OH2 3572   5.284   4.922   1.633
 1203TIP3    H1 3573   5.331   5.005   1.640
 1203TIP3    H2 3574   5.204   4.944   1.584
 1204TIP3   OH2 3575   3.952   3.647   2.108
 1204TIP3    H1 3576   3.974   3.703   2.182
 1204TIP3    H2 3577   3.958   3.558   2.143
 1205TIP3   OH2 3578   2.170   6.563   0.166
 1205TIP3    H1 3579   2.087   6.557   0.214
 1205TIP3    H2 3580   2.146   6.551   0.075
 1206TIP3   OH2 3581   4.570   1.300   4.214
 1206TIP3    H1 3582   4.515   1.353   4.157
 1206TIP3    H2 3583   4.634   1.259   4.155
 1207TIP3   OH2 3584   4.960   3.485   5.689
 1207TIP3    H1 3585   4.942   3.399   5.652
 1207TIP3    H2 3586   4.889   3.541   5.656
 1208TIP3   OH2 3587   2.945   1.226   3.856
 1208TIP3    H1 3588   2.862   1.181   3.870
 1208TIP3    H2 3589   2.946   1.297   3.921
 1209TIP3   OH2 3590   5.847   5.755   0.516
 1209TIP3    H1 3591   5.786   5.739   0.588
 1209TIP3    H2 3592   5.837   5.680   0.458
 1210TIP3   OH2 3593   4.793   5.906   1.146
 1210TIP3    H1 3594   4.723   5.934   1.087
 1210TIP3    H2 3595   4.850   5.983   1.153
 1211TIP3   OH2 3596   2.098   2.852   2.987
 1211TIP3    H1 3597   2.168   2.865   3.050
 1211TIP3    H2 3598   2.019   2.845   3.040
 1212TIP3   OH2 3599   0.312   1.470   3.590
 1212TIP3    H1 3600   0.352   1.471   3.502
 1212TIP3    H2 3601   0.316   1.379   3.617
 1213TIP3   OH2 3602   4.613   0.217   0.546
 1213TIP3    H1 3603   4.545   0.151   0.561
 1213TIP3    H2 3604   4.690   0.166   0.521
 1214TIP3   OH2 3605   1.478   6.787   2.946
 1214TIP3    H1 3606   1.545   6.848   2.979
 1214TIP3    H2 3607   1.414   6.844   2.903
 1215TIP3   OH2 3608   6.460   4.063   0.648
 1215TIP3    H1 3609   6.539   4.011   0.662
 1215TIP3    H2 3610   6.393   3.999   0.626
 1216TIP3   OH2 3611   5.366   6.432   5.673
 1216TIP3    H1 3612   5.318   6.467   5.598
 1216TIP3    H2 3613   5.346   6.490   5.745
 1217TIP3   OH2 3614   0.470   1.435   0.966
 1217TIP3    H1 3615   0.521   1.448   0.886
 1217TIP3    H2 3616   0.499   1.504   1.025
 1218TIP3   OH2 3617   4.909   4.059   3.634
 1218TIP3    H1 3618   4.928   4.109   3.555
 1218TIP3    H2 3619   4.974   4.090   3.698
 1219TIP3   OH2 3620   3.126   2.064   5.874
 1219TIP3    H1 3621   3.111   2.144   5.823
 1219TIP3    H2 3622   3.093   1.994   5.817
 1220TIP3   OH2 3623   5.371   1.059   1.788
 1220TIP3    H1 3624   5.338   1.021   1.707
 1220TIP3    H2 3625   5.325   1.011   1.857
 1221TIP3   OH2 3626   4.709   1.221   3.604
 1221TIP3    H1 3627   4.619   1.251   3.603
 1221TIP3    H2 3628   4.728   1.197   3.513
 1222TIP3   OH2 3629   7.019   6.686   3.328
 1222TIP3    H1 3630   7.036   6.606   3.377
 1222TIP3    H2 3631   6.952   6.732   3.380
 1223TIP3   OH2 3632   6.849   1.113   4.213
 1223TIP3    H1 3633   6.852   1.049   4.142
 1223TIP3    H2 3634   6.790   1.182   4.181
 1224TIP3   OH2 3635   4.806   1.082   4.221
 1224TIP3    H1 3636   4.858   1.018   4.270
 1224TIP3    H2 3637   4.754   1.030   4.160
 1225TIP3   OH2 3638   4.033   6.066   3.239
 1225TIP3    H1 3639   4.127   6.057   3.255
 1225TIP3    H2 3640   3.995   5.989   3.281
 1226TIP3   OH2 3641   5.769   6.147   5.609
 1226TIP3    H1 3642   5.710   6.179   5.540
 1226TIP3    H2 3643   5.711   6.129   5.683
 1227TIP3   OH2 3644   2.046   1.449   5.580
 1227TIP3    H1 3645   2.105   1.405   5.518
 1227TIP3    H2 3646   2.067   1.409   5.664
 1228TIP3   OH2 3647   1.958   1.074   5.268
 1228TIP3    H1 3648   2.029   1.041   5.212
 1228TIP3    H2 3649   1.928   1.153   5.223
 1229TIP3   OH2 3650   1.554   2.520   3.320
 1229TIP3    H1 3651   1.628   2.492   3.373
 1229TIP3    H2 3652   1.589   2.526   3.231
 1230TIP3   OH2 3653   4.850   1.564   5.265
 1230TIP3    H1 3654   4.849   1.541   5.358
 1230TIP3    H2 3655   4.799   1.494   5.223
 1231TIP3   OH2 3656   3.549   3.115   1.831
 1231TIP3    H1 3657   3.570   3.179   1.899
 1231TIP3    H2 3658   3.557   3.164   1.749
 1232TIP3   OH2 3659   7.152   2.617   5.369
 1232TIP3    H1 3660   7.136   2.679   5.440
 1232TIP3    H2 3661   7.076   2.626   5.312
 1233TIP3   OH2 3662   0.098   6.080   1.014
 1233TIP3    H1 3663   0.189   6.107   1.024
 1233TIP3    H2 3664   0.058   6.099   1.099
 1234TIP3   OH2 3665   6.943   5.658   5.300
 1234TIP3    H1 3666   6.986   5.632   5.381
 1234TIP3    H2 3667   6.878   5.722   5.326
 1235TIP3   OH2 3668   0.801   1.730   3.763
 1235TIP3    H1 3669   0.792   1.637   3.743
 1235TIP3    H2 3670   0.738   1.772   3.705
 1236TIP3   OH2 3671   3.066   1.564   1.552
 1236TIP3    H1 3672   2.984   1.613   1.553
 1236TIP3    H2 3673   3.041   1.478   1.518
 1237TIP3   OH2 3674   0.714   4.389   5.661
 1237TIP3    H1 3675   0.668   4.344   5.732
 1237TIP3    H2 3676   0.713   4.327   5.588
 1238TIP3   OH2 3677   1.305   6.381   5.473
 1238TIP3    H1 3678   1.386   6.433   5.476
 1238TIP3    H2 3679   1.298   6.354   5.381
 1239TIP3   OH2 3680   5.414   4.620   0.108
 1239TIP3    H1 3681   5.325   4.642   0.082
 1239TIP3    H2 3682   5.405   4.541   0.161
 1240TIP3   OH2 3683   2.674   3.900   4.682
 1240TIP3    H1 3684   2.598   3.875   4.735
 1240TIP3    H2 3685   2.748   3.896   4.742
 1241TIP3   OH2 3686   2.199   0.186   3.810
 1241TIP3    H1 3687   2.253   0.202   3.888
 1241TIP3    H2 3688   2.130   0.127   3.840
 1242TIP3   OH2 3689   7.167   4.325   0.103
 1242TIP3    H1 3690   7.197   4.235   0.085
 1242TIP3    H2 3691   7.127   4.320   0.190
 1243TIP3   OH2 3692   5.049   2.869   1.451
 1243TIP3    H1 3693   4.988   2.943   1.451
 1243TIP3    H2 3694   4.994   2.792   1.438
 1244TIP3   OH2 3695   5.267   6.060   1.522
 1244TIP3    H1 3696   5.232   6.134   1.571
 1244TIP3    H2 3697   5.194   6.030   1.468
 1245TIP3   OH2 3698   6.068   4.262   3.138
 1245TIP3    H1 3699   6.022   4.182   3.112
 1245TIP3    H2 3700   6.021   4.292   3.216
 1246TIP3   OH2 3701   2.152   1.859   4.264
 1246TIP3    H1 3702   2.091   1.920   4.222
 1246TIP3    H2 3703   2.218   1.916   4.304
 1247TIP3   OH2 3704   2.147   5.219   4.642
 1247TIP3    H1 3705   2.056   5.218   4.613
 1247TIP3    H2 3706   2.159   5.306   4.679
 1248TIP3   OH2 3707   7.237   3.242   1.850
 1248TIP3    H1 3708   7.154   3.287   1.864
 1248TIP3    H2 3709   7.297   3.280   1.914
 1249TIP3   OH2 3710   0.158   4.587   4.889
 1249TIP3    H1 3711   0.182   4.660   4.832
 1249TIP3    H2 3712   0.182   4.617   4.977
 1250TIP3   OH2 3713   6.362   0.166   3.941
 1250TIP3    H1 3714   6.418   0.180   3.865
 1250TIP3    H2 3715   6.394   0.228   4.006
 1251TIP3   OH2 3716   4.534   3.203   0.969
 1251TIP3    H1 3717   4.449   3.160   0.973
 1251TIP3    H2 3718   4.558   3.199   0.876
 1252TIP3   OH2 3719   5.579   4.504   4.010
 1252TIP3    H1 3720   5.549   4.581   3.962
 1252TIP3    H2 3721   5.636   4.457   3.949
 1253TIP3   OH2 3722   3.939   0.250   2.626
 1253TIP3    H1 3723   4.006   0.183   2.615
 1253TIP3    H2 3724   3.859   0.209   2.593
 1254TIP3   OH2 3725   2.314   5.014   3.595
 1254TIP3    H1 3726   2.347   4.953   3.529
 1254TIP3    H2 3727   2.378   5.008   3.666
 1255TIP3   OH2 3728   5.801   5.175   2.839
 1255TIP3    H1 3729   5.729   5.214   2.789
 1255TIP3    H2 3730   5.757   5.120   2.904
 1256TIP3   OH2 3731   0.708   5.886   2.181
 1256TIP3    H1 3732   0.680   5.795   2.181
 1256TIP3    H2 3733   0.632   5.934   2.214
 1257TIP3   OH2 3734   6.747   2.140   2.162
 1257TIP3    H1 3735   6.734   2.233   2.148
 1257TIP3    H2 3736   6.658   2.103   2.160
 1258TIP3   OH2 3737   5.639   4.848   4.790
 1258TIP3    H1 3738   5.638   4.844   4.886
 1258TIP3    H2 3739   5.600   4.765   4.762
 1259TIP3   OH2 3740   4.893   1.633   4.503
 1259TIP3    H1 3741   4.910   1.548   4.544
 1259TIP3    H2 3742   4.893   1.695   4.576
 1260TIP3   OH2 3743   4.064   2.814   4.114
 1260TIP3    H1 3744   4.059   2.794   4.207
 1260TIP3    H2 3745   4.071   2.729   4.070
 1261TIP3   OH2 3746   2.645   5.785   1.259
 1261TIP3    H1 3747   2.644   5.808   1.166
 1261TIP3    H2 3748   2.737   5.785   1.283
 1262TIP3   OH2 3749   1.816   0.588   3.036
 1262TIP3    H1 3750   1.782   0.622   2.954
 1262TIP3    H2 3751   1.763   0.632   3.103
 1263TIP3   OH2 3752   7.220   1.410   5.018
 1263TIP3    H1 3753   7.144   1.457   5.052
 1263TIP3    H2 3754   7.246   1.351   5.090
 1264TIP3   OH2 3755   5.158   4.605   5.133
 1264TIP3    H1 3756   5.223   4.542   5.103
 1264TIP3    H2 3757   5.110   4.629   5.054
 1265TIP3   OH2 3758   2.346   1.215   0.688
 1265TIP3    H1 3759   2.362   1.249   0.775
 1265TIP3    H2 3760   2.384   1.280   0.629
 1266TIP3   OH2 3761   3.913   2.794   2.225
 1266TIP3    H1 3762   3.847   2.782   2.293
 1266TIP3    H2 3763   3.982   2.731   2.246
 1267TIP3   OH2 3764   3.258   0.917   2.211
 1267TIP3    H1 3765   3.168   0.920   2.179
 1267TIP3    H2 3766   3.310   0.958   2.142
 1268TIP3   OH2 3767   1.976   0.208   5.268
 1268TIP3    H1 3768   2.042   0.156   5.222
 1268TIP3    H2 3769   1.960   0.160   5.350
 1269TIP3   OH2 3770   4.488   0.147   3.747
 1269TIP3    H1 3771   4.444   0.227   3.775
 1269TIP3    H2 3772   4.436   0.117   3.672
 1270TIP3   OH2 3773   1.498   4.233   2.750
 1270TIP3    H1 3774   1.429   4.275   2.699
 1270TIP3    H2 3775   1.460   4.221   2.837
 1271TIP3   OH2 3776   5.941   5.191   1.282
 1271TIP3    H1 3777   6.013   5.187   1.345
 1271TIP3    H2 3778   5.901   5.104   1.285
 1272TIP3   OH2 3779   4.359   1.692   0.806
 1272TIP3    H1 3780   4.407   1.750   0.747
 1272TIP3    H2 3781   4.279   1.670   0.759
 1273TIP3   OH2 3782   6.183   0.582   5.675
 1273TIP3    H1 3783   6.236   0.642   5.621
 1273TIP3    H2 3784   6.245   0.515   5.703
 1274TIP3   OH2 3785   6.927   1.491   0.349
 1274TIP3    H1 3786   6.909   1.543   0.427
 1274TIP3    H2 3787   7.001   1.535   0.307
 1275TIP3   OH2 3788   5.379   4.057   4.506
 1275TIP3    H1 3789   5.284   4.070   4.506
 1275TIP3    H2 3790   5.390   3.964   4.487
 1276TIP3   OH2 3791   3.614   4.059   2.874
 1276TIP3    H1 3792   3.646   4.146   2.848
 1276TIP3    H2 3793   3.686   4.000   2.851
 1277TIP3   OH2 3794   5.300   0.257   3.350
 1277TIP3    H1 3795   5.367   0.262   3.418
 1277TIP3    H2 3796   5.231   0.203   3.389
 1278TIP3   OH2 3797   4.798   6.153   2.591
 1278TIP3    H1 3798   4.866   6.137   2.657
 1278TIP3    H2 3799   4.801   6.075   2.535
 1279TIP3   OH2 3800   5.379   2.416   3.734
 1279TIP3    H1 3801   5.309   2.464   3.779
 1279TIP3    H2 3802   5.381   2.455   3.646
 1280TIP3   OH2 3803   4.974   5.146   4.741
 1280TIP3    H1 3804   4.966   5.122   4.833
 1280TIP3    H2 3805   4.885   5.143   4.707
 1281TIP3   OH2 3806   3.344   5.530   3.677
 1281TIP3    H1 3807   3.322   5.615   3.640
 1281TIP3    H2 3808   3.405   5.550   3.748
 1282TIP3   OH2 3809   0.346   4.090   3.813
 1282TIP3    H1 3810   0.370   4.182   3.799
 1282TIP3    H2 3811   0.311   4.087   3.902
 1283TIP3   OH2 3812   3.159   1.964   3.923
 1283TIP3    H1 3813   3.098   1.905   3.879
 1283TIP3    H2 3814   3.189   1.915   3.999
 1284TIP3   OH2 3815   3.325   3.043   3.223
 1284TIP3    H1 3816   3.365   3.069   3.305
 1284TIP3    H2 3817   3.366   3.098   3.157
 1285TIP3   OH2 3818   0.532   2.242   3.887
 1285TIP3    H1 3819   0.488   2.326   3.899
 1285TIP3    H2 3820   0.491   2.184   3.951
 1286TIP3   OH2 3821   0.190   4.449   0.018
 1286TIP3    H1 3822   0.272   4.423   0.060
 1286TIP3    H2 3823   0.129   4.378   0.038
 1287TIP3   OH2 3824   2.167   0.651   5.757
 1287TIP3    H1 3825   2.088   0.706   5.752
 1287TIP3    H2 3826   2.179   0.619   5.667
 1288TIP3   OH2 3827   0.618   1.263   3.488
 1288TIP3    H1 3828   0.648   1.197   3.425
 1288TIP3    H2 3829   0.584   1.334   3.434
 1289TIP3   OH2 3830   4.324   6.288   1.693
 1289TIP3    H1 3831   4.353   6.372   1.657
 1289TIP3    H2 3832   4.345   6.224   1.626
 1290TIP3   OH2 3833   6.773   2.746   2.111
 1290TIP3    H1 3834   6.698   2.756   2.053
 1290TIP3    H2 3835   6.829   2.822   2.093
 1291TIP3   OH2 3836   2.408   4.271   3.474
 1291TIP3    H1 3837   2.342   4.329   3.436
 1291TIP3    H2 3838   2.480   4.273   3.411
 1292TIP3   OH2 3839   0.789   3.090   2.147
 1292TIP3    H1 3840   0.849   3.051   2.211
 1292TIP3    H2 3841   0.733   3.147   2.199
 1293TIP3   OH2 3842   5.294   3.163   4.495
 1293TIP3    H1 3843   5.371   3.208   4.529
 1293TIP3    H2 3844   5.251   3.228   4.439
 1294TIP3   OH2 3845   3.493   0.906   0.154
 1294TIP3    H1 3846   3.452   0.949   0.230
 1294TIP3    H2 3847   3.443   0.938   0.079
 1295TIP3   OH2 3848   3.193   4.898   2.460
 1295TIP3    H1 3849   3.131   4.958   2.501
 1295TIP3    H2 3850   3.205   4.828   2.525
 1296TIP3   OH2 3851   5.138   4.701   3.387
 1296TIP3    H1 3852   5.167   4.774   3.441
 1296TIP3    H2 3853   5.211   4.639   3.388
 1297TIP3   OH2 3854   4.923   2.013   3.710
 1297TIP3    H1 3855   4.833   2.013   3.744
 1297TIP3    H2 3856   4.952   1.922   3.718
 1298TIP3   OH2 3857   3.955   2.387   3.059
 1298TIP3    H1 3858   4.000   2.304   3.041
 1298TIP3    H2 3859   3.921   2.415   2.974
 1299TIP3   OH2 3860   4.606   5.786   3.691
 1299TIP3    H1 3861   4.669   5.714   3.693
 1299TIP3    H2 3862   4.654   5.858   3.650
 1300TIP3   OH2 3863   3.179   3.370   4.630
 1300TIP3    H1 3864   3.257   3.414   4.596
 1300TIP3    H2 3865   3.207   3.280   4.648
 1301TIP3   OH2 3866   6.130   0.760   4.042
 1301TIP3    H1 3867   6.062   0.810   4.088
 1301TIP3    H2 3868   6.091   0.674   4.029
 1302TIP3   OH2 3869   5.929   5.987   4.043
 1302TIP3    H1 3870   5.843   6.027   4.059
 1302TIP3    H2 3871   5.928   5.962   3.951
 1303TIP3   OH2 3872   5.382   1.530   4.238
 1303TIP3    H1 3873   5.297   1.574   4.230
 1303TIP3    H2 3874   5.367   1.443   4.200
 1304TIP3   OH2 3875   4.759   0.120   2.708
 1304TIP3    H1 3876   4.811   0.129   2.788
 1304TIP3    H2 3877   4.813   0.160   2.640
 1305TIP3   OH2 3878   5.818   0.568   5.327
 1305TIP3    H1 3879   5.723   0.581   5.331
 1305TIP3    H2 3880   5.853   0.620   5.400
 1306TIP3   OH2 3881   3.568   3.818   3.902
 1306TIP3    H1 3882   3.500   3.796   3.965
 1306TIP3    H2 3883   3.547   3.907   3.874
 1307TIP3   OH2 3884   4.332   2.705   5.689
 1307TIP3    H1 3885   4.250   2.664   5.717
 1307TIP3    H2 3886   4.331   2.791   5.731
 1308TIP3   OH2 3887   1.270   1.928   1.768
 1308TIP3    H1 3888   1.209   1.947   1.839
 1308TIP3    H2 3889   1.287   1.834   1.775
 1309TIP3   OH2 3890   3.986   0.181   5.736
 1309TIP3    H1 3891   4.047   0.202   5.807
 1309TIP3    H2 3892   3.918   0.248   5.743
 1310TIP3   OH2 3893   5.440   4.841   3.336
 1310TIP3    H1 3894   5.409   4.895   3.264
 1310TIP3    H2 3895   5.380   4.861   3.408
 1311TIP3   OH2 3896   0.967   0.981   3.364
 1311TIP3    H1 3897   0.927   0.951   3.445
 1311TIP3    H2 3898   1.050   0.933   3.359
 1312TIP3   OH2 3899   0.934   3.886   1.004
 1312TIP3    H1 3900   0.915   3.904   0.912
 1312TIP3    H2 3901   0.998   3.814   1.002
 1313TIP3   OH2 3902   6.414   2.166   1.253
 1313TIP3    H1 3903   6.434   2.255   1.226
 1313TIP3    H2 3904   6.343   2.138   1.196
 1314TIP3   OH2 3905   5.213   1.083   2.976
 1314TIP3    H1 3906   5.174   1.010   2.928
 1314TIP3    H2 3907   5.287   1.111   2.923
 1315TIP3   OH2 3908   1.491   0.626   5.362
 1315TIP3    H1 3909   1.564   0.674   5.400
 1315TIP3    H2 3910   1.515   0.534   5.370
 1316TIP3   OH2 3911   0.114   5.170   3.526
 1316TIP3    H1 3912   0.090   5.201   3.439
 1316TIP3    H2 3913   0.071   5.231   3.586
 1317TIP3   OH2 3914   6.675   0.944   1.419
 1317TIP3    H1 3915   6.730   0.944   1.498
 1317TIP3    H2 3916   6.597   0.894   1.444
 1318TIP3   OH2 3917   6.961   1.905   2.752
 1318TIP3    H1 3918   6.906   1.865   2.686
 1318TIP3    H2 3919   6.910   1.980   2.785
 1319TIP3   OH2 3920   5.183   6.415   0.369
 1319TIP3    H1 3921   5.208   6.423   0.276
 1319TIP3    H2 3922   5.247   6.469   0.415
 1320TIP3   OH2 3923   4.008   6.646   5.244
 1320TIP3    H1 3924   3.981   6.565   5.200
 1320TIP3    H2 3925   3.967   6.641   5.331
 1321TIP3   OH2 3926   5.796   5.427   2.151
 1321TIP3    H1 3927   5.813   5.421   2.245
 1321TIP3    H2 3928   5.839   5.508   2.124
 1322TIP3   OH2 3929   5.405   5.161   1.682
 1322TIP3    H1 3930   5.439   5.176   1.770
 1322TIP3    H2 3931   5.400   5.248   1.643
 1323TIP3   OH2 3932   0.698   6.123   1.109
 1323TIP3    H1 3933   0.632   6.093   1.046
 1323TIP3    H2 3934   0.722   6.044   1.157
 1324TIP3   OH2 3935   0.271   2.952   4.632
 1324TIP3    H1 3936   0.260   2.984   4.542
 1324TIP3    H2 3937   0.189   2.974   4.675
 1325TIP3   OH2 3938   2.341   3.971   3.232
 1325TIP3    H1 3939   2.370   3.928   3.312
 1325TIP3    H2 3940   2.407   3.947   3.167
 1326TIP3   OH2 3941   1.175   5.206   4.262
 1326TIP3    H1 3942   1.180   5.219   4.356
 1326TIP3    H2 3943   1.204   5.289   4.224
 1327TIP3   OH2 3944   6.812   1.373   4.048
 1327TIP3    H1 3945   6.897   1.414   4.066
 1327TIP3    H2 3946   6.795   1.392   3.956
 1328TIP3   OH2 3947   3.179   3.269   0.895
 1328TIP3    H1 3948   3.259   3.284   0.945
 1328TIP3    H2 3949   3.123   3.344   0.916
 1329TIP3   OH2 3950   6.674   1.414   3.071
 1329TIP3    H1 3951   6.655   1.371   3.155
 1329TIP3    H2 3952   6.606   1.481   3.064
 1330TIP3   OH2 3953   1.953   6.326   4.572
 1330TIP3    H1 3954   1.944   6.381   4.650
 1330TIP3    H2 3955   1.885   6.259   4.582
 1331TIP3   OH2 3956   2.138   3.822   0.375
 1331TIP3    H1 3957   2.131   3.787   0.286
 1331TIP3    H2 3958   2.225   3.862   0.378
 1332TIP3   OH2 3959   3.846   5.855   5.249
 1332TIP3    H1 3960   3.763   5.814   5.227
 1332TIP3    H2 3961   3.830   5.949   5.242
 1333TIP3   OH2 3962   1.507   5.411   3.901
 1333TIP3    H1 3963   1.533   5.324   3.869
 1333TIP3    H2 3964   1.451   5.446   3.831
 1334TIP3   OH2 3965   1.055   1.502   3.072
 1334TIP3    H1 3966   1.149   1.503   3.053
 1334TIP3    H2 3967   1.050   1.478   3.164
 1335TIP3   OH2 3968   5.224   5.437   0.226
 1335TIP3    H1 3969   5.184   5.352   0.245
 1335TIP3    H2 3970   5.318   5.422   0.238
 1336TIP3   OH2 3971   6.893   5.559   4.121
 1336TIP3    H1 3972   6.916   5.486   4.063
 1336TIP3    H2 3973   6.922   5.531   4.207
 1337TIP3   OH2 3974   2.958   3.349   2.305
 1337TIP3    H1 3975   2.983   3.442   2.298
 1337TIP3    H2 3976   2.896   3.336   2.233
 1338TIP3   OH2 3977   5.830   6.646   3.564
 1338TIP3    H1 3978   5.853   6.652   3.656
 1338TIP3    H2 3979   5.846   6.734   3.529
 1339TIP3   OH2 3980   3.617   1.056   1.539
 1339TIP3    H1 3981   3.704   1.017   1.530
 1339TIP3    H2 3982   3.610   1.080   1.631
 1340TIP3   OH2 3983   1.567   4.566   4.092
 1340TIP3    H1 3984   1.624   4.608   4.027
 1340TIP3    H2 3985   1.592   4.473   4.088
 1341TIP3   OH2 3986   1.857   2.045   1.222
 1341TIP3    H1 3987   1.802   2.054   1.144
 1341TIP3    H2 3988   1.934   1.999   1.191
 1342TIP3   OH2 3989   4.436   2.974   2.113
 1342TIP3    H1 3990   4.403   2.900   2.164
 1342TIP3    H2 3991   4.434   3.048   2.174
 1343TIP3   OH2 3992   0.503   5.008   4.267
 1343TIP3    H1 3993   0.509   4.948   4.193
 1343TIP3    H2 3994   0.525   5.094   4.231
 1344TIP3   OH2 3995   1.273   2.913   1.071
 1344TIP3    H1 3996   1.258   2.911   1.165
 1344TIP3    H2 3997   1.339   2.845   1.056
 1345TIP3   OH2 3998   6.124   2.516   0.622
 1345TIP3    H1 3999   6.055   2.491   0.562
 1345TIP3    H2 4000   6.104   2.607   0.645
 1346TIP3   OH2 4001   4.107   4.838   5.597
 1346TIP3    H1 4002   4.104   4.932   5.576
 1346TIP3    H2 4003   4.201   4.820   5.609
 1347TIP3   OH2 4004   3.614   5.772   5.673
 1347TIP3    H1 4005   3.588   5.814   5.591
 1347TIP3    H2 4006   3.696   5.815   5.698
 1348TIP3   OH2 4007   1.695   0.289   1.649
 1348TIP3    H1 4008   1.659   0.240   1.724
 1348TIP3    H2 4009   1.734   0.222   1.593
 1349TIP3   OH2 4010   5.163   4.747   0.982
 1349TIP3    H1 4011   5.196   4.804   0.913
 1349TIP3    H2 4012   5.241   4.718   1.029
 1350TIP3   OH2 4013   6.132   2.970   3.789
 1350TIP3    H1 4014   6.183   3.048   3.809
 1350TIP3    H2 4015   6.059   2.973   3.851
 1351TIP3   OH2 4016   5.315   0.298   2.375
 1351TIP3    H1 4017   5.365   0.299   2.456
 1351TIP3    H2 4018   5.376   0.330   2.308
 1352TIP3   OH2 4019   6.874   6.607   5.412
 1352TIP3    H1 4020   6.955   6.561   5.394
 1352TIP3    H2 4021   6.872   6.679   5.349
 1353TIP3   OH2 4022   4.498   4.757   3.666
 1353TIP3    H1 4023   4.557   4.681   3.663
 1353TIP3    H2 4024   4.556   4.832   3.680
 1354TIP3   OH2 4025   1.613   1.363   3.941
 1354TIP3    H1 4026   1.645   1.384   4.029
 1354TIP3    H2 4027   1.545   1.429   3.925
 1355TIP3   OH2 4028   4.838   6.073   5.555
 1355TIP3    H1 4029   4.756   6.103   5.593
 1355TIP3    H2 4030   4.884   6.153   5.528
 1356TIP3   OH2 4031   2.008   0.185   4.530
 1356TIP3    H1 4032   1.977   0.190   4.621
 1356TIP3    H2 4033   1.935   0.220   4.479
 1357TIP3   OH2 4034   2.991   1.205   3.315
 1357TIP3    H1 4035   3.066   1.177   3.261
 1357TIP3    H2 4036   2.924   1.228   3.251
 1358TIP3   OH2 4037   4.715   1.165   0.710
 1358TIP3    H1 4038   4.749   1.076   0.724
 1358TIP3    H2 4039   4.780   1.223   0.750
 1359TIP3   OH2 4040   4.103   5.858   1.581
 1359TIP3    H1 4041   4.111   5.894   1.669
 1359TIP3    H2 4042   4.069   5.930   1.528
 1360TIP3   OH2 4043   2.619   3.215   1.192
 1360TIP3    H1 4044   2.562   3.166   1.251
 1360TIP3    H2 4045   2.607   3.307   1.217
 1361TIP3   OH2 4046   0.859   3.524   1.010
 1361TIP3    H1 4047   0.771   3.548   1.040
 1361TIP3    H2 4048   0.908   3.507   1.090
 1362TIP3   OH2 4049   5.465   1.090   2.879
 1362TIP3    H1 4050   5.496   1.165   2.827
 1362TIP3    H2 4051   5.496   1.013   2.831
 1363TIP3   OH2 4052   0.955   4.523   3.827
 1363TIP3    H1 4053   0.959   4.432   3.857
 1363TIP3    H2 4054   1.033   4.564   3.862
 1364TIP3   OH2 4055   6.276   0.718   1.373
 1364TIP3    H1 4056   6.287   0.625   1.354
 1364TIP3    H2 4057   6.354   0.741   1.424
 1365TIP3   OH2 4058   4.364   5.408   4.835
 1365TIP3    H1 4059   4.381   5.421   4.929
 1365TIP3    H2 4060   4.345   5.495   4.801
 1366TIP3   OH2 4061   0.766   1.002   2.870
 1366TIP3    H1 4062   0.808   1.002   2.956
 1366TIP3    H2 4063   0.835   0.975   2.810
 1367TIP3   OH2 4064   2.585   6.272   1.836
 1367TIP3    H1 4065   2.554   6.304   1.751
 1367TIP3    H2 4066   2.679   6.286   1.834
 1368TIP3   OH2 4067   0.240   3.307   2.113
 1368TIP3    H1 4068   0.257   3.382   2.055
 1368TIP3    H2 4069   0.299   3.239   2.081
 1369TIP3   OH2 4070   3.306   1.904   1.840
 1369TIP3    H1 4071   3.256   1.844   1.896
 1369TIP3    H2 4072   3.348   1.964   1.901
 1370TIP3   OH2 4073   2.995   6.143   5.473
 1370TIP3    H1 4074   3.085   6.158   5.442
 1370TIP3    H2 4075   2.940   6.181   5.404
 1371TIP3   OH2 4076   3.365   6.191   5.154
 1371TIP3    H1 4077   3.331   6.278   5.171
 1371TIP3    H2 4078   3.299   6.132   5.190
 1372TIP3   OH2 4079   7.139   0.691   3.705
 1372TIP3    H1 4080   7.090   0.740   3.772
 1372TIP3    H2 4081   7.170   0.613   3.751
 1373TIP3   OH2 4082   3.115   1.552   0.362
 1373TIP3    H1 4083   3.160   1.495   0.424
 1373TIP3    H2 4084   3.031   1.508   0.345
 1374TIP3   OH2 4085   3.819   5.626   3.253
 1374TIP3    H1 4086   3.737   5.632   3.205
 1374TIP3    H2 4087   3.835   5.533   3.262
 1375TIP3   OH2 4088   4.652   6.112   3.804
 1375TIP3    H1 4089   4.722   6.108   3.740
 1375TIP3    H2 4090   4.684   6.060   3.878
 1376TIP3   OH2 4091   6.476   2.927   3.451
 1376TIP3    H1 4092   6.426   2.872   3.390
 1376TIP3    H2 4093   6.411   2.957   3.515
 1377TIP3   OH2 4094   4.012   1.845   3.790
 1377TIP3    H1 4095   3.951   1.910   3.827
 1377TIP3    H2 4096   4.031   1.877   3.702
 1378TIP3   OH2 4097   0.094   6.138   2.550
 1378TIP3    H1 4098   0.117   6.123   2.458
 1378TIP3    H2 4099   0.156   6.085   2.600
 1379TIP3   OH2 4100   0.340   5.002   4.491
 1379TIP3    H1 4101   0.337   5.081   4.545
 1379TIP3    H2 4102   0.392   5.027   4.415
 1380TIP3   OH2 4103   3.862   1.566   3.755
 1380TIP3    H1 4104   3.810   1.612   3.689
 1380TIP3    H2 4105   3.949   1.559   3.717
 1381TIP3   OH2 4106   1.652   6.069   2.057
 1381TIP3    H1 4107   1.584   6.136   2.053
 1381TIP3    H2 4108   1.666   6.054   2.150
 1382TIP3   OH2 4109   6.219   3.774   1.447
 1382TIP3    H1 4110   6.156   3.784   1.518
 1382TIP3    H2 4111   6.293   3.729   1.488
 1383TIP3   OH2 4112   0.391   3.877   0.307
 1383TIP3    H1 4113   0.484   3.890   0.286
 1383TIP3    H2 4114   0.375   3.785   0.289
 1384TIP3   OH2 4115   5.331   6.490   2.304
 1384TIP3    H1 4116   5.338   6.570   2.356
 1384TIP3    H2 4117   5.419   6.452   2.306
 1385TIP3   OH2 4118   1.790   6.363   3.239
 1385TIP3    H1 4119   1.802   6.268   3.239
 1385TIP3    H2 4120   1.749   6.382   3.324
 1386TIP3   OH2 4121   2.511   3.361   3.070
 1386TIP3    H1 4122   2.512   3.323   2.982
 1386TIP3    H2 4123   2.594   3.408   3.077
 1387TIP3   OH2 4124   7.040   5.828   2.688
 1387TIP3    H1 4125   6.981   5.845   2.761
 1387TIP3    H2 4126   7.052   5.914   2.647
 1388TIP3   OH2 4127   6.155   6.209   5.188
 1388TIP3    H1 4128   6.157   6.236   5.097
 1388TIP3    H2 4129   6.245   6.220   5.219
 1389TIP3   OH2 4130   6.984   1.591   4.458
 1389TIP3    H1 4131   6.972   1.514   4.514
 1389TIP3    H2 4132   7.021   1.657   4.517
 1390TIP3   OH2 4133   3.143   1.622   1.263
 1390TIP3    H1 4134   3.115   1.624   1.355
 1390TIP3    H2 4135   3.233   1.591   1.266
 1391TIP3   OH2 4136   5.754   5.266   0.588
 1391TIP3    H1 4137   5.829   5.326   0.582
 1391TIP3    H2 4138   5.677   5.322   0.580
 1392TIP3   OH2 4139   0.900   0.567   4.889
 1392TIP3    H1 4140   0.986   0.597   4.859
 1392TIP3    H2 4141   0.856   0.646   4.920
 1393TIP3   OH2 4142   5.441   3.134   2.076
 1393TIP3    H1 4143   5.463   3.227   2.068
 1393TIP3    H2 4144   5.351   3.128   2.044
 1394TIP3   OH2 4145   5.284   0.393   5.301
 1394TIP3    H1 4146   5.288   0.460   5.233
 1394TIP3    H2 4147   5.213   0.422   5.359
 1395TIP3   OH2 4148   2.875   6.689   0.808
 1395TIP3    H1 4149   2.841   6.671   0.721
 1395TIP3    H2 4150   2.819   6.759   0.841
 1396TIP3   OH2 4151   0.566   2.410   2.101
 1396TIP3    H1 4152   0.580   2.344   2.032
 1396TIP3    H2 4153   0.648   2.460   2.103
 1397TIP3   OH2 4154   1.353   5.928   1.110
 1397TIP3    H1 4155   1.392   5.857   1.058
 1397TIP3    H2 4156   1.386   5.915   1.199
 1398TIP3   OH2 4157   4.702   0.736   0.835
 1398TIP3    H1 4158   4.791   0.751   0.869
 1398TIP3    H2 4159   4.716   0.694   0.750
 1399TIP3   OH2 4160   0.633   6.564   5.401
 1399TIP3    H1 4161   0.609   6.485   5.353
 1399TIP3    H2 4162   0.729   6.566   5.399
 1400TIP3   OH2 4163   5.773   5.966   2.104
 1400TIP3    H1 4164   5.866   5.970   2.126
 1400TIP3    H2 4165   5.741   6.055   2.114
 1401TIP3   OH2 4166   4.180   5.344   4.376
 1401TIP3    H1 4167   4.098   5.321   4.419
 1401TIP3    H2 4168   4.205   5.265   4.328
 1402TIP3   OH2 4169   2.095   1.141   0.626
 1402TIP3    H1 4170   2.086   1.217   0.568
 1402TIP3    H2 4171   2.188   1.140   0.649
 1403TIP3   OH2 4172   0.517   2.038   4.153
 1403TIP3    H1 4173   0.492   2.122   4.190
 1403TIP3    H2 4174   0.465   1.974   4.202
 1404TIP3   OH2 4175   1.056   4.235   4.676
 1404TIP3    H1 4176   1.057   4.276   4.763
 1404TIP3    H2 4177   0.971   4.192   4.672
 1405TIP3   OH2 4178   0.111   3.901   4.568
 1405TIP3    H1 4179   0.021   3.895   4.598
 1405TIP3    H2 4180   0.113   3.852   4.486
 1406TIP3   OH2 4181   5.178   6.031   5.159
 1406TIP3    H1 4182   5.264   6.005   5.126
 1406TIP3    H2 4183   5.182   6.127   5.164
 1407TIP3   OH2 4184   1.512   0.281   4.816
 1407TIP3    H1 4185   1.586   0.336   4.789
 1407TIP3    H2 4186   1.469   0.330   4.885
 1408TIP3   OH2 4187   2.626   4.297   4.465
 1408TIP3    H1 4188   2.612   4.205   4.443
 1408TIP3    H2 4189   2.580   4.309   4.548
 1409TIP3   OH2 4190   6.421   6.601   1.380
 1409TIP3    H1 4191   6.444   6.528   1.323
 1409TIP3    H2 4192   6.329   6.587   1.402
 1410TIP3   OH2 4193   1.008   3.190   5.083
 1410TIP3    H1 4194   1.076   3.132   5.118
 1410TIP3    H2 4195   1.053   3.272   5.066
 1411TIP3   OH2 4196   6.982   1.761   2.071
 1411TIP3    H1 4197   7.074   1.749   2.048
 1411TIP3    H2 4198   6.972   1.856   2.080
 1412TIP3   OH2 4199   2.871   3.170   5.047
 1412TIP3    H1 4200   2.916   3.124   4.976
 1412TIP3    H2 4201   2.778   3.163   5.024
 1413TIP3   OH2 4202   0.352   2.451   0.273
 1413TIP3    H1 4203   0.418   2.389   0.243
 1413TIP3    H2 4204   0.314   2.486   0.192
 1414TIP3   OH2 4205   0.252   1.228   1.912
 1414TIP3    H1 4206   0.276   1.312   1.951
 1414TIP3    H2 4207   0.332   1.175   1.920
 1415TIP3   OH2 4208   5.881   2.151   5.352
 1415TIP3    H1 4209   5.952   2.199   5.309
 1415TIP3    H2 4210   5.909   2.059   5.349
 1416TIP3   OH2 4211   5.621   0.365   0.762
 1416TIP3    H1 4212   5.712   0.337   0.769
 1416TIP3    H2 4213   5.582   0.343   0.847
 1417TIP3   OH2 4214   4.415   6.397   0.506
 1417TIP3    H1 4215   4.507   6.370   0.511
 1417TIP3    H2 4216   4.386   6.400   0.597
 1418TIP3   OH2 4217   2.455   2.354   1.399
 1418TIP3    H1 4218   2.456   2.342   1.494
 1418TIP3    H2 4219   2.363   2.371   1.378
 1419TIP3   OH2 4220   5.873   6.251   3.441
 1419TIP3    H1 4221   5.832   6.251   3.355
 1419TIP3    H2 4222   5.947   6.312   3.433
 1420TIP3   OH2 4223   0.701   5.260   1.863
 1420TIP3    H1 4224   0.667   5.245   1.951
 1420TIP3    H2 4225   0.642   5.212   1.805
 1421TIP3   OH2 4226   2.701   4.512   0.949
 1421TIP3    H1 4227   2.685   4.561   0.868
 1421TIP3    H2 4228   2.648   4.432   0.938
 1422TIP3   OH2 4229   2.955   5.972   5.684
 1422TIP3    H1 4230   3.028   5.975   5.745
 1422TIP3    H2 4231   2.977   6.038   5.618
 1423TIP3   OH2 4232   3.968   1.892   1.081
 1423TIP3    H1 4233   4.032   1.953   1.045
 1423TIP3    H2 4234   3.978   1.813   1.028
 1424TIP3   OH2 4235   6.708   0.186   1.848
 1424TIP3    H1 4236   6.777   0.198   1.783
 1424TIP3    H2 4237   6.720   0.259   1.909
 1425TIP3   OH2 4238   6.866   6.441   5.821
 1425TIP3    H1 4239   6.947   6.486   5.802
 1425TIP3    H2 4240   6.801   6.480   5.762
 1426TIP3   OH2 4241   7.123   0.209   5.446
 1426TIP3    H1 4242   7.197   0.213   5.386
 1426TIP3    H2 4243   7.049   0.185   5.390
 1427TIP3   OH2 4244   1.703   2.966   4.506
 1427TIP3    H1 4245   1.624   3.011   4.475
 1427TIP3    H2 4246   1.756   2.953   4.427
 1428TIP3   OH2 4247   2.972   0.041   0.393
 1428TIP3    H1 4248   3.061   0.009   0.379
 1428TIP3    H2 4249   2.983   0.129   0.429
 1429TIP3   OH2 4250   5.359   0.598   5.851
 1429TIP3    H1 4251   5.434   0.557   5.895
 1429TIP3    H2 4252   5.305   0.631   5.922
 1430TIP3   OH2 4253   6.735   2.108   4.239
 1430TIP3    H1 4254   6.717   2.044   4.170
 1430TIP3    H2 4255   6.830   2.106   4.250
 1431TIP3   OH2 4256   5.229   1.479   3.005
 1431TIP3    H1 4257   5.169   1.447   3.073
 1431TIP3    H2 4258   5.308   1.503   3.053
 1432TIP3   OH2 4259   2.105   3.870   3.174
 1432TIP3    H1 4260   2.050   3.929   3.226
 1432TIP3    H2 4261   2.194   3.897   3.195
 1433TIP3   OH2 4262   0.484   3.268   1.488
 1433TIP3    H1 4263   0.551   3.324   1.450
 1433TIP3    H2 4264   0.401   3.307   1.460
 1434TIP3   OH2 4265   2.361   0.695   0.980
 1434TIP3    H1 4266   2.319   0.653   1.055
 1434TIP3    H2 4267   2.410   0.624   0.937
 1435TIP3   OH2 4268   7.213   4.914   5.279
 1435TIP3    H1 4269   7.133   4.927   5.330
 1435TIP3    H2 4270   7.203   4.973   5.205
 1436TIP3   OH2 4271   1.975   5.239   1.462
 1436TIP3    H1 4272   2.011   5.308   1.518
 1436TIP3    H2 4273   1.934   5.178   1.523
 1437TIP3   OH2 4274   5.975   6.782   1.515
 1437TIP3    H1 4275   5.912   6.748   1.451
 1437TIP3    H2 4276   6.032   6.707   1.534
 1438TIP3   OH2 4277   2.894   5.609   0.460
 1438TIP3    H1 4278   2.928   5.698   0.468
 1438TIP3    H2 4279   2.901   5.588   0.367
 1439TIP3   OH2 4280   3.158   2.102   5.013
 1439TIP3    H1 4281   3.087   2.164   4.999
 1439TIP3    H2 4282   3.205   2.101   4.930
 1440TIP3   OH2 4283   4.384   6.493   2.958
 1440TIP3    H1 4284   4.475   6.516   2.938
 1440TIP3    H2 4285   4.352   6.567   3.010
 1441TIP3   OH2 4286   3.588   5.728   4.744
 1441TIP3    H1 4287   3.615   5.717   4.652
 1441TIP3    H2 4288   3.669   5.748   4.790
 1442TIP3   OH2 4289   1.603   1.161   1.293
 1442TIP3    H1 4290   1.661   1.235   1.314
 1442TIP3    H2 4291   1.593   1.114   1.375
 1443TIP3   OH2 4292   5.909   3.415   2.971
 1443TIP3    H1 4293   5.981   3.412   2.909
 1443TIP3    H2 4294   5.939   3.360   3.044
 1444TIP3   OH2 4295   6.786   2.921   0.142
 1444TIP3    H1 4296   6.853   2.863   0.176
 1444TIP3    H2 4297   6.741   2.870   0.075
 1445TIP3   OH2 4298   5.805   0.581   2.332
 1445TIP3    H1 4299   5.839   0.523   2.264
 1445TIP3    H2 4300   5.749   0.643   2.286
 1446TIP3   OH2 4301   5.658   2.994   4.083
 1446TIP3    H1 4302   5.691   3.059   4.145
 1446TIP3    H2 4303   5.570   3.024   4.061
 1447TIP3   OH2 4304   6.172   0.386   3.151
 1447TIP3    H1 4305   6.217   0.376   3.235
 1447TIP3    H2 4306   6.158   0.297   3.120
 1448TIP3   OH2 4307   0.723   6.576   4.310
 1448TIP3    H1 4308   0.706   6.525   4.231
 1448TIP3    H2 4309   0.640   6.619   4.329
 1449TIP3   OH2 4310   3.365   4.437   5.206
 1449TIP3    H1 4311   3.410   4.383   5.141
 1449TIP3    H2 4312   3.424   4.438   5.281
 1450TIP3   OH2 4313   6.199   4.832   2.411
 1450TIP3    H1 4314   6.282   4.806   2.371
 1450TIP3    H2 4315   6.135   4.770   2.375
 1451TIP3   OH2 4316   3.711   2.923   4.519
 1451TIP3    H1 4317   3.717   2.833   4.488
 1451TIP3    H2 4318   3.727   2.917   4.614
 1452TIP3   OH2 4319   4.657   2.327   0.460
 1452TIP3    H1 4320   4.655   2.407   0.408
 1452TIP3    H2 4321   4.610   2.262   0.407
 1453TIP3   OH2 4322   2.537   5.560   3.618
 1453TIP3    H1 4323   2.495   5.479   3.646
 1453TIP3    H2 4324   2.465   5.622   3.605
 1454TIP3   OH2 4325   7.166   5.213   2.032
 1454TIP3    H1 4326   7.155   5.175   2.119
 1454TIP3    H2 4327   7.108   5.161   1.976
 1455TIP3   OH2 4328   4.599   6.179   4.718
 1455TIP3    H1 4329   4.561   6.242   4.780
 1455TIP3    H2 4330   4.526   6.122   4.695
 1456TIP3   OH2 4331   0.544   5.489   4.399
 1456TIP3    H1 4332   0.457   5.516   4.368
 1456TIP3    H2 4333   0.543   5.509   4.492
 1457TIP3   OH2 4334   6.788   5.287   5.602
 1457TIP3    H1 4335   6.809   5.199   5.571
 1457TIP3    H2 4336   6.751   5.332   5.526
 1458TIP3   OH2 4337   5.495   6.293   0.723
 1458TIP3    H1 4338   5.576   6.315   0.769
 1458TIP3    H2 4339   5.430   6.280   0.792
 1459TIP3   OH2 4340   3.313   1.568   3.828
 1459TIP3    H1 4341   3.261   1.512   3.770
 1459TIP3    H2 4342   3.331   1.646   3.776
 1460TIP3   OH2 4343   4.839   0.576   4.957
 1460TIP3    H1 4344   4.877   0.649   5.005
 1460TIP3    H2 4345   4.750   0.568   4.991
 1461TIP3   OH2 4346   2.566   4.225   3.689
 1461TIP3    H1 4347   2.510   4.225   3.612
 1461TIP3    H2 4348   2.649   4.261   3.658
 1462TIP3   OH2 4349   2.168   5.537   4.024
 1462TIP3    H1 4350   2.096   5.544   4.086
 1462TIP3    H2 4351   2.131   5.568   3.941
 1463TIP3   OH2 4352   2.433   3.758   4.095
 1463TIP3    H1 4353   2.526   3.780   4.098
 1463TIP3    H2 4354   2.430   3.670   4.057
 1464TIP3   OH2 4355   2.114   3.090   3.617
 1464TIP3    H1 4356   2.022   3.064   3.610
 1464TIP3    H2 4357   2.137   3.073   3.708
 1465TIP3   OH2 4358   5.188   3.475   5.444
 1465TIP3    H1 4359   5.118   3.515   5.391
 1465TIP3    H2 4360   5.144   3.406   5.493
 1466TIP3   OH2 4361   4.050   0.392   2.806
 1466TIP3    H1 4362   4.141   0.398   2.778
 1466TIP3    H2 4363   4.003   0.362   2.728
 1467TIP3   OH2 4364   3.659   0.691   2.244
 1467TIP3    H1 4365   3.596   0.662   2.310
 1467TIP3    H2 4366   3.701   0.610   2.214
 1468TIP3   OH2 4367   6.398   1.205   4.588
 1468TIP3    H1 4368   6.350   1.278   4.547
 1468TIP3    H2 4369   6.422   1.238   4.674
 1469TIP3   OH2 4370   0.338   0.270   5.283
 1469TIP3    H1 4371   0.373   0.198   5.336
 1469TIP3    H2 4372   0.413   0.328   5.268
 1470TIP3   OH2 4373   3.479   4.363   2.918
 1470TIP3    H1 4374   3.564   4.400   2.940
 1470TIP3    H2 4375   3.446   4.326   2.999
 1471TIP3   OH2 4376   5.516   4.517   1.323
 1471TIP3    H1 4377   5.515   4.603   1.365
 1471TIP3    H2 4378   5.464   4.462   1.382
 1472TIP3   OH2 4379   5.378   0.539   0.467
 1472TIP3    H1 4380   5.373   0.590   0.387
 1472TIP3    H2 4381   5.460   0.566   0.509
 1473TIP3   OH2 4382   5.153   1.302   1.442
 1473TIP3    H1 4383   5.235   1.342   1.414
 1473TIP3    H2 4384   5.156   1.306   1.538
 1474TIP3   OH2 4385   6.090   0.485   2.576
 1474TIP3    H1 4386   6.178   0.509   2.606
 1474TIP3    H2 4387   6.087   0.516   2.486
 1475TIP3   OH2 4388   3.575   1.000   1.977
 1475TIP3    H1 4389   3.644   1.021   1.913
 1475TIP3    H2 4390   3.506   1.063   1.958
 1476TIP3   OH2 4391   0.791   0.196   3.442
 1476TIP3    H1 4392   0.882   0.168   3.451
 1476TIP3    H2 4393   0.755   0.140   3.372
 1477TIP3   OH2 4394   1.114   4.810   5.703
 1477TIP3    H1 4395   1.096   4.717   5.691
 1477TIP3    H2 4396   1.198   4.813   5.748
 1478TIP3   OH2 4397   4.305   0.526   5.448
 1478TIP3    H1 4398   4.242   0.457   5.469
 1478TIP3    H2 4399   4.266   0.572   5.373
 1479TIP3   OH2 4400   0.463   1.892   4.681
 1479TIP3    H1 4401   0.385   1.945   4.697
 1479TIP3    H2 4402   0.530   1.955   4.654
 1480TIP3   OH2 4403   1.348   2.219   3.135
 1480TIP3    H1 4404   1.333   2.162   3.211
 1480TIP3    H2 4405   1.363   2.306   3.173
 1481TIP3   OH2 4406   2.978   5.224   5.138
 1481TIP3    H1 4407   3.021   5.275   5.207
 1481TIP3    H2 4408   2.886   5.253   5.140
 1482TIP3   OH2 4409   2.599   1.490   1.649
 1482TIP3    H1 4410   2.683   1.522   1.681
 1482TIP3    H2 4411   2.571   1.555   1.585
 1483TIP3   OH2 4412   1.496   3.556   5.774
 1483TIP3    H1 4413   1.487   3.598   5.859
 1483TIP3    H2 4414   1.565   3.491   5.785
 1484TIP3   OH2 4415   5.913   3.647   0.861
 1484TIP3    H1 4416   5.972   3.590   0.811
 1484TIP3    H2 4417   5.839   3.591   0.883
 1485TIP3   OH2 4418   2.875   1.632   2.047
 1485TIP3    H1 4419   2.865   1.696   2.117
 1485TIP3    H2 4420   2.902   1.552   2.092
 1486TIP3   OH2 4421   7.178   2.646   2.001
 1486TIP3    H1 4422   7.156   2.564   2.044
 1486TIP3    H2 4423   7.137   2.713   2.056
 1487TIP3   OH2 4424   4.916   2.147   2.459
 1487TIP3    H1 4425   4.981   2.173   2.525
 1487TIP3    H2 4426   4.907   2.223   2.402
 1488TIP3   OH2 4427   5.721   1.166   1.490
 1488TIP3    H1 4428   5.746   1.255   1.513
 1488TIP3    H2 4429   5.678   1.173   1.406
 1489TIP3   OH2 4430   0.431   0.299   1.781
 1489TIP3    H1 4431   0.491   0.359   1.826
 1489TIP3    H2 4432   0.454   0.212   1.815
 1490TIP3   OH2 4433   5.035   0.337   2.872
 1490TIP3    H1 4434   5.062   0.278   2.802
 1490TIP3    H2 4435   5.103   0.328   2.939
 1491TIP3   OH2 4436   0.980   3.040   1.408
 1491TIP3    H1 4437   0.894   3.010   1.437
 1491TIP3    H2 4438   1.011   3.098   1.478
 1492TIP3   OH2 4439   6.813   1.635   0.083
 1492TIP3    H1 4440   6.908   1.636   0.079
 1492TIP3    H2 4441   6.792   1.688   0.160
 1493TIP3   OH2 4442   2.861   3.043   0.259
 1493TIP3    H1 4443   2.808   2.965   0.239
 1493TIP3    H2 4444   2.841   3.062   0.351
 1494TIP3   OH2 4445   2.851   1.775   2.298
 1494TIP3    H1 4446   2.917   1.724   2.344
 1494TIP3    H2 4447   2.886   1.864   2.298
 1495TIP3   OH2 4448   3.167   5.632   4.053
 1495TIP3    H1 4449   3.098   5.634   4.119
 1495TIP3    H2 4450   3.208   5.718   4.057
 1496TIP3   OH2 4451   2.905   5.721   3.234
 1496TIP3    H1 4452   2.850   5.643   3.231
 1496TIP3    H2 4453   2.885   5.767   3.153
 1497TIP3   OH2 4454   5.907   3.426   0.581
 1497TIP3    H1 4455   5.916   3.405   0.674
 1497TIP3    H2 4456   5.825   3.474   0.575
 1498TIP3   OH2 4457   6.016   2.539   4.432
 1498TIP3    H1 4458   6.040   2.626   4.399
 1498TIP3    H2 4459   6.093   2.509   4.479
 1499TIP3   OH2 4460   6.167   1.715   3.273
 1499TIP3    H1 4461   6.200   1.795   3.232
 1499TIP3    H2 4462   6.233   1.692   3.339
 1500TIP3   OH2 4463   3.241   3.510   0.224
 1500TIP3    H1 4464   3.153   3.546   0.231
 1500TIP3    H2 4465   3.293   3.561   0.285
 1501TIP3   OH2 4466   7.140   5.131   1.295
 1501TIP3    H1 4467   7.207   5.077   1.337
 1501TIP3    H2 4468   7.117   5.083   1.215
 1502TIP3   OH2 4469   6.605   3.302   0.965
 1502TIP3    H1 4470   6.609   3.238   0.894
 1502TIP3    H2 4471   6.533   3.360   0.941
 1503TIP3   OH2 4472   6.405   5.648   3.443
 1503TIP3    H1 4473   6.332   5.606   3.488
 1503TIP3    H2 4474   6.480   5.591   3.462
 1504TIP3   OH2 4475   2.424   4.091   1.978
 1504TIP3    H1 4476   2.495   4.135   2.025
 1504TIP3    H2 4477   2.463   4.067   1.894
 1505TIP3   OH2 4478   3.011   6.525   1.683
 1505TIP3    H1 4479   2.986   6.617   1.689
 1505TIP3    H2 4480   3.106   6.525   1.693
 1506TIP3   OH2 4481   4.475   1.354   3.581
 1506TIP3    H1 4482   4.499   1.438   3.541
 1506TIP3    H2 4483   4.401   1.376   3.638
 1507TIP3   OH2 4484   1.418   5.572   4.349
 1507TIP3    H1 4485   1.360   5.648   4.348
 1507TIP3    H2 4486   1.490   5.596   4.291
 1508TIP3   OH2 4487   3.568   3.844   4.224
 1508TIP3    H1 4488   3.560   3.897   4.303
 1508TIP3    H2 4489   3.477   3.828   4.197
 1509TIP3   OH2 4490   3.259   4.304   4.297
 1509TIP3    H1 4491   3.191   4.244   4.330
 1509TIP3    H2 4492   3.317   4.317   4.372
 1510TIP3   OH2 4493   5.812   5.497   0.367
 1510TIP3    H1 4494   5.901   5.475   0.340
 1510TIP3    H2 4495   5.756   5.460   0.299
 1511TIP3   OH2 4496   2.793   5.565   0.712
 1511TIP3    H1 4497   2.782   5.470   0.715
 1511TIP3    H2 4498   2.817   5.583   0.621
 1512TIP3   OH2 4499   1.157   6.442   0.662
 1512TIP3    H1 4500   1.077   6.410   0.704
 1512TIP3    H2 4501   1.225   6.433   0.729
 1513TIP3   OH2 4502   0.436   6.049   5.347
 1513TIP3    H1 4503   0.507   6.037   5.410
 1513TIP3    H2 4504   0.476   6.035   5.262
 1514TIP3   OH2 4505   3.548   1.856   3.773
 1514TIP3    H1 4506   3.584   1.910   3.844
 1514TIP3    H2 4507   3.612   1.862   3.703
 1515TIP3   OH2 4508   0.371   6.659   0.168
 1515TIP3    H1 4509   0.413   6.622   0.246
 1515TIP3    H2 4510   0.412   6.745   0.157
 1516TIP3   OH2 4511   0.978   1.186   0.427
 1516TIP3    H1 4512   1.015   1.241   0.496
 1516TIP3    H2 4513   1.047   1.123   0.406
 1517TIP3   OH2 4514  -0.011   6.027   5.369
 1517TIP3    H1 4515  -0.013   5.957   5.304
 1517TIP3    H2 4516  -0.013   6.107   5.318
 1518TIP3   OH2 4517   2.823   4.896   4.741
 1518TIP3    H1 4518   2.833   4.922   4.833
 1518TIP3    H2 4519   2.849   4.973   4.691
 1519TIP3   OH2 4520   2.912   5.540   1.885
 1519TIP3    H1 4521   2.860   5.462   1.866
 1519TIP3    H2 4522   2.870   5.579   1.962
 1520TIP3   OH2 4523   3.047   5.706   4.608
 1520TIP3    H1 4524   3.065   5.615   4.634
 1520TIP3    H2 4525   3.131   5.751   4.620
 1521TIP3   OH2 4526   6.987   3.765   1.078
 1521TIP3    H1 4527   6.959   3.839   1.133
 1521TIP3    H2 4528   6.929   3.693   1.102
 1522TIP3   OH2 4529   6.699   6.381   2.016
 1522TIP3    H1 4530   6.618   6.334   2.037
 1522TIP3    H2 4531   6.760   6.357   2.085
 1523TIP3   OH2 4532   4.874   1.164   4.591
 1523TIP3    H1 4533   4.821   1.214   4.528
 1523TIP3    H2 4534   4.959   1.153   4.547
 1524TIP3   OH2 4535   5.208   4.575   2.951
 1524TIP3    H1 4536   5.142   4.637   2.982
 1524TIP3    H2 4537   5.192   4.496   3.002
 1525TIP3   OH2 4538   5.442   1.638   0.714
 1525TIP3    H1 4539   5.473   1.723   0.747
 1525TIP3    H2 4540   5.501   1.618   0.642
 1526TIP3   OH2 4541   4.863   1.071   2.390
 1526TIP3    H1 4542   4.937   1.081   2.450
 1526TIP3    H2 4543   4.873   1.142   2.328
 1527TIP3   OH2 4544   4.934   3.681   2.328
 1527TIP3    H1 4545   4.908   3.653   2.416
 1527TIP3    H2 4546   5.003   3.619   2.302
 1528TIP3   OH2 4547   0.632   3.155   3.110
 1528TIP3    H1 4548   0.642   3.212   3.034
 1528TIP3    H2 4549   0.574   3.204   3.169
 1529TIP3   OH2 4550   3.992   5.575   4.691
 1529TIP3    H1 4551   3.990   5.623   4.609
 1529TIP3    H2 4552   4.080   5.537   4.694
 1530TIP3   OH2 4553   2.979   6.391  -0.021
 1530TIP3    H1 4554   2.974   6.483  -0.047
 1530TIP3    H2 4555   2.930   6.386   0.061
 1531TIP3   OH2 4556   5.880   2.278   2.998
 1531TIP3    H1 4557   5.946   2.237   2.942
 1531TIP3    H2 4558   5.847   2.352   2.947
 1532TIP3   OH2 4559   0.700   5.560   1.577
 1532TIP3    H1 4560   0.679   5.607   1.496
 1532TIP3    H2 4561   0.615   5.537   1.614
 1533TIP3   OH2 4562   0.182   5.665   3.478
 1533TIP3    H1 4563   0.187   5.749   3.434
 1533TIP3    H2 4564   0.094   5.661   3.514
 1534TIP3   OH2 4565   3.813   5.811   4.597
 1534TIP3    H1 4566   3.849   5.831   4.683
 1534TIP3    H2 4567   3.805   5.896   4.553
 1535TIP3   OH2 4568   1.566   5.567   5.501
 1535TIP3    H1 4569   1.619   5.604   5.430
 1535TIP3    H2 4570   1.580   5.473   5.496
 1536TIP3   OH2 4571   7.059   3.146   0.375
 1536TIP3    H1 4572   7.022   3.129   0.461
 1536TIP3    H2 4573   6.983   3.165   0.320
 1537TIP3   OH2 4574   0.237   0.419   2.224
 1537TIP3    H1 4575   0.325   0.416   2.187
 1537TIP3    H2 4576   0.206   0.508   2.206
 1538TIP3   OH2 4577   0.483   1.228   2.351
 1538TIP3    H1 4578   0.414   1.273   2.401
 1538TIP3    H2 4579   0.443   1.145   2.324
 1539TIP3   OH2 4580   2.156   6.489   4.039
 1539TIP3    H1 4581   2.160   6.567   4.095
 1539TIP3    H2 4582   2.100   6.428   4.088
 1540TIP3   OH2 4583   4.610   1.871   3.095
 1540TIP3    H1 4584   4.653   1.794   3.131
 1540TIP3    H2 4585   4.682   1.924   3.060
 1541TIP3   OH2 4586   0.317   2.023   2.423
 1541TIP3    H1 4587   0.405   2.006   2.392
 1541TIP3    H2 4588   0.328   2.047   2.515
 1542TIP3   OH2 4589   2.702   1.713   0.208
 1542TIP3    H1 4590   2.764   1.675   0.271
 1542TIP3    H2 4591   2.697   1.805   0.231
 1543TIP3   OH2 4592   1.630   1.500   2.061
 1543TIP3    H1 4593   1.609   1.430   1.999
 1543TIP3    H2 4594   1.657   1.454   2.140
 1544TIP3   OH2 4595   2.796   6.378   3.499
 1544TIP3    H1 4596   2.705   6.381   3.469
 1544TIP3    H2 4597   2.811   6.286   3.520
 1545TIP3   OH2 4598   0.906   4.188   3.782
 1545TIP3    H1 4599   0.849   4.234   3.721
 1545TIP3    H2 4600   0.868   4.100   3.789
 1546TIP3   OH2 4601   3.985   0.896   2.972
 1546TIP3    H1 4602   3.969   0.802   2.957
 1546TIP3    H2 4603   4.056   0.898   3.036
 1547TIP3   OH2 4604   5.261   3.029   2.985
 1547TIP3    H1 4605   5.281   3.096   3.050
 1547TIP3    H2 4606   5.196   2.972   3.027
 1548TIP3   OH2 4607   2.694   0.150   0.350
 1548TIP3    H1 4608   2.664   0.143   0.259
 1548TIP3    H2 4609   2.782   0.114   0.349
 1549TIP3   OH2 4610   0.757   5.250   4.440
 1549TIP3    H1 4611   0.818   5.250   4.366
 1549TIP3    H2 4612   0.695   5.320   4.421
 1550TIP3   OH2 4613   4.948   6.047   3.790
 1550TIP3    H1 4614   4.992   6.027   3.707
 1550TIP3    H2 4615   4.944   6.143   3.792
 1551TIP3   OH2 4616   1.825   2.446   0.575
 1551TIP3    H1 4617   1.918   2.428   0.585
 1551TIP3    H2 4618   1.806   2.423   0.484
 1552TIP3   OH2 4619   5.438   6.321   3.708
 1552TIP3    H1 4620   5.525   6.334   3.672
 1552TIP3    H2 4621   5.451   6.320   3.802
 1553TIP3   OH2 4622   1.854   0.833   5.301
 1553TIP3    H1 4623   1.901   0.916   5.314
 1553TIP3    H2 4624   1.797   0.825   5.378
 1554TIP3   OH2 4625   6.348   5.983   0.988
 1554TIP3    H1 4626   6.361   5.945   1.075
 1554TIP3    H2 4627   6.267   6.034   0.996
 1555TIP3   OH2 4628   6.467   0.795   1.530
 1555TIP3    H1 4629   6.520   0.749   1.595
 1555TIP3    H2 4630   6.417   0.859   1.581
 1556TIP3   OH2 4631   5.106   4.567   1.460
 1556TIP3    H1 4632   5.039   4.546   1.396
 1556TIP3    H2 4633   5.126   4.483   1.502
 1557TIP3   OH2 4634   2.478   2.047   0.072
 1557TIP3    H1 4635   2.391   2.009   0.082
 1557TIP3    H2 4636   2.519   1.997   0.001
 1558TIP3   OH2 4637   3.618   2.669   1.841
 1558TIP3    H1 4638   3.659   2.675   1.927
 1558TIP3    H2 4639   3.679   2.616   1.789
 1559TIP3   OH2 4640   1.098   3.468   1.667
 1559TIP3    H1 4641   1.111   3.516   1.750
 1559TIP3    H2 4642   1.161   3.508   1.607
 1560TIP3   OH2 4643   0.305   6.168   4.907
 1560TIP3    H1 4644   0.223   6.162   4.858
 1560TIP3    H2 4645   0.355   6.091   4.879
 1561TIP3   OH2 4646   0.762   2.823   1.990
 1561TIP3    H1 4647   0.781   2.907   2.032
 1561TIP3    H2 4648   0.787   2.836   1.899
 1562TIP3   OH2 4649   0.391   2.781   1.318
 1562TIP3    H1 4650   0.354   2.852   1.265
 1562TIP3    H2 4651   0.479   2.768   1.283
 1563TIP3   OH2 4652   4.591   3.525   4.003
 1563TIP3    H1 4653   4.540   3.600   3.974
 1563TIP3    H2 4654   4.671   3.528   3.952
 1564TIP3   OH2 4655   5.164   6.502   2.958
 1564TIP3    H1 4656   5.082   6.503   2.909
 1564TIP3    H2 4657   5.141   6.463   3.042
 1565TIP3   OH2 4658   1.429   3.070   2.856
 1565TIP3    H1 4659   1.391   3.005   2.915
 1565TIP3    H2 4660   1.496   3.022   2.807
 1566TIP3   OH2 4661   5.210   4.754   5.383
 1566TIP3    H1 4662   5.300   4.786   5.390
 1566TIP3    H2 4663   5.209   4.700   5.303
 1567TIP3   OH2 4664   3.453   1.249   3.074
 1567TIP3    H1 4665   3.406   1.239   2.990
 1567TIP3    H2 4666   3.511   1.324   3.059
 1568TIP3   OH2 4667   6.476   4.898   0.731
 1568TIP3    H1 4668   6.538   4.856   0.671
 1568TIP3    H2 4669   6.390   4.879   0.694
 1569TIP3   OH2 4670   2.202   0.495   1.867
 1569TIP3    H1 4671   2.270   0.546   1.822
 1569TIP3    H2 4672   2.247   0.414   1.892
 1570TIP3   OH2 4673   0.201   0.465   1.843
 1570TIP3    H1 4674   0.287   0.492   1.813
 1570TIP3    H2 4675   0.149   0.455   1.763
 1571TIP3   OH2 4676   3.112   5.159   1.464
 1571TIP3    H1 4677   3.033   5.211   1.475
 1571TIP3    H2 4678   3.152   5.193   1.383
 1572TIP3   OH2 4679   2.593   2.943   4.033
 1572TIP3    H1 4680   2.507   2.986   4.033
 1572TIP3    H2 4681   2.649   3.004   4.081
 1573TIP3   OH2 4682   2.804   0.773   5.682
 1573TIP3    H1 4683   2.832   0.861   5.661
 1573TIP3    H2 4684   2.878   0.717   5.657
 1574TIP3   OH2 4685   3.610   6.096   5.271
 1574TIP3    H1 4686   3.686   6.123   5.219
 1574TIP3    H2 4687   3.536   6.138   5.228
 1575TIP3   OH2 4688   5.794   0.368   5.098
 1575TIP3    H1 4689   5.865   0.347   5.159
 1575TIP3    H2 4690   5.723   0.401   5.152
 1576TIP3   OH2 4691   3.134   1.496   0.074
 1576TIP3    H1 4692   3.190   1.566   0.106
 1576TIP3    H2 4693   3.068   1.485   0.143
 1577TIP3   OH2 4694   4.856   6.234   4.888
 1577TIP3    H1 4695   4.891   6.275   4.810
 1577TIP3    H2 4696   4.789   6.174   4.856
 1578TIP3   OH2 4697   3.574   0.713   1.457
 1578TIP3    H1 4698   3.496   0.764   1.438
 1578TIP3    H2 4699   3.644   0.779   1.464
 1579TIP3   OH2 4700   3.906   3.393   2.821
 1579TIP3    H1 4701   3.956   3.458   2.771
 1579TIP3    H2 4702   3.926   3.310   2.778
 1580TIP3   OH2 4703   6.936   1.042   4.693
 1580TIP3    H1 4704   6.896   0.957   4.712
 1580TIP3    H2 4705   7.019   1.020   4.650
 1581TIP3   OH2 4706   3.811   2.945   0.022
 1581TIP3    H1 4707   3.735   2.930   0.078
 1581TIP3    H2 4708   3.773   2.965  -0.064
 1582TIP3   OH2 4709   5.232   2.570   2.638
 1582TIP3    H1 4710   5.221   2.627   2.562
 1582TIP3    H2 4711   5.188   2.617   2.709
 1583TIP3   OH2 4712   5.458   6.387   4.467
 1583TIP3    H1 4713   5.443   6.468   4.419
 1583TIP3    H2 4714   5.539   6.402   4.515
 1584TIP3   OH2 4715   0.088   0.480   1.583
 1584TIP3    H1 4716  -0.002   0.447   1.592
 1584TIP3    H2 4717   0.138   0.405   1.552
 1585TIP3   OH2 4718   1.261   2.072   5.169
 1585TIP3    H1 4719   1.251   2.114   5.084
 1585TIP3    H2 4720   1.223   2.134   5.231
 1586TIP3   OH2 4721   0.449   2.655   4.882
 1586TIP3    H1 4722   0.486   2.685   4.965
 1586TIP3    H2 4723   0.514   2.593   4.848
 1587TIP3   OH2 4724   1.095   3.294   3.172
 1587TIP3    H1 4725   1.047   3.374   3.152
 1587TIP3    H2 4726   1.183   3.309   3.138
 1588TIP3   OH2 4727   6.103   0.845   1.613
 1588TIP3    H1 4728   6.019   0.878   1.582
 1588TIP3    H2 4729   6.137   0.793   1.540
 1589TIP3   OH2 4730   3.052   4.007   3.004
 1589TIP3    H1 4731   3.000   3.938   2.962
 1589TIP3    H2 4732   3.109   3.961   3.065
 1590TIP3   OH2 4733   3.262   6.214   1.904
 1590TIP3    H1 4734   3.282   6.182   1.816
 1590TIP3    H2 4735   3.175   6.180   1.922
 1591TIP3   OH2 4736   0.536   6.388   1.749
 1591TIP3    H1 4737   0.591   6.371   1.672
 1591TIP3    H2 4738   0.557   6.316   1.809
 1592TIP3   OH2 4739   0.078   1.598   2.979
 1592TIP3    H1 4740   0.127   1.657   2.921
 1592TIP3    H2 4741  -0.013   1.625   2.970
 1593TIP3   OH2 4742   2.437   1.332   4.481
 1593TIP3    H1 4743   2.510   1.286   4.440
 1593TIP3    H2 4744   2.454   1.424   4.463
 1594TIP3   OH2 4745   3.587   1.469   2.984
 1594TIP3    H1 4746   3.674   1.508   2.991
 1594TIP3    H2 4747   3.576   1.452   2.890
 1595TIP3   OH2 4748   1.658   2.307   5.233
 1595TIP3    H1 4749   1.736   2.264   5.268
 1595TIP3    H2 4750   1.595   2.306   5.305
 1596TIP3   OH2 4751   5.868   5.912   0.108
 1596TIP3    H1 4752   5.809   5.962   0.164
 1596TIP3    H2 4753   5.940   5.887   0.166
 1597TIP3   OH2 4754   5.649   0.351   0.411
 1597TIP3    H1 4755   5.590   0.414   0.453
 1597TIP3    H2 4756   5.732   0.360   0.458
 1598TIP3   OH2 4757   6.617   5.394   0.245
 1598TIP3    H1 4758   6.626   5.419   0.152
 1598TIP3    H2 4759   6.578   5.307   0.242
 1599TIP3   OH2 4760   1.683   6.325   0.802
 1599TIP3    H1 4761   1.761   6.359   0.758
 1599TIP3    H2 4762   1.691   6.230   0.795
 1600TIP3   OH2 4763   0.467   4.737   0.263
 1600TIP3    H1 4764   0.378   4.723   0.294
 1600TIP3    H2 4765   0.458   4.750   0.168
 1601TIP3   OH2 4766   0.957   0.957   0.206
 1601TIP3    H1 4767   1.017   0.929   0.275
 1601TIP3    H2 4768   0.994   1.040   0.175
 1602TIP3   OH2 4769   5.803   3.377   2.582
 1602TIP3    H1 4770   5.896   3.367   2.604
 1602TIP3    H2 4771   5.802   3.384   2.487
 1603TIP3   OH2 4772   0.879   5.728   4.079
 1603TIP3    H1 4773   0.973   5.713   4.087
 1603TIP3    H2 4774   0.858   5.785   4.153
 1604TIP3   OH2 4775   6.467   1.620   1.274
 1604TIP3    H1 4776   6.429   1.553   1.217
 1604TIP3    H2 4777   6.444   1.592   1.362
 1605TIP3   OH2 4778   5.460   5.744   4.553
 1605TIP3    H1 4779   5.420   5.793   4.481
 1605TIP3    H2 4780   5.403   5.668   4.566
 1606TIP3   OH2 4781   1.055   3.495   4.129
 1606TIP3    H1 4782   0.961   3.506   4.110
 1606TIP3    H2 4783   1.099   3.525   4.049
 1607TIP3   OH2 4784   2.354   6.506   3.516
 1607TIP3    H1 4785   2.382   6.575   3.576
 1607TIP3    H2 4786   2.431   6.489   3.462
 1608TIP3   OH2 4787   0.499   6.651   5.117
 1608TIP3    H1 4788   0.405   6.637   5.104
 1608TIP3    H2 4789   0.533   6.671   5.030
 1609TIP3   OH2 4790   5.580   3.678   3.246
 1609TIP3    H1 4791   5.650   3.649   3.187
 1609TIP3    H2 4792   5.583   3.774   3.241
 1610TIP3   OH2 4793   4.965   4.262   3.440
 1610TIP3    H1 4794   5.022   4.314   3.497
 1610TIP3    H2 4795   4.976   4.302   3.354
 1611TIP3   OH2 4796   1.318   0.950   5.718
 1611TIP3    H1 4797   1.387   0.971   5.655
 1611TIP3    H2 4798   1.298   0.858   5.702
 1612TIP3   OH2 4799   5.268   0.752   2.324
 1612TIP3    H1 4800   5.226   0.682   2.273
 1612TIP3    H2 4801   5.249   0.832   2.275
 1613TIP3   OH2 4802   0.567   3.638   2.141
 1613TIP3    H1 4803   0.512   3.569   2.177
 1613TIP3    H2 4804   0.647   3.593   2.114
 1614TIP3   OH2 4805   3.729   6.714   2.932
 1614TIP3    H1 4806   3.708   6.779   2.865
 1614TIP3    H2 4807   3.821   6.693   2.918
 1615TIP3   OH2 4808   3.586   3.965   1.914
 1615TIP3    H1 4809   3.580   4.027   1.841
 1615TIP3    H2 4810   3.616   4.018   1.987
 1616TIP3   OH2 4811   4.600   3.293   1.443
 1616TIP3    H1 4812   4.506   3.291   1.423
 1616TIP3    H2 4813   4.643   3.279   1.359
 1617TIP3   OH2 4814   5.291   5.258   1.092
 1617TIP3    H1 4815   5.202   5.223   1.083
 1617TIP3    H2 4816   5.347   5.192   1.051
 1618TIP3   OH2 4817   1.833   3.066   2.442
 1618TIP3    H1 4818   1.805   3.110   2.523
 1618TIP3    H2 4819   1.799   2.977   2.450
 1619TIP3   OH2 4820   1.220   3.030   5.189
 1619TIP3    H1 4821   1.277   3.084   5.244
 1619TIP3    H2 4822   1.246   2.940   5.210
 1620TIP3   OH2 4823   3.603   6.049   1.028
 1620TIP3    H1 4824   3.637   6.139   1.029
 1620TIP3    H2 4825   3.535   6.048   1.095
 1621TIP3   OH2 4826   3.064   5.109   0.316
 1621TIP3    H1 4827   2.992   5.163   0.349
 1621TIP3    H2 4828   3.122   5.171   0.271
 1622TIP3   OH2 4829   6.183   3.984   5.504
 1622TIP3    H1 4830   6.178   4.020   5.593
 1622TIP3    H2 4831   6.115   4.030   5.456
 1623TIP3   OH2 4832   4.227   2.735   5.217
 1623TIP3    H1 4833   4.234   2.816   5.167
 1623TIP3    H2 4834   4.205   2.668   5.151
 1624TIP3   OH2 4835   1.626   0.910   5.836
 1624TIP3    H1 4836   1.644   0.961   5.757
 1624TIP3    H2 4837   1.712   0.898   5.876
 1625TIP3   OH2 4838   6.819   0.693   3.475
 1625TIP3    H1 4839   6.910   0.697   3.507
 1625TIP3    H2 4840   6.769   0.743   3.540
 1626TIP3   OH2 4841   7.056   0.463   0.374
 1626TIP3    H1 4842   7.098   0.518   0.308
 1626TIP3    H2 4843   7.007   0.524   0.428
 1627TIP3   OH2 4844   1.721   0.975   1.122
 1627TIP3    H1 4845   1.804   0.955   1.165
 1627TIP3    H2 4846   1.690   1.054   1.165
 1628TIP3   OH2 4847   1.350   0.660   2.655
 1628TIP3    H1 4848   1.404   0.739   2.644
 1628TIP3    H2 4849   1.407   0.597   2.699
 1629TIP3   OH2 4850   6.236   0.184   4.389
 1629TIP3    H1 4851   6.258   0.246   4.459
 1629TIP3    H2 4852   6.167   0.228   4.339
 1630TIP3   OH2 4853   6.646   6.111   4.233
 1630TIP3    H1 4854   6.735   6.145   4.231
 1630TIP3    H2 4855   6.594   6.181   4.273
 1631TIP3   OH2 4856   1.571   3.780   0.746
 1631TIP3    H1 4857   1.663   3.760   0.763
 1631TIP3    H2 4858   1.568   3.876   0.746
 1632TIP3   OH2 4859   6.426   0.935   4.718
 1632TIP3    H1 4860   6.438   1.025   4.688
 1632TIP3    H2 4861   6.332   0.920   4.713
 1633TIP3   OH2 4862   4.727   6.040   0.677
 1633TIP3    H1 4863   4.774   6.033   0.594
 1633TIP3    H2 4864   4.732   5.952   0.715
 1634TIP3   OH2 4865   3.676   6.709   0.669
 1634TIP3    H1 4866   3.623   6.711   0.589
 1634TIP3    H2 4867   3.696   6.800   0.687
 1635TIP3   OH2 4868   2.205   3.142   2.888
 1635TIP3    H1 4869   2.171   3.052   2.884
 1635TIP3    H2 4870   2.138   3.191   2.934
 1636TIP3   OH2 4871   0.979   2.349   4.972
 1636TIP3    H1 4872   0.946   2.404   4.901
 1636TIP3    H2 4873   1.024   2.410   5.031
 1637TIP3   OH2 4874   0.347   0.815   0.721
 1637TIP3    H1 4875   0.418   0.878   0.737
 1637TIP3    H2 4876   0.376   0.766   0.644
 1638TIP3   OH2 4877   6.180   3.365   1.216
 1638TIP3    H1 4878   6.150   3.438   1.161
 1638TIP3    H2 4879   6.101   3.313   1.232
 1639TIP3   OH2 4880   5.106   3.173   1.264
 1639TIP3    H1 4881   5.140   3.262   1.261
 1639TIP3    H2 4882   5.183   3.118   1.278
 1640TIP3   OH2 4883   1.779   1.042   0.817
 1640TIP3    H1 4884   1.683   1.040   0.812
 1640TIP3    H2 4885   1.798   1.105   0.887
 1641TIP3   OH2 4886   4.189   4.352   2.922
 1641TIP3    H1 4887   4.229   4.354   2.835
 1641TIP3    H2 4888   4.230   4.426   2.968
 1642TIP3   OH2 4889   1.972   3.488   1.172
 1642TIP3    H1 4890   1.973   3.567   1.226
 1642TIP3    H2 4891   1.968   3.416   1.236
 1643TIP3   OH2 4892   1.865   2.843   4.680
 1643TIP3    H1 4893   1.838   2.901   4.609
 1643TIP3    H2 4894   1.789   2.786   4.694
 1644TIP3   OH2 4895   1.489   0.041   4.647
 1644TIP3    H1 4896   1.440  -0.032   4.684
 1644TIP3    H2 4897   1.471   0.114   4.706
 1645TIP3   OH2 4898   6.907   5.956   4.838
 1645TIP3    H1 4899   6.918   5.904   4.917
 1645TIP3    H2 4900   6.813   5.955   4.821
 1646TIP3   OH2 4901   1.827   3.755   3.406
 1646TIP3    H1 4902   1.764   3.826   3.424
 1646TIP3    H2 4903   1.911   3.791   3.434
 1647TIP3   OH2 4904   2.369   1.592   1.895
 1647TIP3    H1 4905   2.433   1.652   1.858
 1647TIP3    H2 4906   2.287   1.613   1.850
 1648TIP3   OH2 4907   2.843   4.922   1.052
 1648TIP3    H1 4908   2.790   4.933   0.974
 1648TIP3    H2 4909   2.810   4.987   1.114
 1649TIP3   OH2 4910   0.783   6.601   3.576
 1649TIP3    H1 4911   0.854   6.568   3.522
 1649TIP3    H2 4912   0.754   6.681   3.532
 1650TIP3   OH2 4913   4.670   6.472   1.882
 1650TIP3    H1 4914   4.699   6.420   1.807
 1650TIP3    H2 4915   4.658   6.409   1.953
 1651TIP3   OH2 4916   6.289   1.753   4.688
 1651TIP3    H1 4917   6.295   1.817   4.617
 1651TIP3    H2 4918   6.324   1.798   4.764
 1652TIP3   OH2 4919   3.617   0.232   3.320
 1652TIP3    H1 4920   3.683   0.297   3.297
 1652TIP3    H2 4921   3.557   0.230   3.245
 1653TIP3   OH2 4922   0.907   1.842   4.790
 1653TIP3    H1 4923   0.885   1.835   4.697
 1653TIP3    H2 4924   0.825   1.868   4.833
 1654TIP3   OH2 4925   1.948   0.031   1.217
 1654TIP3    H1 4926   1.979   0.115   1.182
 1654TIP3    H2 4927   2.026  -0.025   1.217
 1655TIP3   OH2 4928   2.367   6.370   1.347
 1655TIP3    H1 4929   2.419   6.359   1.426
 1655TIP3    H2 4930   2.428   6.403   1.281
 1656TIP3   OH2 4931   5.191   5.450   1.269
 1656TIP3    H1 4932   5.218   5.376   1.215
 1656TIP3    H2 4933   5.132   5.500   1.213
 1657TIP3   OH2 4934   6.533   4.921   1.645
 1657TIP3    H1 4935   6.534   4.994   1.707
 1657TIP3    H2 4936   6.600   4.862   1.677
 1658TIP3   OH2 4937   5.911   4.453   2.019
 1658TIP3    H1 4938   5.948   4.412   2.097
 1658TIP3    H2 4939   5.817   4.455   2.035
 1659TIP3   OH2 4940   6.511   1.419   5.543
 1659TIP3    H1 4941   6.590   1.407   5.490
 1659TIP3    H2 4942   6.518   1.351   5.611
 1660TIP3   OH2 4943   3.432   4.457   4.928
 1660TIP3    H1 4944   3.496   4.419   4.867
 1660TIP3    H2 4945   3.351   4.410   4.910
 1661TIP3   OH2 4946   3.740   5.238   2.235
 1661TIP3    H1 4947   3.772   5.289   2.160
 1661TIP3    H2 4948   3.783   5.153   2.226
 1662TIP3   OH2 4949   0.408   3.920   1.223
 1662TIP3    H1 4950   0.499   3.947   1.236
 1662TIP3    H2 4951   0.389   3.943   1.132
 1663TIP3   OH2 4952   2.385   5.360   3.954
 1663TIP3    H1 4953   2.305   5.401   3.921
 1663TIP3    H2 4954   2.437   5.432   3.990
 1664TIP3   OH2 4955   7.005   5.776   1.985
 1664TIP3    H1 4956   7.018   5.697   2.038
 1664TIP3    H2 4957   6.911   5.778   1.969
 1665TIP3   OH2 4958   2.453   6.346   3.826
 1665TIP3    H1 4959   2.549   6.348   3.815
 1665TIP3    H2 4960   2.438   6.281   3.893
 1666TIP3   OH2 4961   2.405   3.138   0.287
 1666TIP3    H1 4962   2.382   3.222   0.247
 1666TIP3    H2 4963   2.394   3.154   0.381
 1667TIP3   OH2 4964   6.170   1.197   0.310
 1667TIP3    H1 4965   6.182   1.182   0.404
 1667TIP3    H2 4966   6.259   1.214   0.277
 1668TIP3   OH2 4967   4.006   5.837   2.793
 1668TIP3    H1 4968   3.962   5.906   2.842
 1668TIP3    H2 4969   3.969   5.755   2.827
 1669TIP3   OH2 4970   1.576   4.047   2.516
 1669TIP3    H1 4971   1.562   4.028   2.608
 1669TIP3    H2 4972   1.508   4.110   2.494
 1670TIP3   OH2 4973   3.971   6.532   2.419
 1670TIP3    H1 4974   3.956   6.445   2.454
 1670TIP3    H2 4975   3.936   6.529   2.330
 1671TIP3   OH2 4976   6.681   0.118   2.266
 1671TIP3    H1 4977   6.690   0.042   2.209
 1671TIP3    H2 4978   6.745   0.102   2.336
 1672TIP3   OH2 4979   2.914   0.744   2.245
 1672TIP3    H1 4980   2.974   0.798   2.193
 1672TIP3    H2 4981   2.971   0.684   2.293
 1673TIP3   OH2 4982   6.305   0.618   2.765
 1673TIP3    H1 4983   6.301   0.658   2.678
 1673TIP3    H2 4984   6.244   0.668   2.818
 1674TIP3   OH2 4985   7.073   1.112   3.462
 1674TIP3    H1 4986   7.169   1.111   3.461
 1674TIP3    H2 4987   7.051   1.190   3.514
 1675TIP3   OH2 4988   3.247   0.077   1.571
 1675TIP3    H1 4989   3.220  -0.010   1.539
 1675TIP3    H2 4990   3.265   0.127   1.491
 1676TIP3   OH2 4991   0.222   3.697   5.828
 1676TIP3    H1 4992   0.185   3.776   5.868
 1676TIP3    H2 4993   0.149   3.657   5.780
 1677TIP3   OH2 4994   2.934   6.550   0.227
 1677TIP3    H1 4995   2.971   6.636   0.205
 1677TIP3    H2 4996   2.845   6.568   0.256
 1678TIP3   OH2 4997   3.586   2.324   2.908
 1678TIP3    H1 4998   3.505   2.371   2.886
 1678TIP3    H2 4999   3.656   2.382   2.876
 1679TIP3   OH2 5000   4.037   4.320   3.953
 1679TIP3    H1 5001   4.048   4.307   4.047
 1679TIP3    H2 5002   4.125   4.340   3.921
 1680TIP3   OH2 5003   3.909   1.749   1.968
 1680TIP3    H1 5004   3.945   1.838   1.973
 1680TIP3    H2 5005   3.859   1.739   2.049
 1681TIP3   OH2 5006   7.222   6.387   1.732
 1681TIP3    H1 5007   7.258   6.377   1.820
 1681TIP3    H2 5008   7.144   6.331   1.731
 1682TIP3   OH2 5009   2.666   3.020   2.430
 1682TIP3    H1 5010   2.606   3.069   2.486
 1682TIP3    H2 5011   2.630   3.031   2.342
 1683TIP3   OH2 5012   0.663   6.149   3.106
 1683TIP3    H1 5013   0.619   6.126   3.188
 1683TIP3    H2 5014   0.723   6.077   3.089
 1684TIP3   OH2 5015   1.182   5.776   2.362
 1684TIP3    H1 5016   1.272   5.809   2.371
 1684TIP3    H2 5017   1.168   5.768   2.268
 1685TIP3   OH2 5018   0.317   2.962   4.281
 1685TIP3    H1 5019   0.329   2.959   4.187
 1685TIP3    H2 5020   0.317   3.056   4.302
 1686TIP3   OH2 5021   2.205   0.351   3.052
 1686TIP3    H1 5022   2.194   0.446   3.043
 1686TIP3    H2 5023   2.118   0.315   3.033
 1687TIP3   OH2 5024   3.882   4.433   0.492
 1687TIP3    H1 5025   3.816   4.370   0.464
 1687TIP3    H2 5026   3.956   4.417   0.434
 1688TIP3   OH2 5027   1.668   3.032   0.579
 1688TIP3    H1 5028   1.703   3.036   0.490
 1688TIP3    H2 5029   1.695   3.115   0.619
 1689TIP3   OH2 5030   2.229   3.532   1.787
 1689TIP3    H1 5031   2.318   3.523   1.755
 1689TIP3    H2 5032   2.235   3.513   1.881
 1690TIP3   OH2 5033   5.422   4.062   1.424
 1690TIP3    H1 5034   5.434   4.001   1.497
 1690TIP3    H2 5035   5.485   4.034   1.358
 1691TIP3   OH2 5036   2.810   3.170   1.389
 1691TIP3    H1 5037   2.760   3.184   1.470
 1691TIP3    H2 5038   2.771   3.091   1.351
 1692TIP3   OH2 5039   4.728   5.236   2.712
 1692TIP3    H1 5040   4.672   5.169   2.672
 1692TIP3    H2 5041   4.675   5.272   2.783
 1693TIP3   OH2 5042   5.073   0.060   4.298
 1693TIP3    H1 5043   5.102   0.129   4.359
 1693TIP3    H2 5044   5.099  -0.022   4.340
 1694TIP3   OH2 5045   0.867   6.642   2.191
 1694TIP3    H1 5046   0.932   6.650   2.261
 1694TIP3    H2 5047   0.893   6.565   2.141
 1695TIP3   OH2 5048   3.947   1.834   0.462
 1695TIP3    H1 5049   3.966   1.842   0.368
 1695TIP3    H2 5050   3.874   1.894   0.477
 1696TIP3   OH2 5051   6.986   4.468   4.644
 1696TIP3    H1 5052   7.077   4.441   4.652
 1696TIP3    H2 5053   6.979   4.500   4.554
 1697TIP3   OH2 5054   5.203   0.912   1.970
 1697TIP3    H1 5055   5.237   0.962   2.044
 1697TIP3    H2 5056   5.217   0.820   1.994
 1698TIP3   OH2 5057   1.993   0.107   2.728
 1698TIP3    H1 5058   1.982   0.103   2.823
 1698TIP3    H2 5059   2.071   0.161   2.715
 1699TIP3   OH2 5060   0.238   5.590   0.343
 1699TIP3    H1 5061   0.175   5.627   0.405
 1699TIP3    H2 5062   0.279   5.518   0.391
 1700TIP3   OH2 5063   3.580   3.428   3.793
 1700TIP3    H1 5064   3.618   3.506   3.752
 1700TIP3    H2 5065   3.497   3.414   3.747
 1701TIP3   OH2 5066   1.171   6.096   2.160
 1701TIP3    H1 5067   1.131   6.136   2.237
 1701TIP3    H2 5068   1.254   6.060   2.192
 1702TIP3   OH2 5069   5.995   1.277   3.153
 1702TIP3    H1 5070   6.057   1.349   3.144
 1702TIP3    H2 5071   5.917   1.316   3.193
 1703TIP3   OH2 5072   0.879   4.273   2.679
 1703TIP3    H1 5073   0.848   4.184   2.696
 1703TIP3    H2 5074   0.974   4.267   2.689
 1704TIP3   OH2 5075   6.040   4.881   5.028
 1704TIP3    H1 5076   5.994   4.965   5.018
 1704TIP3    H2 5077   6.129   4.906   5.053
 1705TIP3   OH2 5078   3.235   1.737   2.437
 1705TIP3    H1 5079   3.175   1.808   2.458
 1705TIP3    H2 5080   3.179   1.664   2.412
 1706TIP3   OH2 5081   4.078   1.518   2.173
 1706TIP3    H1 5082   4.163   1.505   2.132
 1706TIP3    H2 5083   4.097   1.568   2.253
 1707TIP3   OH2 5084   3.195   5.757   0.749
 1707TIP3    H1 5085   3.163   5.842   0.717
 1707TIP3    H2 5086   3.235   5.778   0.834
 1708TIP3   OH2 5087   6.950   6.355   0.566
 1708TIP3    H1 5088   6.867   6.312   0.588
 1708TIP3    H2 5089   6.994   6.293   0.508
 1709TIP3   OH2 5090   0.499   5.041   0.254
 1709TIP3    H1 5091   0.451   4.999   0.183
 1709TIP3    H2 5092   0.579   5.072   0.213
 1710TIP3   OH2 5093   2.979   4.386   5.778
 1710TIP3    H1 5094   3.059   4.381   5.830
 1710TIP3    H2 5095   3.004   4.436   5.700
 1711TIP3   OH2 5096   5.815   1.539   5.437
 1711TIP3    H1 5097   5.872   1.579   5.371
 1711TIP3    H2 5098   5.825   1.445   5.423
 1712TIP3   OH2 5099   1.272   4.728   0.564
 1712TIP3    H1 5100   1.309   4.815   0.548
 1712TIP3    H2 5101   1.248   4.728   0.657
 1713TIP3   OH2 5102   3.833   1.076   2.182
 1713TIP3    H1 5103   3.897   1.146   2.174
 1713TIP3    H2 5104   3.854   1.016   2.110
 1714TIP3   OH2 5105   2.252   1.516   0.604
 1714TIP3    H1 5106   2.230   1.528   0.697
 1714TIP3    H2 5107   2.175   1.473   0.567
 1715TIP3   OH2 5108   0.481   0.238   3.366
 1715TIP3    H1 5109   0.480   0.300   3.292
 1715TIP3    H2 5110   0.531   0.163   3.333
 1716TIP3   OH2 5111   5.411   6.670   5.103
 1716TIP3    H1 5112   5.325   6.669   5.061
 1716TIP3    H2 5113   5.424   6.760   5.131
 1717TIP3   OH2 5114   2.480   6.319   5.110
 1717TIP3    H1 5115   2.420   6.313   5.036
 1717TIP3    H2 5116   2.471   6.235   5.155
 1718TIP3   OH2 5117   4.037   6.564   3.439
 1718TIP3    H1 5118   4.099   6.542   3.370
 1718TIP3    H2 5119   4.055   6.656   3.460
 1719TIP3   OH2 5120   1.986   0.894   1.228
 1719TIP3    H1 5121   1.965   0.899   1.321
 1719TIP3    H2 5122   2.071   0.936   1.220
 1720TIP3   OH2 5123   2.676   3.250   4.388
 1720TIP3    H1 5124   2.666   3.156   4.375
 1720TIP3    H2 5125   2.586   3.282   4.401
 1721TIP3   OH2 5126   0.549   6.083   2.628
 1721TIP3    H1 5127   0.625   6.088   2.686
 1721TIP3    H2 5128   0.585   6.094   2.540
 1722TIP3   OH2 5129   4.342   3.661   3.882
 1722TIP3    H1 5130   4.297   3.673   3.799
 1722TIP3    H2 5131   4.288   3.600   3.931
 1723TIP3   OH2 5132   2.180   1.436   2.584
 1723TIP3    H1 5133   2.146   1.466   2.500
 1723TIP3    H2 5134   2.102   1.412   2.635
 1724TIP3   OH2 5135   4.470   3.888   3.900
 1724TIP3    H1 5136   4.406   3.817   3.891
 1724TIP3    H2 5137   4.521   3.865   3.977
 1725TIP3   OH2 5138   6.265   4.781   0.591
 1725TIP3    H1 5139   6.293   4.738   0.510
 1725TIP3    H2 5140   6.175   4.810   0.573
 1726TIP3   OH2 5141   2.784   6.660   5.772
 1726TIP3    H1 5142   2.813   6.606   5.845
 1726TIP3    H2 5143   2.715   6.608   5.730
 1727TIP3   OH2 5144   5.387   3.803   4.331
 1727TIP3    H1 5145   5.331   3.739   4.286
 1727TIP3    H2 5146   5.412   3.760   4.412
 1728TIP3   OH2 5147   1.961   6.140   3.655
 1728TIP3    H1 5148   2.045   6.150   3.610
 1728TIP3    H2 5149   1.913   6.220   3.633
 1729TIP3   OH2 5150   3.809   5.819   4.904
 1729TIP3    H1 5151   3.793   5.762   4.979
 1729TIP3    H2 5152   3.857   5.893   4.940
 1730TIP3   OH2 5153   1.560   0.311   2.594
 1730TIP3    H1 5154   1.576   0.320   2.500
 1730TIP3    H2 5155   1.618   0.239   2.620
 1731TIP3   OH2 5156   1.620   2.874   2.388
 1731TIP3    H1 5157   1.528   2.877   2.412
 1731TIP3    H2 5158   1.626   2.803   2.324
 1732TIP3   OH2 5159   0.821   6.006   5.603
 1732TIP3    H1 5160   0.882   5.933   5.616
 1732TIP3    H2 5161   0.840   6.067   5.674
 1733TIP3   OH2 5162   6.501   6.549   5.807
 1733TIP3    H1 5163   6.430   6.614   5.803
 1733TIP3    H2 5164   6.576   6.592   5.766
 1734TIP3   OH2 5165   5.364   4.632   4.386
 1734TIP3    H1 5166   5.458   4.640   4.366
 1734TIP3    H2 5167   5.321   4.677   4.313
 1735TIP3   OH2 5168   7.039   6.565   1.949
 1735TIP3    H1 5169   7.106   6.583   2.015
 1735TIP3    H2 5170   7.057   6.476   1.919
 1736TIP3   OH2 5171   0.847   0.246   0.518
 1736TIP3    H1 5172   0.823   0.240   0.426
 1736TIP3    H2 5173   0.874   0.337   0.530
 1737TIP3   OH2 5174   3.865   0.676   5.584
 1737TIP3    H1 5175   3.803   0.680   5.656
 1737TIP3    H2 5176   3.839   0.599   5.533
 1738TIP3   OH2 5177   5.348   4.763   2.379
 1738TIP3    H1 5178   5.427   4.803   2.342
 1738TIP3    H2 5179   5.361   4.669   2.369
 1739TIP3   OH2 5180   5.811   5.045   4.727
 1739TIP3    H1 5181   5.740   4.981   4.734
 1739TIP3    H2 5182   5.812   5.088   4.812
 1740TIP3   OH2 5183   2.399   3.262   4.450
 1740TIP3    H1 5184   2.340   3.265   4.525
 1740TIP3    H2 5185   2.383   3.343   4.403
 1741TIP3   OH2 5186   6.957   0.746   5.672
 1741TIP3    H1 5187   7.017   0.745   5.597
 1741TIP3    H2 5188   6.892   0.813   5.650
 1742TIP3   OH2 5189   5.995   2.313   1.730
 1742TIP3    H1 5190   6.011   2.385   1.668
 1742TIP3    H2 5191   6.020   2.349   1.815
 1743TIP3   OH2 5192   4.981   3.913   3.158
 1743TIP3    H1 5193   5.044   3.976   3.124
 1743TIP3    H2 5194   5.022   3.877   3.237
 1744TIP3   OH2 5195   3.743   4.582   1.923
 1744TIP3    H1 5196   3.727   4.489   1.939
 1744TIP3    H2 5197   3.728   4.594   1.829
 1745TIP3   OH2 5198   2.111   5.019   5.646
 1745TIP3    H1 5199   2.110   4.931   5.609
 1745TIP3    H2 5200   2.074   5.009   5.734
 1746TIP3   OH2 5201   2.854   3.208   2.072
 1746TIP3    H1 5202   2.944   3.218   2.044
 1746TIP3    H2 5203   2.855   3.131   2.129
 1747TIP3   OH2 5204   2.531   5.466   1.584
 1747TIP3    H1 5205   2.457   5.519   1.611
 1747TIP3    H2 5206   2.504   5.426   1.501
 1748TIP3   OH2 5207   6.656   3.097   0.760
 1748TIP3    H1 5208   6.610   3.145   0.691
 1748TIP3    H2 5209   6.662   3.007   0.727
 1749TIP3   OH2 5210   6.478   6.740   3.975
 1749TIP3    H1 5211   6.391   6.706   3.997
 1749TIP3    H2 5212   6.494   6.809   4.040
 1750TIP3   OH2 5213   3.433   1.292   5.382
 1750TIP3    H1 5214   3.408   1.205   5.413
 1750TIP3    H2 5215   3.514   1.277   5.333
 1751TIP3   OH2 5216   1.282   5.129   1.248
 1751TIP3    H1 5217   1.197   5.171   1.231
 1751TIP3    H2 5218   1.264   5.064   1.315
 1752TIP3   OH2 5219   0.038   2.573   4.321
 1752TIP3    H1 5220   0.029   2.557   4.227
 1752TIP3    H2 5221   0.130   2.594   4.333
 1753TIP3   OH2 5222   3.059   4.798   3.379
 1753TIP3    H1 5223   2.973   4.757   3.371
 1753TIP3    H2 5224   3.107   4.769   3.302
 1754TIP3   OH2 5225   3.718   6.254   4.980
 1754TIP3    H1 5226   3.695   6.318   5.047
 1754TIP3    H2 5227   3.636   6.232   4.937
 1755TIP3   OH2 5228   0.180   4.951   0.630
 1755TIP3    H1 5229   0.211   5.000   0.706
 1755TIP3    H2 5230   0.087   4.936   0.646
 1756TIP3   OH2 5231   2.173   2.973   4.594
 1756TIP3    H1 5232   2.139   2.964   4.683
 1756TIP3    H2 5233   2.187   2.883   4.565
 1757TIP3   OH2 5234   3.289   2.550   2.640
 1757TIP3    H1 5235   3.349   2.624   2.650
 1757TIP3    H2 5236   3.219   2.584   2.583
 1758TIP3   OH2 5237   3.582   5.296   3.219
 1758TIP3    H1 5238   3.611   5.311   3.309
 1758TIP3    H2 5239   3.635   5.223   3.188
 1759TIP3   OH2 5240   3.199   3.149   3.901
 1759TIP3    H1 5241   3.209   3.225   3.842
 1759TIP3    H2 5242   3.105   3.130   3.900
 1760TIP3   OH2 5243   5.912   1.652   3.411
 1760TIP3    H1 5244   5.977   1.666   3.342
 1760TIP3    H2 5245   5.897   1.740   3.447
 1761TIP3   OH2 5246   3.074   5.569   5.614
 1761TIP3    H1 5247   3.014   5.625   5.664
 1761TIP3    H2 5248   3.153   5.622   5.604
 1762TIP3   OH2 5249   5.909   2.804   0.436
 1762TIP3    H1 5250   5.913   2.708   0.446
 1762TIP3    H2 5251   5.978   2.836   0.494
 1763TIP3   OH2 5252   5.262   5.473   5.162
 1763TIP3    H1 5253   5.206   5.404   5.126
 1763TIP3    H2 5254   5.207   5.552   5.157
 1764TIP3   OH2 5255   6.124   1.660   4.350
 1764TIP3    H1 5256   6.081   1.594   4.296
 1764TIP3    H2 5257   6.194   1.694   4.295
 1765TIP3   OH2 5258   3.485   0.117   0.942
 1765TIP3    H1 5259   3.434   0.036   0.941
 1765TIP3    H2 5260   3.474   0.152   0.853
 1766TIP3   OH2 5261   3.518   0.614   4.022
 1766TIP3    H1 5262   3.456   0.644   3.955
 1766TIP3    H2 5263   3.477   0.535   4.058
 1767TIP3   OH2 5264   3.420   2.124   1.985
 1767TIP3    H1 5265   3.337   2.160   2.016
 1767TIP3    H2 5266   3.477   2.121   2.062
 1768TIP3   OH2 5267   2.159   5.027   0.306
 1768TIP3    H1 5268   2.117   5.100   0.352
 1768TIP3    H2 5269   2.111   5.020   0.224
 1769TIP3   OH2 5270   3.677   3.510   1.003
 1769TIP3    H1 5271   3.742   3.546   1.064
 1769TIP3    H2 5272   3.595   3.552   1.029
 1770TIP3   OH2 5273   5.275   1.341   3.664
 1770TIP3    H1 5274   5.239   1.429   3.650
 1770TIP3    H2 5275   5.324   1.348   3.745
 1771TIP3   OH2 5276   6.351   4.438   1.827
 1771TIP3    H1 5277   6.347   4.378   1.753
 1771TIP3    H2 5278   6.346   4.525   1.788
 1772TIP3   OH2 5279   5.724   2.583   5.906
 1772TIP3    H1 5280   5.678   2.648   5.853
 1772TIP3    H2 5281   5.734   2.624   5.992
 1773TIP3   OH2 5282   3.060   3.496   0.964
 1773TIP3    H1 5283   2.983   3.529   0.919
 1773TIP3    H2 5284   3.037   3.498   1.057
 1774TIP3   OH2 5285   1.251   0.086   4.407
 1774TIP3    H1 5286   1.230   0.011   4.463
 1774TIP3    H2 5287   1.283   0.153   4.468
 1775TIP3   OH2 5288   6.059   3.321   2.564
 1775TIP3    H1 5289   6.061   3.344   2.471
 1775TIP3    H2 5290   6.071   3.226   2.565
 1776TIP3   OH2 5291   2.013   2.057   4.120
 1776TIP3    H1 5292   1.947   2.078   4.054
 1776TIP3    H2 5293   2.092   2.103   4.090
 1777TIP3   OH2 5294   6.108   4.991   2.599
 1777TIP3    H1 5295   6.157   4.995   2.681
 1777TIP3    H2 5296   6.158   4.931   2.543
 1778TIP3   OH2 5297   5.152   0.586   3.813
 1778TIP3    H1 5298   5.058   0.600   3.805
 1778TIP3    H2 5299   5.190   0.642   3.745
 1779TIP3   OH2 5300   2.847   4.074   2.269
 1779TIP3    H1 5301   2.915   4.038   2.326
 1779TIP3    H2 5302   2.878   4.162   2.247
 1780TIP3   OH2 5303   3.610   5.393   5.085
 1780TIP3    H1 5304   3.533   5.338   5.069
 1780TIP3    H2 5305   3.667   5.377   5.010
 1781TIP3   OH2 5306   3.374   5.259   4.967
 1781TIP3    H1 5307   3.398   5.253   4.874
 1781TIP3    H2 5308   3.376   5.169   4.998
 1782TIP3   OH2 5309   7.177   5.993   1.918
 1782TIP3    H1 5310   7.121   5.918   1.897
 1782TIP3    H2 5311   7.148   6.020   2.005
 1783TIP3   OH2 5312   1.390   4.245   2.442
 1783TIP3    H1 5313   1.373   4.335   2.469
 1783TIP3    H2 5314   1.449   4.253   2.367
 1784TIP3   OH2 5315   4.291   5.887   2.876
 1784TIP3    H1 5316   4.321   5.830   2.805
 1784TIP3    H2 5317   4.197   5.895   2.863
 1785TIP3   OH2 5318   2.469   6.605   1.779
 1785TIP3    H1 5319   2.532   6.561   1.722
 1785TIP3    H2 5320   2.505   6.693   1.792
 1786TIP3   OH2 5321   3.676   5.654   2.951
 1786TIP3    H1 5322   3.589   5.626   2.978
 1786TIP3    H2 5323   3.661   5.719   2.883
 1787TIP3   OH2 5324   1.913   1.690   5.525
 1787TIP3    H1 5325   1.934   1.600   5.550
 1787TIP3    H2 5326   1.943   1.697   5.434
 1788TIP3   OH2 5327   6.962   4.400   4.260
 1788TIP3    H1 5328   6.942   4.330   4.322
 1788TIP3    H2 5329   6.885   4.456   4.261
 1789TIP3   OH2 5330   1.007   6.494   4.286
 1789TIP3    H1 5331   0.920   6.535   4.284
 1789TIP3    H2 5332   1.068   6.567   4.296
 1790TIP3   OH2 5333   3.418   3.463   4.536
 1790TIP3    H1 5334   3.493   3.510   4.499
 1790TIP3    H2 5335   3.457   3.401   4.598
 1791TIP3   OH2 5336   3.485   4.062   3.811
 1791TIP3    H1 5337   3.402   4.089   3.850
 1791TIP3    H2 5338   3.528   4.143   3.787
 1792TIP3   OH2 5339   7.136   0.675   4.901
 1792TIP3    H1 5340   7.079   0.649   4.829
 1792TIP3    H2 5341   7.077   0.707   4.969
 1793TIP3   OH2 5342   4.599   0.956   3.720
 1793TIP3    H1 5343   4.639   1.022   3.663
 1793TIP3    H2 5344   4.576   0.884   3.662
 1794TIP3   OH2 5345   1.439   0.939   5.408
 1794TIP3    H1 5346   1.359   0.991   5.400
 1794TIP3    H2 5347   1.507   0.992   5.367
 1795TIP3   OH2 5348   0.569   4.476   3.931
 1795TIP3    H1 5349   0.574   4.404   3.868
 1795TIP3    H2 5350   0.660   4.495   3.952
 1796TIP3   OH2 5351   6.106   4.367   0.600
 1796TIP3    H1 5352   6.107   4.439   0.663
 1796TIP3    H2 5353   6.132   4.290   0.651
 1797TIP3   OH2 5354   1.224   4.468   0.624
 1797TIP3    H1 5355   1.303   4.441   0.672
 1797TIP3    H2 5356   1.247   4.553   0.586
 1798TIP3   OH2 5357   2.711   1.072   5.531
 1798TIP3    H1 5358   2.804   1.066   5.553
 1798TIP3    H2 5359   2.665   1.061   5.614
 1799TIP3   OH2 5360   6.668   4.743   0.584
 1799TIP3    H1 5361   6.657   4.788   0.501
 1799TIP3    H2 5362   6.753   4.700   0.577
 1800TIP3   OH2 5363   2.972   3.874   0.583
 1800TIP3    H1 5364   2.942   3.963   0.565
 1800TIP3    H2 5365   2.895   3.819   0.568
 1801TIP3   OH2 5366   0.279  -0.007   0.233
 1801TIP3    H1 5367   0.251   0.011   0.323
 1801TIP3    H2 5368   0.374  -0.015   0.239
 1802TIP3   OH2 5369   1.646   3.953   2.780
 1802TIP3    H1 5370   1.696   4.024   2.741
 1802TIP3    H2 5371   1.599   3.993   2.853
 1803TIP3   OH2 5372   0.899   1.972   0.928
 1803TIP3    H1 5373   0.876   1.927   1.010
 1803TIP3    H2 5374   0.969   2.033   0.953
 1804TIP3   OH2 5375   6.025   3.429   3.874
 1804TIP3    H1 5376   6.027   3.525   3.874
 1804TIP3    H2 5377   5.974   3.406   3.951
 1805TIP3   OH2 5378   2.547   2.631   1.757
 1805TIP3    H1 5379   2.622   2.659   1.705
 1805TIP3    H2 5380   2.537   2.699   1.824
 1806TIP3   OH2 5381   6.967   5.376   0.019
 1806TIP3    H1 5382   6.962   5.293   0.066
 1806TIP3    H2 5383   7.025   5.431   0.072
 1807TIP3   OH2 5384   3.715   2.320   4.004
 1807TIP3    H1 5385   3.741   2.383   3.937
 1807TIP3    H2 5386   3.733   2.363   4.087
 1808TIP3   OH2 5387   2.205   4.226   4.904
 1808TIP3    H1 5388   2.169   4.257   4.821
 1808TIP3    H2 5389   2.132   4.180   4.946
 1809TIP3   OH2 5390   0.953   2.973   2.338
 1809TIP3    H1 5391   1.041   2.997   2.310
 1809TIP3    H2 5392   0.965   2.924   2.419
 1810TIP3   OH2 5393   4.885   4.677   1.041
 1810TIP3    H1 5394   4.964   4.709   0.998
 1810TIP3    H2 5395   4.827   4.654   0.968
 1811TIP3   OH2 5396   0.030   2.878   0.778
 1811TIP3    H1 5397   0.098   2.820   0.743
 1811TIP3    H2 5398  -0.052   2.834   0.758
 1812TIP3   OH2 5399   2.483   4.375   5.227
 1812TIP3    H1 5400   2.543   4.434   5.182
 1812TIP3    H2 5401   2.495   4.291   5.184
 1813TIP3   OH2 5402   6.801   6.440   1.027
 1813TIP3    H1 5403   6.764   6.357   0.995
 1813TIP3    H2 5404   6.875   6.456   0.970
 1814TIP3   OH2 5405   4.553   0.414   5.477
 1814TIP3    H1 5406   4.468   0.453   5.455
 1814TIP3    H2 5407   4.559   0.422   5.572
 1815TIP3   OH2 5408   4.536   2.654   3.142
 1815TIP3    H1 5409   4.534   2.750   3.140
 1815TIP3    H2 5410   4.622   2.632   3.177
 1816TIP3   OH2 5411   6.366   1.330   3.006
 1816TIP3    H1 5412   6.326   1.379   2.934
 1816TIP3    H2 5413   6.323   1.364   3.084
 1817TIP3   OH2 5414   6.858   5.390   2.302
 1817TIP3    H1 5415   6.862   5.300   2.269
 1817TIP3    H2 5416   6.870   5.382   2.397
 1818TIP3   OH2 5417   7.066   6.303   1.143
 1818TIP3    H1 5418   7.107   6.235   1.197
 1818TIP3    H2 5419   7.024   6.361   1.206
 1819TIP3   OH2 5420   5.318   4.010   3.903
 1819TIP3    H1 5421   5.329   3.988   3.995
 1819TIP3    H2 5422   5.280   3.932   3.863
 1820TIP3   OH2 5423   0.136   2.583   5.717
 1820TIP3    H1 5424   0.197   2.656   5.714
 1820TIP3    H2 5425   0.187   2.509   5.751
 1821TIP3   OH2 5426   1.264   5.648   1.418
 1821TIP3    H1 5427   1.336   5.652   1.355
 1821TIP3    H2 5428   1.203   5.585   1.379
 1822TIP3   OH2 5429   4.397   4.467   0.451
 1822TIP3    H1 5430   4.449   4.424   0.519
 1822TIP3    H2 5431   4.430   4.430   0.369
 1823TIP3   OH2 5432   4.201   3.886   4.275
 1823TIP3    H1 5433   4.205   3.939   4.355
 1823TIP3    H2 5434   4.260   3.812   4.293
 1824TIP3   OH2 5435   4.221   3.124   5.549
 1824TIP3    H1 5436   4.202   3.197   5.608
 1824TIP3    H2 5437   4.192   3.046   5.596
 1825TIP3   OH2 5438   1.747   0.317   0.979
 1825TIP3    H1 5439   1.754   0.385   0.912
 1825TIP3    H2 5440   1.653   0.309   0.996
 1826TIP3   OH2 5441   2.555   2.562   3.715
 1826TIP3    H1 5442   2.614   2.542   3.642
 1826TIP3    H2 5443   2.576   2.652   3.739
 1827TIP3   OH2 5444   0.080   5.181   2.986
 1827TIP3    H1 5445   0.146   5.124   3.024
 1827TIP3    H2 5446   0.104   5.188   2.894
 1828TIP3   OH2 5447   2.149   1.176   3.199
 1828TIP3    H1 5448   2.201   1.172   3.279
 1828TIP3    H2 5449   2.152   1.087   3.163
 1829TIP3   OH2 5450   4.079   2.295   0.373
 1829TIP3    H1 5451   4.065   2.305   0.467
 1829TIP3    H2 5452   4.174   2.297   0.362
 1830TIP3   OH2 5453   0.607   1.154   4.896
 1830TIP3    H1 5454   0.623   1.226   4.834
 1830TIP3    H2 5455   0.692   1.113   4.906
 1831TIP3   OH2 5456   0.219   5.884   1.429
 1831TIP3    H1 5457   0.312   5.874   1.448
 1831TIP3    H2 5458   0.214   5.961   1.371
 1832TIP3   OH2 5459   5.148   5.248   1.508
 1832TIP3    H1 5460   5.057   5.277   1.503
 1832TIP3    H2 5461   5.193   5.319   1.553
 1833TIP3   OH2 5462   5.661   0.132   2.824
 1833TIP3    H1 5463   5.582   0.175   2.857
 1833TIP3    H2 5464   5.733   0.179   2.866
 1834TIP3   OH2 5465   0.062   3.987   3.353
 1834TIP3    H1 5466   0.011   3.996   3.273
 1834TIP3    H2 5467   0.152   4.006   3.326
 1835TIP3   OH2 5468   3.464   1.811   4.740
 1835TIP3    H1 5469   3.428   1.854   4.817
 1835TIP3    H2 5470   3.539   1.762   4.773
 1836TIP3   OH2 5471   5.302   1.684   1.931
 1836TIP3    H1 5472   5.360   1.672   1.856
 1836TIP3    H2 5473   5.228   1.735   1.897
 1837TIP3   OH2 5474   1.436   1.989   1.147
 1837TIP3    H1 5475   1.341   1.996   1.153
 1837TIP3    H2 5476   1.458   1.906   1.190
 1838TIP3   OH2 5477   1.256   0.627   3.475
 1838TIP3    H1 5478   1.318   0.632   3.547
 1838TIP3    H2 5479   1.274   0.544   3.432
 1839TIP3   OH2 5480   6.645   6.351   5.356
 1839TIP3    H1 5481   6.630   6.322   5.446
 1839TIP3    H2 5482   6.736   6.381   5.354
 1840TIP3   OH2 5483   3.342   6.658   3.751
 1840TIP3    H1 5484   3.349   6.631   3.659
 1840TIP3    H2 5485   3.248   6.660   3.768
 1841TIP3   OH2 5486   1.430   6.791   1.322
 1841TIP3    H1 5487   1.464   6.717   1.272
 1841TIP3    H2 5488   1.338   6.798   1.295
 1842TIP3   OH2 5489   0.082   3.884   4.918
 1842TIP3    H1 5490   0.129   3.823   4.974
 1842TIP3    H2 5491   0.010   3.832   4.880
 1843TIP3   OH2 5492   1.656   3.368   4.459
 1843TIP3    H1 5493   1.597   3.293   4.459
 1843TIP3    H2 5494   1.727   3.343   4.518
 1844TIP3   OH2 5495   2.402   3.656   5.386
 1844TIP3    H1 5496   2.458   3.672   5.462
 1844TIP3    H2 5497   2.434   3.574   5.350
 1845TIP3   OH2 5498   2.111   6.285   0.379
 1845TIP3    H1 5499   2.060   6.362   0.353
 1845TIP3    H2 5500   2.129   6.240   0.297
 1846TIP3   OH2 5501   0.424   2.088   0.328
 1846TIP3    H1 5502   0.479   2.141   0.269
 1846TIP3    H2 5503   0.347   2.143   0.343
 1847TIP3   OH2 5504   0.376   3.267   2.957
 1847TIP3    H1 5505   0.374   3.221   3.040
 1847TIP3    H2 5506   0.397   3.200   2.892
 1848TIP3   OH2 5507   4.379   6.136   3.794
 1848TIP3    H1 5508   4.474   6.119   3.797
 1848TIP3    H2 5509   4.373   6.231   3.805
 1849TIP3   OH2 5510   1.719   5.497   0.735
 1849TIP3    H1 5511   1.751   5.473   0.822
 1849TIP3    H2 5512   1.722   5.416   0.685
 1850TIP3   OH2 5513   1.198   3.199   2.300
 1850TIP3    H1 5514   1.223   3.111   2.272
 1850TIP3    H2 5515   1.242   3.257   2.238
 1851TIP3   OH2 5516   5.772   3.698   4.512
 1851TIP3    H1 5517   5.805   3.724   4.426
 1851TIP3    H2 5518   5.842   3.724   4.573
 1852TIP3   OH2 5519   1.361   1.252   5.881
 1852TIP3    H1 5520   1.295   1.207   5.828
 1852TIP3    H2 5521   1.416   1.298   5.818
 1853TIP3   OH2 5522   0.307   5.437   3.136
 1853TIP3    H1 5523   0.263   5.521   3.146
 1853TIP3    H2 5524   0.347   5.442   3.049
 1854TIP3   OH2 5525   3.294   0.781   1.478
 1854TIP3    H1 5526   3.317   0.745   1.564
 1854TIP3    H2 5527   3.209   0.741   1.457
 1855TIP3   OH2 5528   2.441   0.169   5.699
 1855TIP3    H1 5529   2.454   0.080   5.668
 1855TIP3    H2 5530   2.382   0.161   5.774
 1856TIP3   OH2 5531   5.507   4.544   5.438
 1856TIP3    H1 5532   5.503   4.615   5.375
 1856TIP3    H2 5533   5.513   4.587   5.523
 1857TIP3   OH2 5534   5.004   0.558   2.596
 1857TIP3    H1 5535   4.991   0.569   2.690
 1857TIP3    H2 5536   5.040   0.642   2.567
 1858TIP3   OH2 5537   2.828   4.502   1.750
 1858TIP3    H1 5538   2.804   4.548   1.831
 1858TIP3    H2 5539   2.744   4.478   1.710
 1859TIP3   OH2 5540   5.709   0.441   3.238
 1859TIP3    H1 5541   5.738   0.530   3.260
 1859TIP3    H2 5542   5.721   0.391   3.318
 1860TIP3   OH2 5543   2.151   3.608   1.014
 1860TIP3    H1 5544   2.097   3.546   1.063
 1860TIP3    H2 5545   2.091   3.652   0.955
 1861TIP3   OH2 5546   1.591   3.526   2.112
 1861TIP3    H1 5547   1.602   3.446   2.164
 1861TIP3    H2 5548   1.507   3.561   2.140
 1862TIP3   OH2 5549   6.671   6.090   3.261
 1862TIP3    H1 5550   6.620   6.157   3.306
 1862TIP3    H2 5551   6.717   6.136   3.191
 1863TIP3   OH2 5552   7.144   5.550   0.155
 1863TIP3    H1 5553   7.222   5.565   0.101
 1863TIP3    H2 5554   7.091   5.628   0.141
 1864TIP3   OH2 5555   0.422   5.121   4.805
 1864TIP3    H1 5556   0.335   5.086   4.825
 1864TIP3    H2 5557   0.480   5.045   4.812
 1865TIP3   OH2 5558   6.483   0.970   0.201
 1865TIP3    H1 5559   6.566   1.019   0.204
 1865TIP3    H2 5560   6.508   0.883   0.169
 1866TIP3   OH2 5561   6.303   2.874   2.698
 1866TIP3    H1 5562   6.388   2.851   2.736
 1866TIP3    H2 5563   6.240   2.822   2.748
 1867TIP3   OH2 5564   4.476   1.683   0.452
 1867TIP3    H1 5565   4.557   1.660   0.497
 1867TIP3    H2 5566   4.499   1.687   0.360
 1868TIP3   OH2 5567   3.174   2.513   3.578
 1868TIP3    H1 5568   3.122   2.443   3.538
 1868TIP3    H2 5569   3.207   2.474   3.659
 1869TIP3   OH2 5570   6.796   6.629   2.611
 1869TIP3    H1 5571   6.761   6.600   2.527
 1869TIP3    H2 5572   6.761   6.717   2.623
 1870TIP3   OH2 5573   2.373   5.533   0.221
 1870TIP3    H1 5574   2.281   5.518   0.200
 1870TIP3    H2 5575   2.381   5.516   0.314
 1871TIP3   OH2 5576   3.642   5.469   1.058
 1871TIP3    H1 5577   3.694   5.476   1.138
 1871TIP3    H2 5578   3.558   5.509   1.081
 1872TIP3   OH2 5579   3.946   6.588   1.884
 1872TIP3    H1 5580   4.017   6.652   1.882
 1872TIP3    H2 5581   3.990   6.503   1.871
 1873TIP3   OH2 5582   0.613   4.352   1.128
 1873TIP3    H1 5583   0.699   4.355   1.087
 1873TIP3    H2 5584   0.557   4.309   1.063
 1874TIP3   OH2 5585   3.195   3.790   1.337
 1874TIP3    H1 5586   3.188   3.885   1.328
 1874TIP3    H2 5587   3.289   3.774   1.351
 1875TIP3   OH2 5588   2.829   0.481   3.548
 1875TIP3    H1 5589   2.797   0.425   3.478
 1875TIP3    H2 5590   2.909   0.521   3.513
 1876TIP3   OH2 5591   4.243   0.208   1.294
 1876TIP3    H1 5592   4.157   0.247   1.311
 1876TIP3    H2 5593   4.304   0.282   1.294
 1877TIP3   OH2 5594   0.298   1.660   2.401
 1877TIP3    H1 5595   0.382   1.707   2.405
 1877TIP3    H2 5596   0.242   1.717   2.349
 1878TIP3   OH2 5597   1.432   6.049   4.447
 1878TIP3    H1 5598   1.480   6.009   4.519
 1878TIP3    H2 5599   1.342   6.056   4.479
 1879TIP3   OH2 5600   3.603   1.623   5.030
 1879TIP3    H1 5601   3.600   1.599   5.123
 1879TIP3    H2 5602   3.584   1.543   4.983
 1880TIP3   OH2 5603   2.016   2.188   3.235
 1880TIP3    H1 5604   2.017   2.149   3.322
 1880TIP3    H2 5605   2.104   2.225   3.224
 1881TIP3   OH2 5606   0.710   6.489   3.163
 1881TIP3    H1 5607   0.626   6.455   3.194
 1881TIP3    H2 5608   0.775   6.441   3.214
 1882TIP3   OH2 5609   1.919   0.086   5.878
 1882TIP3    H1 5610   1.932   0.156   5.814
 1882TIP3    H2 5611   1.826   0.090   5.899
 1883TIP3   OH2 5612   4.022   4.612   3.275
 1883TIP3    H1 5613   3.993   4.639   3.362
 1883TIP3    H2 5614   3.997   4.685   3.218
 1884TIP3   OH2 5615   6.361   2.768   0.394
 1884TIP3    H1 5616   6.384   2.860   0.380
 1884TIP3    H2 5617   6.394   2.723   0.316
 1885TIP3   OH2 5618   3.819   3.664   1.162
 1885TIP3    H1 5619   3.810   3.660   1.257
 1885TIP3    H2 5620   3.911   3.685   1.147
 1886TIP3   OH2 5621   6.989   2.036   0.510
 1886TIP3    H1 5622   7.011   2.129   0.506
 1886TIP3    H2 5623   7.049   2.000   0.576
 1887TIP3   OH2 5624   3.524   6.639   0.081
 1887TIP3    H1 5625   3.573   6.600   0.153
 1887TIP3    H2 5626   3.453   6.577   0.063
 1888TIP3   OH2 5627   4.628   1.038   4.542
 1888TIP3    H1 5628   4.703   1.095   4.528
 1888TIP3    H2 5629   4.552   1.096   4.537
 1889TIP3   OH2 5630   0.695   1.675   3.442
 1889TIP3    H1 5631   0.785   1.690   3.414
 1889TIP3    H2 5632   0.662   1.608   3.382
 1890TIP3   OH2 5633   2.520   2.437   2.136
 1890TIP3    H1 5634   2.479   2.360   2.175
 1890TIP3    H2 5635   2.448   2.488   2.099
 1891TIP3   OH2 5636   4.547   0.223   1.998
 1891TIP3    H1 5637   4.605   0.193   1.929
 1891TIP3    H2 5638   4.464   0.241   1.954
 1892TIP3   OH2 5639   1.791   1.043   2.938
 1892TIP3    H1 5640   1.853   1.024   2.868
 1892TIP3    H2 5641   1.768   1.136   2.925
 1893TIP3   OH2 5642   5.089   5.387   3.611
 1893TIP3    H1 5643   5.168   5.340   3.639
 1893TIP3    H2 5644   5.120   5.473   3.584
 1894TIP3   OH2 5645   1.033   5.600   0.786
 1894TIP3    H1 5646   1.035   5.607   0.882
 1894TIP3    H2 5647   0.946   5.632   0.762
 1895TIP3   OH2 5648   1.501   2.626   1.229
 1895TIP3    H1 5649   1.505   2.656   1.138
 1895TIP3    H2 5650   1.408   2.622   1.249
 1896TIP3   OH2 5651   6.768   4.294   0.605
 1896TIP3    H1 5652   6.780   4.200   0.620
 1896TIP3    H2 5653   6.709   4.322   0.675
 1897TIP3   OH2 5654   6.014   5.881   4.515
 1897TIP3    H1 5655   5.987   5.790   4.503
 1897TIP3    H2 5656   6.023   5.892   4.610
 1898TIP3   OH2 5657   5.695   1.751   1.400
 1898TIP3    H1 5658   5.778   1.720   1.365
 1898TIP3    H2 5659   5.696   1.846   1.384
 1899TIP3   OH2 5660   4.599   3.966   2.828
 1899TIP3    H1 5661   4.557   3.929   2.751
 1899TIP3    H2 5662   4.562   4.054   2.836
 1900TIP3   OH2 5663   0.978   0.747   4.158
 1900TIP3    H1 5664   0.995   0.655   4.177
 1900TIP3    H2 5665   1.031   0.767   4.081
 1901TIP3   OH2 5666   4.623   2.670   4.019
 1901TIP3    H1 5667   4.592   2.622   4.096
 1901TIP3    H2 5668   4.581   2.756   4.027
 1902TIP3   OH2 5669   1.096   5.718   1.080
 1902TIP3    H1 5670   1.058   5.789   1.028
 1902TIP3    H2 5671   1.124   5.761   1.161
 1903TIP3   OH2 5672   2.674   0.749   2.021
 1903TIP3    H1 5673   2.725   0.667   2.018
 1903TIP3    H2 5674   2.739   0.817   2.037
 1904TIP3   OH2 5675   4.832   5.693   5.732
 1904TIP3    H1 5676   4.919   5.711   5.697
 1904TIP3    H2 5677   4.797   5.623   5.677
 1905TIP3   OH2 5678   0.127   4.541   2.700
 1905TIP3    H1 5679   0.205   4.494   2.670
 1905TIP3    H2 5680   0.161   4.621   2.741
 1906TIP3   OH2 5681   5.911   2.691   1.355
 1906TIP3    H1 5682   5.914   2.679   1.260
 1906TIP3    H2 5683   5.904   2.785   1.368
 1907TIP3   OH2 5684   1.120   6.702   2.635
 1907TIP3    H1 5685   1.160   6.616   2.632
 1907TIP3    H2 5686   1.034   6.688   2.674
 1908TIP3   OH2 5687   3.615   2.256   0.939
 1908TIP3    H1 5688   3.587   2.305   1.016
 1908TIP3    H2 5689   3.534   2.219   0.903
 1909TIP3   OH2 5690   3.821   1.789   2.214
 1909TIP3    H1 5691   3.847   1.867   2.263
 1909TIP3    H2 5692   3.769   1.738   2.276
 1910TIP3   OH2 5693   4.314   3.058   1.061
 1910TIP3    H1 5694   4.337   2.965   1.053
 1910TIP3    H2 5695   4.219   3.060   1.054
 1911TIP3   OH2 5696   3.802   0.536   5.367
 1911TIP3    H1 5697   3.807   0.441   5.359
 1911TIP3    H2 5698   3.833   0.569   5.282
 1912TIP3   OH2 5699   2.090   5.169   4.318
 1912TIP3    H1 5700   2.136   5.235   4.369
 1912TIP3    H2 5701   2.140   5.088   4.333
 1913TIP3   OH2 5702   0.518   6.300   5.797
 1913TIP3    H1 5703   0.468   6.352   5.861
 1913TIP3    H2 5704   0.605   6.340   5.796
 1914TIP3   OH2 5705   0.679   4.610   5.796
 1914TIP3    H1 5706   0.752   4.671   5.805
 1914TIP3    H2 5707   0.717   4.531   5.757
 1915TIP3   OH2 5708   5.546   1.235   0.970
 1915TIP3    H1 5709   5.622   1.270   0.924
 1915TIP3    H2 5710   5.478   1.301   0.958
 1916TIP3   OH2 5711   0.718   0.583   1.745
 1916TIP3    H1 5712   0.748   0.533   1.670
 1916TIP3    H2 5713   0.643   0.633   1.712
 1917TIP3   OH2 5714   3.798   5.355   2.668
 1917TIP3    H1 5715   3.883   5.384   2.700
 1917TIP3    H2 5716   3.818   5.314   2.584
 1918TIP3   OH2 5717   4.498   6.430   5.670
 1918TIP3    H1 5718   4.502   6.336   5.689
 1918TIP3    H2 5719   4.418   6.461   5.712
 1919TIP3   OH2 5720   0.567   4.789   4.077
 1919TIP3    H1 5721   0.641   4.848   4.061
 1919TIP3    H2 5722   0.520   4.787   3.994
 1920TIP3   OH2 5723   3.393   6.296   4.334
 1920TIP3    H1 5724   3.437   6.361   4.389
 1920TIP3    H2 5725   3.300   6.312   4.347
 1921TIP3   OH2 5726   1.482   3.666   5.227
 1921TIP3    H1 5727   1.410   3.632   5.173
 1921TIP3    H2 5728   1.453   3.754   5.252
 1922TIP3   OH2 5729   0.834   1.351   2.923
 1922TIP3    H1 5730   0.836   1.317   2.834
 1922TIP3    H2 5731   0.924   1.378   2.941
 1923TIP3   OH2 5732   4.987   5.332   2.020
 1923TIP3    H1 5733   4.897   5.309   1.995
 1923TIP3    H2 5734   4.999   5.293   2.106
 1924TIP3   OH2 5735   2.709   6.740   0.233
 1924TIP3    H1 5736   2.688   6.832   0.246
 1924TIP3    H2 5737   2.628   6.693   0.255
 1925TIP3   OH2 5738   3.359   3.580   5.130
 1925TIP3    H1 5739   3.370   3.485   5.136
 1925TIP3    H2 5740   3.411   3.605   5.054
 1926TIP3   OH2 5741   3.859   4.758   2.089
 1926TIP3    H1 5742   3.794   4.696   2.057
 1926TIP3    H2 5743   3.943   4.719   2.065
 1927TIP3   OH2 5744   1.831   3.604   5.001
 1927TIP3    H1 5745   1.781   3.563   4.931
 1927TIP3    H2 5746   1.771   3.667   5.040
 1928TIP3   OH2 5747   3.171   2.970   5.345
 1928TIP3    H1 5748   3.109   2.975   5.418
 1928TIP3    H2 5749   3.181   2.876   5.328
 1929TIP3   OH2 5750   5.419   4.760   1.813
 1929TIP3    H1 5751   5.395   4.847   1.780
 1929TIP3    H2 5752   5.338   4.725   1.850
 1930TIP3   OH2 5753   2.415   3.577   1.089
 1930TIP3    H1 5754   2.323   3.588   1.063
 1930TIP3    H2 5755   2.411   3.520   1.166
 1931TIP3   OH2 5756   1.035   1.129   4.177
 1931TIP3    H1 5757   1.104   1.188   4.149
 1931TIP3    H2 5758   0.989   1.107   4.095
 1932TIP3   OH2 5759   4.716   4.134   5.832
 1932TIP3    H1 5760   4.720   4.183   5.750
 1932TIP3    H2 5761   4.808   4.123   5.857
 1933TIP3   OH2 5762   4.286   6.051   2.523
 1933TIP3    H1 5763   4.191   6.044   2.513
 1933TIP3    H2 5764   4.302   6.035   2.616
 1934TIP3   OH2 5765   2.290   6.432   3.191
 1934TIP3    H1 5766   2.326   6.426   3.103
 1934TIP3    H2 5767   2.277   6.341   3.218
 1935TIP3   OH2 5768   4.348   1.674   4.861
 1935TIP3    H1 5769   4.351   1.636   4.773
 1935TIP3    H2 5770   4.438   1.666   4.894
 1936TIP3   OH2 5771   5.342   4.020   4.796
 1936TIP3    H1 5772   5.315   3.967   4.721
 1936TIP3    H2 5773   5.287   4.098   4.793
 1937TIP3   OH2 5774   4.571   3.178   3.217
 1937TIP3    H1 5775   4.534   3.265   3.232
 1937TIP3    H2 5776   4.660   3.184   3.252
 1938TIP3   OH2 5777   2.334   2.611   2.011
 1938TIP3    H1 5778   2.326   2.650   2.098
 1938TIP3    H2 5779   2.397   2.668   1.966
 1939TIP3   OH2 5780   1.473   3.005   3.601
 1939TIP3    H1 5781   1.455   2.911   3.602
 1939TIP3    H2 5782   1.501   3.022   3.511
 1940TIP3   OH2 5783   5.802   4.056   4.670
 1940TIP3    H1 5784   5.715   4.096   4.674
 1940TIP3    H2 5785   5.796   3.981   4.729
 1941TIP3   OH2 5786   5.034   6.379   1.983
 1941TIP3    H1 5787   4.984   6.314   1.933
 1941TIP3    H2 5788   5.005   6.367   2.073
 1942TIP3   OH2 5789   0.326   1.191   5.116
 1942TIP3    H1 5790   0.406   1.141   5.097
 1942TIP3    H2 5791   0.257   1.125   5.119
 1943TIP3   OH2 5792   3.182   2.159   4.589
 1943TIP3    H1 5793   3.233   2.169   4.509
 1943TIP3    H2 5794   3.248   2.157   4.659
 1944TIP3   OH2 5795   6.307   5.312   2.332
 1944TIP3    H1 5796   6.322   5.218   2.336
 1944TIP3    H2 5797   6.213   5.320   2.317
 1945TIP3   OH2 5798   1.453   4.118   5.338
 1945TIP3    H1 5799   1.420   4.055   5.401
 1945TIP3    H2 5800   1.379   4.176   5.321
 1946TIP3   OH2 5801   4.237   3.277   2.053
 1946TIP3    H1 5802   4.213   3.341   1.986
 1946TIP3    H2 5803   4.233   3.192   2.009
 1947TIP3   OH2 5804   1.169   0.084  -0.057
 1947TIP3    H1 5805   1.080   0.109  -0.085
 1947TIP3    H2 5806   1.222   0.161  -0.075
 1948TIP3   OH2 5807   0.178   0.107   4.212
 1948TIP3    H1 5808   0.113   0.176   4.202
 1948TIP3    H2 5809   0.141   0.049   4.279
 1949TIP3   OH2 5810   0.415   0.506   1.535
 1949TIP3    H1 5811   0.348   0.552   1.485
 1949TIP3    H2 5812   0.378   0.418   1.548
 1950TIP3   OH2 5813   0.780   1.155   3.277
 1950TIP3    H1 5814   0.767   1.063   3.251
 1950TIP3    H2 5815   0.839   1.150   3.352
 1951TIP3   OH2 5816   1.102   0.136   4.177
 1951TIP3    H1 5817   1.128   0.112   4.266
 1951TIP3    H2 5818   1.182   0.170   4.137
 1952TIP3   OH2 5819   4.522   2.945   4.034
 1952TIP3    H1 5820   4.556   3.032   4.014
 1952TIP3    H2 5821   4.502   2.907   3.949
 1953TIP3   OH2 5822   3.748   6.354   5.266
 1953TIP3    H1 5823   3.666   6.391   5.299
 1953TIP3    H2 5824   3.816   6.408   5.306
 1954TIP3   OH2 5825   0.594   1.863   3.610
 1954TIP3    H1 5826   0.599   1.940   3.553
 1954TIP3    H2 5827   0.619   1.790   3.554
 1955TIP3   OH2 5828   2.921   4.472   1.381
 1955TIP3    H1 5829   2.863   4.547   1.397
 1955TIP3    H2 5830   2.896   4.441   1.294
 1956TIP3   OH2 5831   6.698   4.278   0.087
 1956TIP3    H1 5832   6.607   4.261   0.062
 1956TIP3    H2 5833   6.693   4.300   0.180
 1957TIP3   OH2 5834   4.695   0.096   5.645
 1957TIP3    H1 5835   4.605   0.130   5.646
 1957TIP3    H2 5836   4.696   0.033   5.574
 1958TIP3   OH2 5837   6.896   5.803   1.024
 1958TIP3    H1 5838   6.951   5.874   1.058
 1958TIP3    H2 5839   6.871   5.752   1.101
 1959TIP3   OH2 5840   3.076   0.549   2.340
 1959TIP3    H1 5841   3.136   0.540   2.266
 1959TIP3    H2 5842   3.042   0.461   2.355
 1960TIP3   OH2 5843   6.978   3.967   3.401
 1960TIP3    H1 5844   6.973   4.045   3.347
 1960TIP3    H2 5845   6.919   3.904   3.359
 1961TIP3   OH2 5846   2.640   3.097   1.933
 1961TIP3    H1 5847   2.721   3.147   1.943
 1961TIP3    H2 5848   2.602   3.096   2.020
 1962TIP3   OH2 5849   6.841   0.761   4.538
 1962TIP3    H1 5850   6.809   0.687   4.487
 1962TIP3    H2 5851   6.785   0.834   4.513
 1963TIP3   OH2 5852   5.404   2.055   2.344
 1963TIP3    H1 5853   5.381   1.994   2.274
 1963TIP3    H2 5854   5.461   2.004   2.402
 1964TIP3   OH2 5855   6.607   2.019   2.916
 1964TIP3    H1 5856   6.633   1.971   2.995
 1964TIP3    H2 5857   6.598   1.952   2.848
 1965TIP3   OH2 5858   6.156   0.187   3.549
 1965TIP3    H1 5859   6.176   0.133   3.626
 1965TIP3    H2 5860   6.080   0.144   3.510
 1966TIP3   OH2 5861   5.591   0.119   1.553
 1966TIP3    H1 5862   5.563   0.092   1.465
 1966TIP3    H2 5863   5.652   0.050   1.580
 1967TIP3   OH2 5864   2.494   6.038   0.926
 1967TIP3    H1 5865   2.467   6.028   0.834
 1967TIP3    H2 5866   2.500   6.132   0.939
 1968TIP3   OH2 5867   3.144   5.998   0.635
 1968TIP3    H1 5868   3.171   6.083   0.601
 1968TIP3    H2 5869   3.082   6.019   0.705
 1969TIP3   OH2 5870   4.654   0.486   3.292
 1969TIP3    H1 5871   4.735   0.464   3.245
 1969TIP3    H2 5872   4.683   0.498   3.383
 1970TIP3   OH2 5873   1.145   0.261   1.124
 1970TIP3    H1 5874   1.212   0.193   1.125
 1970TIP3    H2 5875   1.122   0.270   1.031
 1971TIP3   OH2 5876   6.451   1.354   4.815
 1971TIP3    H1 5877   6.531   1.330   4.862
 1971TIP3    H2 5878   6.427   1.440   4.849
 1972TIP3   OH2 5879   2.206   3.081   2.219
 1972TIP3    H1 5880   2.198   3.153   2.283
 1972TIP3    H2 5881   2.154   3.010   2.257
 1973TIP3   OH2 5882   1.020   6.752   1.949
 1973TIP3    H1 5883   1.062   6.676   1.908
 1973TIP3    H2 5884   1.023   6.734   2.043
 1974TIP3   OH2 5885   5.056   5.359   4.616
 1974TIP3    H1 5886   5.040   5.281   4.669
 1974TIP3    H2 5887   4.968   5.389   4.589
 1975TIP3   OH2 5888   3.237   3.982   1.929
 1975TIP3    H1 5889   3.290   3.913   1.889
 1975TIP3    H2 5890   3.147   3.949   1.925
 1976TIP3   OH2 5891   3.029   1.934   4.544
 1976TIP3    H1 5892   3.064   1.921   4.632
 1976TIP3    H2 5893   3.059   2.021   4.519
 1977TIP3   OH2 5894   3.982   3.660   0.628
 1977TIP3    H1 5895   3.996   3.715   0.705
 1977TIP3    H2 5896   3.888   3.643   0.627
 1978TIP3   OH2 5897   6.457   5.431   0.990
 1978TIP3    H1 5898   6.522   5.411   0.923
 1978TIP3    H2 5899   6.373   5.417   0.946
 1979TIP3   OH2 5900   1.538   6.185   3.359
 1979TIP3    H1 5901   1.516   6.223   3.274
 1979TIP3    H2 5902   1.607   6.241   3.394
 1980TIP3   OH2 5903   6.954   1.155   0.957
 1980TIP3    H1 5904   6.992   1.167   1.044
 1980TIP3    H2 5905   7.007   1.086   0.917
 1981TIP3   OH2 5906   2.853   1.117   3.551
 1981TIP3    H1 5907   2.859   1.187   3.615
 1981TIP3    H2 5908   2.885   1.155   3.469
 1982TIP3   OH2 5909   3.383   2.120   0.992
 1982TIP3    H1 5910   3.407   2.101   1.083
 1982TIP3    H2 5911   3.304   2.173   0.999
 1983TIP3   OH2 5912   3.826   1.824   1.307
 1983TIP3    H1 5913   3.739   1.834   1.270
 1983TIP3    H2 5914   3.885   1.852   1.237
 1984TIP3   OH2 5915   3.730   3.926   2.462
 1984TIP3    H1 5916   3.644   3.923   2.504
 1984TIP3    H2 5917   3.766   3.838   2.475
 1985TIP3   OH2 5918  -0.018   4.541   1.629
 1985TIP3    H1 5919  -0.039   4.634   1.640
 1985TIP3    H2 5920   0.075   4.539   1.611
 1986TIP3   OH2 5921   4.199   1.468   0.645
 1986TIP3    H1 5922   4.275   1.424   0.609
 1986TIP3    H2 5923   4.125   1.435   0.593
 1987TIP3   OH2 5924   6.943   2.201   5.605
 1987TIP3    H1 5925   6.858   2.237   5.579
 1987TIP3    H2 5926   7.002   2.276   5.604
 1988TIP3   OH2 5927   7.202   5.374   3.675
 1988TIP3    H1 5928   7.176   5.312   3.743
 1988TIP3    H2 5929   7.134   5.441   3.676
 1989TIP3   OH2 5930   6.800   6.139   2.247
 1989TIP3    H1 5931   6.733   6.087   2.204
 1989TIP3    H2 5932   6.755   6.183   2.318
 1990TIP3   OH2 5933   3.407   5.497   3.144
 1990TIP3    H1 5934   3.473   5.435   3.175
 1990TIP3    H2 5935   3.362   5.525   3.223
 1991TIP3   OH2 5936   1.282   6.565   5.011
 1991TIP3    H1 5937   1.203   6.619   5.017
 1991TIP3    H2 5938   1.354   6.628   5.001
 1992TIP3   OH2 5939   6.494   5.669   1.886
 1992TIP3    H1 5940   6.451   5.599   1.836
 1992TIP3    H2 5941   6.434   5.689   1.957
 1993TIP3   OH2 5942   0.830   4.066   1.370
 1993TIP3    H1 5943   0.852   4.028   1.455
 1993TIP3    H2 5944   0.889   4.141   1.361
 1994TIP3   OH2 5945   1.175   0.588   2.465
 1994TIP3    H1 5946   1.096   0.566   2.514
 1994TIP3    H2 5947   1.236   0.622   2.532
 1995TIP3   OH2 5948   6.349   5.697   4.957
 1995TIP3    H1 5949   6.255   5.681   4.950
 1995TIP3    H2 5950   6.368   5.688   5.050
 1996TIP3   OH2 5951   6.685   1.389   0.256
 1996TIP3    H1 5952   6.690   1.423   0.167
 1996TIP3    H2 5953   6.753   1.436   0.304
 1997TIP3   OH2 5954   6.509   6.291   1.584
 1997TIP3    H1 5955   6.557   6.213   1.614
 1997TIP3    H2 5956   6.559   6.365   1.620
 1998TIP3   OH2 5957   1.109   4.691   3.605
 1998TIP3    H1 5958   1.082   4.625   3.540
 1998TIP3    H2 5959   1.131   4.640   3.683
 1999TIP3   OH2 5960   4.829   2.860   1.012
 1999TIP3    H1 5961   4.801   2.934   1.066
 1999TIP3    H2 5962   4.751   2.804   1.007
 2000TIP3   OH2 5963   4.751   4.256   1.477
 2000TIP3    H1 5964   4.715   4.225   1.394
 2000TIP3    H2 5965   4.760   4.351   1.465
 2001TIP3   OH2 5966   1.600   1.841   3.128
 2001TIP3    H1 5967   1.629   1.931   3.144
 2001TIP3    H2 5968   1.572   1.810   3.214
 2002TIP3   OH2 5969   1.490   6.322   3.121
 2002TIP3    H1 5970   1.443   6.353   3.044
 2002TIP3    H2 5971   1.521   6.401   3.164
 2003TIP3   OH2 5972   3.176   0.536   5.762
 2003TIP3    H1 5973   3.106   0.569   5.706
 2003TIP3    H2 5974   3.147   0.556   5.851
 2004TIP3   OH2 5975   4.781   3.466   3.250
 2004TIP3    H1 5976   4.811   3.394   3.196
 2004TIP3    H2 5977   4.861   3.502   3.289
 2005TIP3   OH2 5978   4.632   5.775   2.261
 2005TIP3    H1 5979   4.580   5.836   2.314
 2005TIP3    H2 5980   4.624   5.691   2.306
 2006TIP3   OH2 5981   6.984   4.466   0.989
 2006TIP3    H1 5982   7.012   4.498   0.903
 2006TIP3    H2 5983   6.940   4.541   1.029
 2007TIP3   OH2 5984   0.508   3.079   2.816
 2007TIP3    H1 5985   0.529   3.015   2.748
 2007TIP3    H2 5986   0.475   3.027   2.889
 2008TIP3   OH2 5987   1.086   4.517   4.781
 2008TIP3    H1 5988   1.000   4.529   4.820
 2008TIP3    H2 5989   1.084   4.568   4.700
 2009TIP3   OH2 5990   6.235   6.678   3.577
 2009TIP3    H1 5991   6.221   6.752   3.518
 2009TIP3    H2 5992   6.172   6.691   3.648
 2010TIP3   OH2 5993   0.687   4.994   3.059
 2010TIP3    H1 5994   0.628   5.046   3.113
 2010TIP3    H2 5995   0.629   4.947   2.999
 2011TIP3   OH2 5996   3.962   5.965   4.098
 2011TIP3    H1 5997   3.990   6.052   4.068
 2011TIP3    H2 5998   4.018   5.947   4.173
 2012TIP3   OH2 5999   6.295   6.396   4.576
 2012TIP3    H1 6000   6.362   6.427   4.638
 2012TIP3    H2 6001   6.312   6.302   4.568
 2013TIP3   OH2 6002   1.541   5.408   2.431
 2013TIP3    H1 6003   1.564   5.463   2.506
 2013TIP3    H2 6004   1.498   5.467   2.370
 2014TIP3   OH2 6005   2.169   6.701   2.230
 2014TIP3    H1 6006   2.259   6.712   2.197
 2014TIP3    H2 6007   2.116   6.696   2.150
 2015TIP3   OH2 6008   6.017   5.985   2.215
 2015TIP3    H1 6009   6.036   5.963   2.306
 2015TIP3    H2 6010   6.097   5.963   2.168
 2016TIP3   OH2 6011   6.892   6.127   5.568
 2016TIP3    H1 6012   6.935   6.212   5.561
 2016TIP3    H2 6013   6.952   6.066   5.524
 2017TIP3   OH2 6014   6.145   0.879   3.459
 2017TIP3    H1 6015   6.059   0.881   3.500
 2017TIP3    H2 6016   6.158   0.968   3.427
 2018TIP3   OH2 6017   1.688   4.662   3.198
 2018TIP3    H1 6018   1.602   4.637   3.233
 2018TIP3    H2 6019   1.736   4.693   3.275
 2019TIP3   OH2 6020   0.005   0.982   4.633
 2019TIP3    H1 6021   0.052   0.955   4.554
 2019TIP3    H2 6022   0.063   0.957   4.705
 2020TIP3   OH2 6023   3.032   2.319   2.501
 2020TIP3    H1 6024   2.996   2.311   2.590
 2020TIP3    H2 6025   2.971   2.376   2.455
 2021TIP3   OH2 6026   6.451   5.867   1.212
 2021TIP3    H1 6027   6.527   5.913   1.178
 2021TIP3    H2 6028   6.475   5.774   1.207
 2022TIP3   OH2 6029   3.125   2.164   0.672
 2022TIP3    H1 6030   3.099   2.100   0.738
 2022TIP3    H2 6031   3.056   2.160   0.606
 2023TIP3   OH2 6032   4.292   0.410   0.270
 2023TIP3    H1 6033   4.323   0.366   0.191
 2023TIP3    H2 6034   4.203   0.439   0.248
 2024TIP3   OH2 6035   2.356   6.482   2.927
 2024TIP3    H1 6036   2.273   6.528   2.917
 2024TIP3    H2 6037   2.421   6.551   2.942
 2025TIP3   OH2 6038   2.023   2.951   4.862
 2025TIP3    H1 6039   1.966   2.934   4.787
 2025TIP3    H2 6040   1.984   2.901   4.934
 2026TIP3   OH2 6041   5.479   5.662   2.383
 2026TIP3    H1 6042   5.476   5.721   2.307
 2026TIP3    H2 6043   5.408   5.694   2.439
 2027TIP3   OH2 6044   2.570   3.603   1.965
 2027TIP3    H1 6045   2.491   3.632   2.011
 2027TIP3    H2 6046   2.572   3.656   1.885
 2028TIP3   OH2 6047   5.092   5.620   3.446
 2028TIP3    H1 6048   5.128   5.672   3.518
 2028TIP3    H2 6049   5.009   5.663   3.424
 2029TIP3   OH2 6050   3.098   1.695   5.110
 2029TIP3    H1 6051   3.127   1.613   5.152
 2029TIP3    H2 6052   3.006   1.679   5.089
 2030TIP3   OH2 6053   4.071   1.632   1.039
 2030TIP3    H1 6054   4.100   1.544   1.014
 2030TIP3    H2 6055   4.127   1.654   1.114
 2031TIP3   OH2 6056   0.376   2.043   2.688
 2031TIP3    H1 6057   0.463   2.005   2.698
 2031TIP3    H2 6058   0.350   2.068   2.776
 2032TIP3   OH2 6059   3.358   5.321   1.864
 2032TIP3    H1 6060   3.406   5.399   1.894
 2032TIP3    H2 6061   3.280   5.319   1.919
 2033TIP3   OH2 6062   6.642   3.948   3.778
 2033TIP3    H1 6063   6.572   3.883   3.767
 2033TIP3    H2 6064   6.666   3.973   3.689
 2034TIP3   OH2 6065   2.001   4.101   5.731
 2034TIP3    H1 6066   1.997   4.183   5.781
 2034TIP3    H2 6067   1.937   4.113   5.661
 2035TIP3   OH2 6068   1.944   2.787   1.489
 2035TIP3    H1 6069   2.026   2.781   1.439
 2035TIP3    H2 6070   1.880   2.740   1.435
 2036TIP3   OH2 6071   0.870   0.899   3.593
 2036TIP3    H1 6072   0.797   0.932   3.645
 2036TIP3    H2 6073   0.849   0.807   3.577
 2037TIP3   OH2 6074   2.146   5.616   0.547
 2037TIP3    H1 6075   2.122   5.698   0.590
 2037TIP3    H2 6076   2.147   5.552   0.618
 2038TIP3   OH2 6077   4.771   0.021   3.509
 2038TIP3    H1 6078   4.784  -0.022   3.425
 2038TIP3    H2 6079   4.683   0.057   3.505
 2039TIP3   OH2 6080   4.642   5.845   5.577
 2039TIP3    H1 6081   4.681   5.758   5.588
 2039TIP3    H2 6082   4.685   5.899   5.644
 2040TIP3   OH2 6083   4.971   3.565   2.634
 2040TIP3    H1 6084   4.995   3.504   2.704
 2040TIP3    H2 6085   4.929   3.638   2.680
 2041TIP3   OH2 6086   3.052   0.694   0.336
 2041TIP3    H1 6087   3.088   0.731   0.416
 2041TIP3    H2 6088   2.963   0.668   0.358
 2042TIP3   OH2 6089   2.306   4.799   1.529
 2042TIP3    H1 6090   2.393   4.811   1.491
 2042TIP3    H2 6091   2.277   4.714   1.497
 2043TIP3   OH2 6092   1.190   4.597   3.205
 2043TIP3    H1 6093   1.239   4.531   3.156
 2043TIP3    H2 6094   1.166   4.662   3.139
 2044TIP3   OH2 6095   2.505   1.899   1.859
 2044TIP3    H1 6096   2.486   1.875   1.949
 2044TIP3    H2 6097   2.598   1.920   1.859
 2045TIP3   OH2 6098   1.756   4.483   0.864
 2045TIP3    H1 6099   1.682   4.431   0.833
 2045TIP3    H2 6100   1.760   4.558   0.804
 2046TIP3   OH2 6101   4.134   6.365   1.891
 2046TIP3    H1 6102   4.192   6.440   1.904
 2046TIP3    H2 6103   4.187   6.302   1.843
 2047TIP3   OH2 6104   1.353   5.035   3.958
 2047TIP3    H1 6105   1.395   5.098   3.900
 2047TIP3    H2 6106   1.378   5.062   4.046
 2048TIP3   OH2 6107   2.044   6.713   1.942
 2048TIP3    H1 6108   1.971   6.763   1.981
 2048TIP3    H2 6109   2.096   6.779   1.896
 2049TIP3   OH2 6110   6.464   3.387   5.384
 2049TIP3    H1 6111   6.509   3.443   5.448
 2049TIP3    H2 6112   6.535   3.342   5.337
 2050TIP3   OH2 6113   4.446   0.586   1.567
 2050TIP3    H1 6114   4.506   0.573   1.641
 2050TIP3    H2 6115   4.472   0.669   1.529
 2051TIP3   OH2 6116   1.854   2.147   1.873
 2051TIP3    H1 6117   1.907   2.067   1.868
 2051TIP3    H2 6118   1.918   2.218   1.880
 2052TIP3   OH2 6119   0.328   0.041   3.875
 2052TIP3    H1 6120   0.233   0.048   3.873
 2052TIP3    H2 6121   0.357   0.074   3.790
 2053TIP3   OH2 6122   6.590   6.309   3.003
 2053TIP3    H1 6123   6.676   6.267   3.012
 2053TIP3    H2 6124   6.597   6.390   3.052
 2054TIP3   OH2 6125   5.752   1.084   2.040
 2054TIP3    H1 6126   5.784   1.139   1.968
 2054TIP3    H2 6127   5.809   1.008   2.040
 2055TIP3   OH2 6128   6.017   0.465   1.473
 2055TIP3    H1 6129   5.937   0.412   1.478
 2055TIP3    H2 6130   6.088   0.402   1.482
 2056TIP3   OH2 6131   1.124   4.642   5.143
 2056TIP3    H1 6132   1.070   4.706   5.097
 2056TIP3    H2 6133   1.210   4.685   5.152
 2057TIP3   OH2 6134   6.365   0.322   1.959
 2057TIP3    H1 6135   6.383   0.368   1.878
 2057TIP3    H2 6136   6.313   0.246   1.932
 2058TIP3   OH2 6137   3.142   1.914   0.840
 2058TIP3    H1 6138   3.086   1.836   0.834
 2058TIP3    H2 6139   3.137   1.940   0.932
 2059TIP3   OH2 6140   1.775   3.106   3.100
 2059TIP3    H1 6141   1.796   3.022   3.139
 2059TIP3    H2 6142   1.784   3.169   3.172
 2060TIP3   OH2 6143   3.591   6.042   4.375
 2060TIP3    H1 6144   3.628   6.115   4.324
 2060TIP3    H2 6145   3.591   5.968   4.315
 2061TIP3   OH2 6146   3.576   2.459   1.136
 2061TIP3    H1 6147   3.659   2.507   1.128
 2061TIP3    H2 6148   3.523   2.492   1.063
 2062TIP3   OH2 6149   0.795   1.788   5.760
 2062TIP3    H1 6150   0.736   1.758   5.829
 2062TIP3    H2 6151   0.881   1.790   5.803
 2063TIP3   OH2 6152   0.902   3.452   4.514
 2063TIP3    H1 6153   0.839   3.478   4.448
 2063TIP3    H2 6154   0.894   3.518   4.583
 2064TIP3   OH2 6155   5.708   3.750   2.556
 2064TIP3    H1 6156   5.725   3.836   2.595
 2064TIP3    H2 6157   5.786   3.699   2.578
 2065TIP3   OH2 6158   4.708   0.281   4.796
 2065TIP3    H1 6159   4.704   0.194   4.835
 2065TIP3    H2 6160   4.616   0.304   4.779
 2066TIP3   OH2 6161   1.587   0.192   0.386
 2066TIP3    H1 6162   1.636   0.159   0.462
 2066TIP3    H2 6163   1.559   0.113   0.340
 2067TIP3   OH2 6164   6.895   1.715   3.432
 2067TIP3    H1 6165   6.930   1.685   3.516
 2067TIP3    H2 6166   6.836   1.646   3.404
 2068TIP3   OH2 6167   5.722   4.397   1.213
 2068TIP3    H1 6168   5.724   4.463   1.144
 2068TIP3    H2 6169   5.643   4.417   1.264
 2069TIP3   OH2 6170   6.701   2.751   3.298
 2069TIP3    H1 6171   6.780   2.776   3.346
 2069TIP3    H2 6172   6.633   2.810   3.331
 2070TIP3   OH2 6173   2.088   5.491   4.402
 2070TIP3    H1 6174   2.009   5.539   4.378
 2070TIP3    H2 6175   2.089   5.493   4.497
 2071TIP3   OH2 6176   0.648   1.478   0.579
 2071TIP3    H1 6177   0.736   1.476   0.541
 2071TIP3    H2 6178   0.640   1.564   0.619
 2072TIP3   OH2 6179   6.025   3.693   0.470
 2072TIP3    H1 6180   5.942   3.645   0.464
 2072TIP3    H2 6181   6.092   3.624   0.467
 2073TIP3   OH2 6182   6.428   1.730   2.024
 2073TIP3    H1 6183   6.425   1.823   1.999
 2073TIP3    H2 6184   6.395   1.729   2.114
 2074TIP3   OH2 6185   0.542   6.142   3.375
 2074TIP3    H1 6186   0.582   6.133   3.462
 2074TIP3    H2 6187   0.490   6.062   3.364
 2075TIP3   OH2 6188   0.598   3.969   3.031
 2075TIP3    H1 6189   0.523   3.938   3.082
 2075TIP3    H2 6190   0.608   4.061   3.057
 2076TIP3   OH2 6191   2.552   5.332   0.140
 2076TIP3    H1 6192   2.505   5.409   0.171
 2076TIP3    H2 6193   2.639   5.339   0.180
 2077TIP3   OH2 6194   5.279   2.459   1.018
 2077TIP3    H1 6195   5.336   2.524   1.058
 2077TIP3    H2 6196   5.279   2.482   0.925
 2078TIP3   OH2 6197   4.196   3.254   4.435
 2078TIP3    H1 6198   4.107   3.261   4.468
 2078TIP3    H2 6199   4.197   3.310   4.357
 2079TIP3   OH2 6200   4.442   1.564   2.989
 2079TIP3    H1 6201   4.426   1.491   2.929
 2079TIP3    H2 6202   4.533   1.553   3.017
 2080TIP3   OH2 6203   4.111   2.858   0.809
 2080TIP3    H1 6204   4.156   2.816   0.735
 2080TIP3    H2 6205   4.025   2.882   0.774
 2081TIP3   OH2 6206   6.447   2.910   5.419
 2081TIP3    H1 6207   6.484   2.881   5.336
 2081TIP3    H2 6208   6.504   2.872   5.486
 2082TIP3   OH2 6209   5.109   2.554   0.378
 2082TIP3    H1 6210   5.161   2.612   0.434
 2082TIP3    H2 6211   5.152   2.469   0.384
 2083TIP3   OH2 6212   2.018   6.218   3.982
 2083TIP3    H1 6213   2.044   6.160   3.910
 2083TIP3    H2 6214   1.934   6.183   4.012
 2084TIP3   OH2 6215   3.930   2.849   3.334
 2084TIP3    H1 6216   4.003   2.863   3.394
 2084TIP3    H2 6217   3.959   2.776   3.278
 2085TIP3   OH2 6218   1.064   0.294   5.517
 2085TIP3    H1 6219   0.974   0.261   5.526
 2085TIP3    H2 6220   1.058   0.359   5.446
 2086TIP3   OH2 6221   4.580   1.905   4.974
 2086TIP3    H1 6222   4.586   1.811   4.991
 2086TIP3    H2 6223   4.499   1.932   5.019
 2087TIP3   OH2 6224   3.691   1.086   3.124
 2087TIP3    H1 6225   3.700   1.084   3.220
 2087TIP3    H2 6226   3.631   1.159   3.108
 2088TIP3   OH2 6227   2.447   2.657   5.510
 2088TIP3    H1 6228   2.463   2.709   5.431
 2088TIP3    H2 6229   2.523   2.600   5.518
 2089TIP3   OH2 6230   1.712   1.406   5.539
 2089TIP3    H1 6231   1.798   1.434   5.570
 2089TIP3    H2 6232   1.709   1.432   5.447
 2090TIP3   OH2 6233   5.521   0.377   4.896
 2090TIP3    H1 6234   5.427   0.373   4.878
 2090TIP3    H2 6235   5.527   0.380   4.992
 2091TIP3   OH2 6236   6.507   2.735   0.830
 2091TIP3    H1 6237   6.570   2.785   0.778
 2091TIP3    H2 6238   6.444   2.800   0.861
 2092TIP3   OH2 6239   4.103   1.180   2.149
 2092TIP3    H1 6240   4.148   1.146   2.071
 2092TIP3    H2 6241   4.093   1.274   2.131
 2093TIP3   OH2 6242   0.634   5.193   2.116
 2093TIP3    H1 6243   0.584   5.234   2.187
 2093TIP3    H2 6244   0.618   5.100   2.127
 2094TIP3   OH2 6245   4.297   5.401   1.630
 2094TIP3    H1 6246   4.369   5.435   1.684
 2094TIP3    H2 6247   4.218   5.419   1.681
 2095TIP3   OH2 6248   1.594   1.494   4.932
 2095TIP3    H1 6249   1.600   1.479   5.027
 2095TIP3    H2 6250   1.556   1.582   4.924
 2096TIP3   OH2 6251   2.474   4.623   3.182
 2096TIP3    H1 6252   2.531   4.681   3.132
 2096TIP3    H2 6253   2.415   4.584   3.117
 2097TIP3   OH2 6254   3.931   5.593   2.894
 2097TIP3    H1 6255   3.940   5.503   2.924
 2097TIP3    H2 6256   3.841   5.617   2.918
 2098TIP3   OH2 6257   5.901   2.105   0.761
 2098TIP3    H1 6258   5.940   2.143   0.682
 2098TIP3    H2 6259   5.917   2.170   0.829
 2099TIP3   OH2 6260   5.411   0.400   2.005
 2099TIP3    H1 6261   5.440   0.323   1.956
 2099TIP3    H2 6262   5.440   0.474   1.952
 2100TIP3   OH2 6263   4.095   6.194   5.751
 2100TIP3    H1 6264   4.186   6.180   5.725
 2100TIP3    H2 6265   4.044   6.166   5.674
 2101TIP3   OH2 6266   4.061   4.451   0.995
 2101TIP3    H1 6267   4.134   4.419   0.941
 2101TIP3    H2 6268   3.984   4.437   0.940
 2102TIP3   OH2 6269   4.151   4.078   4.072
 2102TIP3    H1 6270   4.195   4.018   4.132
 2102TIP3    H2 6271   4.120   4.150   4.128
 2103TIP3   OH2 6272   6.368   5.322   5.696
 2103TIP3    H1 6273   6.281   5.355   5.714
 2103TIP3    H2 6274   6.426   5.373   5.753
 2104TIP3   OH2 6275   2.624   5.757   0.458
 2104TIP3    H1 6276   2.533   5.762   0.429
 2104TIP3    H2 6277   2.643   5.663   0.463
 2105TIP3   OH2 6278   4.874   3.753   2.781
 2105TIP3    H1 6279   4.837   3.681   2.831
 2105TIP3    H2 6280   4.922   3.805   2.846
 2106TIP3   OH2 6281   1.768   5.109   3.021
 2106TIP3    H1 6282   1.792   5.062   2.941
 2106TIP3    H2 6283   1.718   5.184   2.991
 2107TIP3   OH2 6284   4.313   0.265   1.832
 2107TIP3    H1 6285   4.237   0.232   1.880
 2107TIP3    H2 6286   4.286   0.352   1.802
 2108TIP3   OH2 6287   6.693   2.469   2.641
 2108TIP3    H1 6288   6.729   2.478   2.553
 2108TIP3    H2 6289   6.670   2.377   2.649
 2109TIP3   OH2 6290   6.496   3.360   1.670
 2109TIP3    H1 6291   6.490   3.319   1.584
 2109TIP3    H2 6292   6.534   3.446   1.654
 2110TIP3   OH2 6293   2.488   6.482   4.416
 2110TIP3    H1 6294   2.445   6.400   4.392
 2110TIP3    H2 6295   2.451   6.505   4.501
 2111TIP3   OH2 6296   3.525   1.281   0.163
 2111TIP3    H1 6297   3.474   1.214   0.117
 2111TIP3    H2 6298   3.464   1.316   0.228
 2112TIP3   OH2 6299   0.331   6.302   4.398
 2112TIP3    H1 6300   0.238   6.321   4.407
 2112TIP3    H2 6301   0.358   6.273   4.485
 2113TIP3   OH2 6302   2.215   2.883   2.038
 2113TIP3    H1 6303   2.214   2.960   2.095
 2113TIP3    H2 6304   2.124   2.854   2.036
 2114TIP3   OH2 6305   0.510   6.027   2.330
 2114TIP3    H1 6306   0.441   6.091   2.314
 2114TIP3    H2 6307   0.467   5.956   2.378
 2115TIP3   OH2 6308   5.296   5.991   4.125
 2115TIP3    H1 6309   5.372   5.972   4.071
 2115TIP3    H2 6310   5.242   6.049   4.072
 2116TIP3   OH2 6311   2.212   5.140   2.377
 2116TIP3    H1 6312   2.173   5.186   2.303
 2116TIP3    H2 6313   2.266   5.071   2.337
 2117TIP3   OH2 6314   2.667   6.208   1.128
 2117TIP3    H1 6315   2.737   6.236   1.069
 2117TIP3    H2 6316   2.673   6.268   1.203
 2118TIP3   OH2 6317   0.965   5.570   3.400
 2118TIP3    H1 6318   0.960   5.621   3.481
 2118TIP3    H2 6319   0.877   5.536   3.387
 2119TIP3   OH2 6320   6.485   5.826   2.447
 2119TIP3    H1 6321   6.539   5.842   2.524
 2119TIP3    H2 6322   6.445   5.740   2.463
 2120TIP3   OH2 6323   2.241   4.436   5.079
 2120TIP3    H1 6324   2.322   4.408   5.122
 2120TIP3    H2 6325   2.228   4.373   5.009
 2121TIP3   OH2 6326   6.278   3.037   1.390
 2121TIP3    H1 6327   6.189   3.017   1.421
 2121TIP3    H2 6328   6.311   2.953   1.357
 2122TIP3   OH2 6329   4.466   4.653   2.125
 2122TIP3    H1 6330   4.504   4.741   2.119
 2122TIP3    H2 6331   4.465   4.621   2.035
 2123TIP3   OH2 6332   1.458   6.755   4.977
 2123TIP3    H1 6333   1.544   6.796   4.970
 2123TIP3    H2 6334   1.408   6.813   5.035
 2124TIP3   OH2 6335   0.458   3.631   5.341
 2124TIP3    H1 6336   0.421   3.609   5.426
 2124TIP3    H2 6337   0.444   3.553   5.287
 2125TIP3   OH2 6338   5.536   3.286   4.042
 2125TIP3    H1 6339   5.476   3.213   4.032
 2125TIP3    H2 6340   5.480   3.363   4.053
 2126TIP3   OH2 6341   6.538   6.382   2.741
 2126TIP3    H1 6342   6.549   6.333   2.823
 2126TIP3    H2 6343   6.456   6.350   2.704
 2127TIP3   OH2 6344   2.488   5.933   0.658
 2127TIP3    H1 6345   2.495   5.919   0.564
 2127TIP3    H2 6346   2.572   5.904   0.694
 2128TIP3   OH2 6347   5.151   0.065   2.365
 2128TIP3    H1 6348   5.201   0.017   2.431
 2128TIP3    H2 6349   5.196   0.149   2.356
 2129TIP3   OH2 6350   3.309   0.808   5.614
 2129TIP3    H1 6351   3.336   0.738   5.673
 2129TIP3    H2 6352   3.215   0.817   5.628
 2130TIP3   OH2 6353   0.528   2.382   3.598
 2130TIP3    H1 6354   0.443   2.351   3.568
 2130TIP3    H2 6355   0.563   2.312   3.653
 2131TIP3   OH2 6356   7.089   2.295   2.218
 2131TIP3    H1 6357   7.128   2.329   2.299
 2131TIP3    H2 6358   7.062   2.373   2.171
 2132TIP3   OH2 6359   2.093   1.948   1.126
 2132TIP3    H1 6360   2.175   1.901   1.140
 2132TIP3    H2 6361   2.115   2.015   1.062
 2133TIP3   OH2 6362   5.317   5.820   1.128
 2133TIP3    H1 6363   5.340   5.897   1.076
 2133TIP3    H2 6364   5.401   5.786   1.160
 2134TIP3   OH2 6365   6.416   0.399   5.502
 2134TIP3    H1 6366   6.453   0.422   5.417
 2134TIP3    H2 6367   6.432   0.475   5.557
 2135TIP3   OH2 6368   2.910   0.238   1.854
 2135TIP3    H1 6369   2.968   0.163   1.862
 2135TIP3    H2 6370   2.824   0.200   1.838
 2136TIP3   OH2 6371   1.337   6.655   2.417
 2136TIP3    H1 6372   1.406   6.716   2.391
 2136TIP3    H2 6373   1.342   6.652   2.512
 2137TIP3   OH2 6374   3.977   3.391   2.291
 2137TIP3    H1 6375   3.914   3.409   2.361
 2137TIP3    H2 6376   4.038   3.327   2.328
 2138TIP3   OH2 6377   2.689   6.130   2.806
 2138TIP3    H1 6378   2.696   6.097   2.717
 2138TIP3    H2 6379   2.610   6.183   2.806
 2139TIP3   OH2 6380   4.737   5.218   0.646
 2139TIP3    H1 6381   4.688   5.299   0.663
 2139TIP3    H2 6382   4.682   5.149   0.684
 2140TIP3   OH2 6383   5.289   5.053   1.320
 2140TIP3    H1 6384   5.220   4.991   1.343
 2140TIP3    H2 6385   5.254   5.138   1.345
 2141TIP3   OH2 6386   4.757   2.715   1.714
 2141TIP3    H1 6387   4.840   2.670   1.704
 2141TIP3    H2 6388   4.776   2.807   1.695
 2142TIP3   OH2 6389   2.691   5.905   2.233
 2142TIP3    H1 6390   2.783   5.885   2.216
 2142TIP3    H2 6391   2.690   5.999   2.254
 2143TIP3   OH2 6392   4.730   5.139   4.589
 2143TIP3    H1 6393   4.759   5.083   4.517
 2143TIP3    H2 6394   4.635   5.136   4.585
 2144TIP3   OH2 6395   6.373   3.638   2.987
 2144TIP3    H1 6396   6.302   3.698   2.963
 2144TIP3    H2 6397   6.378   3.643   3.082
 2145TIP3   OH2 6398   6.379   5.927   3.553
 2145TIP3    H1 6399   6.370   5.930   3.649
 2145TIP3    H2 6400   6.422   5.843   3.536
 2146TIP3   OH2 6401   2.913   1.383   0.228
 2146TIP3    H1 6402   2.868   1.351   0.306
 2146TIP3    H2 6403   2.854   1.363   0.156
 2147TIP3   OH2 6404   3.433   2.640   1.382
 2147TIP3    H1 6405   3.414   2.728   1.349
 2147TIP3    H2 6406   3.528   2.640   1.395
 2148TIP3   OH2 6407   4.951   6.385   4.650
 2148TIP3    H1 6408   4.878   6.366   4.591
 2148TIP3    H2 6409   5.028   6.390   4.593
 2149TIP3   OH2 6410   6.522   1.094   3.034
 2149TIP3    H1 6411   6.429   1.114   3.029
 2149TIP3    H2 6412   6.554   1.146   3.108
 2150TIP3   OH2 6413   6.205   4.200   4.657
 2150TIP3    H1 6414   6.282   4.152   4.625
 2150TIP3    H2 6415   6.239   4.287   4.679
 2151TIP3   OH2 6416   4.536   3.249   2.566
 2151TIP3    H1 6417   4.459   3.193   2.558
 2151TIP3    H2 6418   4.609   3.189   2.581
 2152TIP3   OH2 6419   3.050   0.225   0.761
 2152TIP3    H1 6420   2.970   0.219   0.709
 2152TIP3    H2 6421   3.065   0.135   0.792
 2153TIP3   OH2 6422   2.999   4.212   4.216
 2153TIP3    H1 6423   2.925   4.161   4.250
 2153TIP3    H2 6424   3.003   4.188   4.123
 2154TIP3   OH2 6425   4.981   4.172   4.229
 2154TIP3    H1 6426   4.915   4.187   4.162
 2154TIP3    H2 6427   5.045   4.114   4.187
 2155TIP3   OH2 6428   4.447   3.719   3.129
 2155TIP3    H1 6429   4.390   3.786   3.167
 2155TIP3    H2 6430   4.468   3.753   3.041
 2156TIP3   OH2 6431   0.861   6.222   5.453
 2156TIP3    H1 6432   0.898   6.262   5.531
 2156TIP3    H2 6433   0.814   6.145   5.487
 2157TIP3   OH2 6434   4.265   3.644   5.799
 2157TIP3    H1 6435   4.348   3.597   5.793
 2157TIP3    H2 6436   4.204   3.591   5.748
 2158TIP3   OH2 6437   1.183   1.034   2.625
 2158TIP3    H1 6438   1.255   1.006   2.680
 2158TIP3    H2 6439   1.123   0.959   2.622
 2159TIP3   OH2 6440   0.632   5.618   2.214
 2159TIP3    H1 6441   0.598   5.625   2.125
 2159TIP3    H2 6442   0.561   5.579   2.264
 2160TIP3   OH2 6443   6.816   3.057   4.164
 2160TIP3    H1 6444   6.878   3.115   4.119
 2160TIP3    H2 6445   6.835   2.970   4.130
 2161TIP3   OH2 6446   6.105   6.720   0.555
 2161TIP3    H1 6447   6.023   6.764   0.578
 2161TIP3    H2 6448   6.172   6.770   0.603
 2162TIP3   OH2 6449   2.794   1.909   5.878
 2162TIP3    H1 6450   2.708   1.869   5.892
 2162TIP3    H2 6451   2.798   1.980   5.941
 2163TIP3   OH2 6452   3.839   0.420   5.785
 2163TIP3    H1 6453   3.770   0.451   5.727
 2163TIP3    H2 6454   3.895   0.496   5.799
 2164TIP3   OH2 6455   0.526   5.647   1.266
 2164TIP3    H1 6456   0.550   5.555   1.272
 2164TIP3    H2 6457   0.431   5.647   1.259
 2165TIP3   OH2 6458   3.745   4.801   4.039
 2165TIP3    H1 6459   3.707   4.886   4.017
 2165TIP3    H2 6460   3.671   4.740   4.040
 2166TIP3   OH2 6461   2.837   3.133   3.079
 2166TIP3    H1 6462   2.888   3.106   3.156
 2166TIP3    H2 6463   2.745   3.128   3.108
 2167TIP3   OH2 6464   3.214   2.694   5.274
 2167TIP3    H1 6465   3.158   2.622   5.246
 2167TIP3    H2 6466   3.290   2.688   5.217
 2168TIP3   OH2 6467   5.111   1.687   0.839
 2168TIP3    H1 6468   5.165   1.618   0.801
 2168TIP3    H2 6469   5.032   1.688   0.784
 2169TIP3   OH2 6470   2.561   3.666   4.363
 2169TIP3    H1 6471   2.606   3.678   4.280
 2169TIP3    H2 6472   2.624   3.694   4.429
 2170TIP3   OH2 6473   1.599   3.298   1.674
 2170TIP3    H1 6474   1.596   3.227   1.610
 2170TIP3    H2 6475   1.550   3.369   1.633
 2171TIP3   OH2 6476   0.670   1.667   4.105
 2171TIP3    H1 6477   0.682   1.608   4.030
 2171TIP3    H2 6478   0.625   1.743   4.069
 2172TIP3   OH2 6479   2.868   0.960   3.011
 2172TIP3    H1 6480   2.847   0.878   3.057
 2172TIP3    H2 6481   2.956   0.946   2.977
 2173TIP3   OH2 6482   0.348   6.670   4.087
 2173TIP3    H1 6483   0.339   6.581   4.053
 2173TIP3    H2 6484   0.311   6.666   4.175
 2174TIP3   OH2 6485   2.386   4.259   1.528
 2174TIP3    H1 6486   2.444   4.286   1.599
 2174TIP3    H2 6487   2.323   4.200   1.570
 2175TIP3   OH2 6488   7.111   2.742   5.625
 2175TIP3    H1 6489   7.119   2.828   5.665
 2175TIP3    H2 6490   7.183   2.691   5.663
 2176TIP3   OH2 6491   7.139   1.633   0.941
 2176TIP3    H1 6492   7.175   1.641   1.029
 2176TIP3    H2 6493   7.056   1.682   0.944
 2177TIP3   OH2 6494   0.655   2.050   3.192
 2177TIP3    H1 6495   0.732   1.995   3.204
 2177TIP3    H2 6496   0.595   2.022   3.261
 2178TIP3   OH2 6497   2.003   6.788   3.124
 2178TIP3    H1 6498   1.985   6.694   3.113
 2178TIP3    H2 6499   2.095   6.797   3.100
 2179TIP3   OH2 6500   0.582   5.980   0.703
 2179TIP3    H1 6501   0.570   5.894   0.664
 2179TIP3    H2 6502   0.641   6.026   0.643
 2180TIP3   OH2 6503   2.936   1.251   4.175
 2180TIP3    H1 6504   2.843   1.261   4.156
 2180TIP3    H2 6505   2.974   1.336   4.153
 2181TIP3   OH2 6506   0.429   1.158   3.945
 2181TIP3    H1 6507   0.398   1.142   4.034
 2181TIP3    H2 6508   0.455   1.072   3.912
 2182TIP3   OH2 6509   4.328   1.501   4.655
 2182TIP3    H1 6510   4.333   1.405   4.651
 2182TIP3    H2 6511   4.245   1.522   4.612
 2183TIP3   OH2 6512   3.446   0.177   5.323
 2183TIP3    H1 6513   3.492   0.095   5.305
 2183TIP3    H2 6514   3.388   0.157   5.397
 2184TIP3   OH2 6515   3.382   1.195   2.008
 2184TIP3    H1 6516   3.338   1.279   1.996
 2184TIP3    H2 6517   3.414   1.198   2.098
 2185TIP3   OH2 6518   1.543   0.153   5.135
 2185TIP3    H1 6519   1.584   0.208   5.202
 2185TIP3    H2 6520   1.604   0.154   5.062
 2186TIP3   OH2 6521   5.729   5.576   3.961
 2186TIP3    H1 6522   5.805   5.632   3.977
 2186TIP3    H2 6523   5.659   5.616   4.013
 2187TIP3   OH2 6524   2.510   0.395   2.395
 2187TIP3    H1 6525   2.494   0.424   2.305
 2187TIP3    H2 6526   2.493   0.473   2.448
 2188TIP3   OH2 6527   7.036   2.442   1.799
 2188TIP3    H1 6528   6.983   2.384   1.854
 2188TIP3    H2 6529   7.124   2.436   1.837
 2189TIP3   OH2 6530   6.126   6.223   2.414
 2189TIP3    H1 6531   6.083   6.215   2.500
 2189TIP3    H2 6532   6.218   6.204   2.432
 2190TIP3   OH2 6533   5.998   4.974   2.915
 2190TIP3    H1 6534   5.943   4.901   2.946
 2190TIP3    H2 6535   5.956   5.001   2.833
 2191TIP3   OH2 6536   6.344   0.387   4.574
 2191TIP3    H1 6537   6.298   0.384   4.658
 2191TIP3    H2 6538   6.436   0.375   4.596
 2192TIP3   OH2 6539   6.721   1.663   1.999
 2192TIP3    H1 6540   6.811   1.679   2.025
 2192TIP3    H2 6541   6.672   1.738   2.032
 2193TIP3   OH2 6542   7.109   2.799   2.241
 2193TIP3    H1 6543   7.072   2.830   2.324
 2193TIP3    H2 6544   7.178   2.862   2.220
 2194TIP3   OH2 6545   7.155   2.884   0.054
 2194TIP3    H1 6546   7.061   2.876   0.074
 2194TIP3    H2 6547   7.197   2.818   0.108
 2195TIP3   OH2 6548   0.399   5.782   1.714
 2195TIP3    H1 6549   0.452   5.769   1.636
 2195TIP3    H2 6550   0.408   5.876   1.734
 2196TIP3   OH2 6551   2.506   3.573   3.423
 2196TIP3    H1 6552   2.518   3.607   3.335
 2196TIP3    H2 6553   2.592   3.583   3.464
 2197TIP3   OH2 6554   4.351   2.971   4.259
 2197TIP3    H1 6555   4.259   2.962   4.235
 2197TIP3    H2 6556   4.399   2.937   4.184
 2198TIP3   OH2 6557   4.606   3.818   1.424
 2198TIP3    H1 6558   4.652   3.791   1.503
 2198TIP3    H2 6559   4.546   3.887   1.454
 2199TIP3   OH2 6560   1.888   1.405   2.623
 2199TIP3    H1 6561   1.853   1.490   2.594
 2199TIP3    H2 6562   1.859   1.343   2.556
 2200TIP3   OH2 6563   7.046   2.342   5.319
 2200TIP3    H1 6564   7.044   2.417   5.379
 2200TIP3    H2 6565   6.975   2.286   5.348
 2201TIP3   OH2 6566   4.976   5.131   2.661
 2201TIP3    H1 6567   4.975   5.038   2.639
 2201TIP3    H2 6568   4.884   5.155   2.673
 2202TIP3   OH2 6569   4.486   0.804   4.611
 2202TIP3    H1 6570   4.566   0.855   4.598
 2202TIP3    H2 6571   4.492   0.733   4.548
 2203TIP3   OH2 6572   3.421   6.522   4.834
 2203TIP3    H1 6573   3.503   6.553   4.796
 2203TIP3    H2 6574   3.446   6.486   4.919
 2204TIP3   OH2 6575   3.694   2.535   3.821
 2204TIP3    H1 6576   3.640   2.613   3.838
 2204TIP3    H2 6577   3.651   2.493   3.747
 2205TIP3   OH2 6578   3.082   2.188   1.660
 2205TIP3    H1 6579   3.176   2.203   1.670
 2205TIP3    H2 6580   3.075   2.102   1.620
 2206TIP3   OH2 6581   4.429   2.132   2.290
 2206TIP3    H1 6582   4.404   2.075   2.218
 2206TIP3    H2 6583   4.484   2.199   2.249
 2207TIP3   OH2 6584   0.946   1.162   3.778
 2207TIP3    H1 6585   1.033   1.170   3.816
 2207TIP3    H2 6586   0.956   1.191   3.688
 2208TIP3   OH2 6587   5.372   5.420   1.595
 2208TIP3    H1 6588   5.409   5.493   1.546
 2208TIP3    H2 6589   5.320   5.460   1.664
 2209TIP3   OH2 6590   4.827   2.065   5.240
 2209TIP3    H1 6591   4.835   2.098   5.151
 2209TIP3    H2 6592   4.890   2.116   5.291
 2210TIP3   OH2 6593   4.370   2.197   0.067
 2210TIP3    H1 6594   4.352   2.257  -0.005
 2210TIP3    H2 6595   4.295   2.207   0.126
 2211TIP3   OH2 6596   4.832   4.447   3.746
 2211TIP3    H1 6597   4.781   4.490   3.677
 2211TIP3    H2 6598   4.919   4.486   3.740
 2212TIP3   OH2 6599   0.088   2.215   5.678
 2212TIP3    H1 6600   0.110   2.130   5.717
 2212TIP3    H2 6601   0.054   2.193   5.591
 2213TIP3   OH2 6602   7.122   2.518   3.714
 2213TIP3    H1 6603   7.203   2.478   3.684
 2213TIP3    H2 6604   7.054   2.480   3.659
 2214TIP3   OH2 6605   2.369   1.547   2.164
 2214TIP3    H1 6606   2.354   1.550   2.070
 2214TIP3    H2 6607   2.415   1.629   2.184
 2215TIP3   OH2 6608   0.594   3.045   4.241
 2215TIP3    H1 6609   0.654   3.075   4.173
 2215TIP3    H2 6610   0.510   3.034   4.196
 2216TIP3   OH2 6611   5.958   1.965   5.017
 2216TIP3    H1 6612   5.919   1.881   4.992
 2216TIP3    H2 6613   5.937   2.024   4.945
 2217TIP3   OH2 6614   6.056   1.609   4.599
 2217TIP3    H1 6615   6.053   1.643   4.509
 2217TIP3    H2 6616   6.126   1.659   4.641
 2218TIP3   OH2 6617   4.654   0.565   3.953
 2218TIP3    H1 6618   4.610   0.578   3.869
 2218TIP3    H2 6619   4.601   0.499   3.998
 2219TIP3   OH2 6620   2.188   2.378   4.174
 2219TIP3    H1 6621   2.127   2.419   4.236
 2219TIP3    H2 6622   2.248   2.449   4.149
 2220TIP3   OH2 6623   7.133   4.341   5.046
 2220TIP3    H1 6624   7.203   4.279   5.027
 2220TIP3    H2 6625   7.164   4.390   5.122
 2221TIP3   OH2 6626   4.125   4.729   2.878
 2221TIP3    H1 6627   4.171   4.659   2.831
 2221TIP3    H2 6628   4.194   4.791   2.901
 2222TIP3   OH2 6629   2.368   1.881   4.679
 2222TIP3    H1 6630   2.434   1.888   4.748
 2222TIP3    H2 6631   2.294   1.932   4.711
 2223TIP3   OH2 6632   5.219   3.864   3.333
 2223TIP3    H1 6633   5.282   3.886   3.264
 2223TIP3    H2 6634   5.246   3.917   3.408
 2224TIP3   OH2 6635   4.429   3.988   2.264
 2224TIP3    H1 6636   4.494   4.024   2.324
 2224TIP3    H2 6637   4.458   3.898   2.248
 2225TIP3   OH2 6638   0.902   5.208   4.215
 2225TIP3    H1 6639   0.988   5.245   4.233
 2225TIP3    H2 6640   0.916   5.114   4.214
 2226TIP3   OH2 6641   5.647   5.997   0.763
 2226TIP3    H1 6642   5.645   6.085   0.800
 2226TIP3    H2 6643   5.706   5.948   0.822
 2227TIP3   OH2 6644   4.655   6.576   5.286
 2227TIP3    H1 6645   4.727   6.539   5.234
 2227TIP3    H2 6646   4.681   6.667   5.301
 2228TIP3   OH2 6647   5.601   6.140   2.318
 2228TIP3    H1 6648   5.685   6.142   2.364
 2228TIP3    H2 6649   5.549   6.075   2.366
 2229TIP3   OH2 6650   3.219   6.721   1.345
 2229TIP3    H1 6651   3.226   6.649   1.407
 2229TIP3    H2 6652   3.308   6.733   1.312
 2230TIP3   OH2 6653   2.643   5.696   2.415
 2230TIP3    H1 6654   2.552   5.667   2.404
 2230TIP3    H2 6655   2.645   5.784   2.376
 2231TIP3   OH2 6656   3.160   4.269   2.444
 2231TIP3    H1 6657   3.240   4.281   2.495
 2231TIP3    H2 6658   3.144   4.175   2.445
 2232TIP3   OH2 6659   0.501   4.785   3.270
 2232TIP3    H1 6660   0.560   4.712   3.256
 2232TIP3    H2 6661   0.533   4.827   3.350
 2233TIP3   OH2 6662   0.851   3.146   0.177
 2233TIP3    H1 6663   0.765   3.188   0.175
 2233TIP3    H2 6664   0.891   3.180   0.258
 2234TIP3   OH2 6665   6.297   1.477   1.116
 2234TIP3    H1 6666   6.219   1.532   1.114
 2234TIP3    H2 6667   6.283   1.412   1.047
 2235TIP3   OH2 6668   3.050   3.239   4.137
 2235TIP3    H1 6669   3.111   3.222   4.065
 2235TIP3    H2 6670   3.100   3.217   4.216
 2236TIP3   OH2 6671   6.762   2.156   3.595
 2236TIP3    H1 6672   6.839   2.177   3.543
 2236TIP3    H2 6673   6.783   2.072   3.637
 2237TIP3   OH2 6674   1.254   2.664   3.741
 2237TIP3    H1 6675   1.316   2.735   3.723
 2237TIP3    H2 6676   1.214   2.645   3.656
 2238TIP3   OH2 6677   1.257   4.334   1.023
 2238TIP3    H1 6678   1.310   4.319   0.945
 2238TIP3    H2 6679   1.314   4.385   1.081
 2239TIP3   OH2 6680   7.141   1.611   5.377
 2239TIP3    H1 6681   7.090   1.618   5.457
 2239TIP3    H2 6682   7.196   1.690   5.377
 2240TIP3   OH2 6683   6.249   3.948   3.844
 2240TIP3    H1 6684   6.267   4.042   3.846
 2240TIP3    H2 6685   6.295   3.916   3.766
 2241TIP3   OH2 6686   6.544   2.117   5.328
 2241TIP3    H1 6687   6.494   2.044   5.365
 2241TIP3    H2 6688   6.481   2.162   5.272
 2242TIP3   OH2 6689   6.288   0.743   5.461
 2242TIP3    H1 6690   6.380   0.760   5.444
 2242TIP3    H2 6691   6.262   0.681   5.392
 2243TIP3   OH2 6692   6.012   4.880   3.875
 2243TIP3    H1 6693   6.016   4.904   3.783
 2243TIP3    H2 6694   5.954   4.945   3.915
 2244TIP3   OH2 6695   3.912   3.166   3.291
 2244TIP3    H1 6696   3.926   3.075   3.264
 2244TIP3    H2 6697   3.999   3.205   3.288
 2245TIP3   OH2 6698   3.230   4.475   1.151
 2245TIP3    H1 6699   3.279   4.529   1.090
 2245TIP3    H2 6700   3.160   4.436   1.098
 2246TIP3   OH2 6701   1.982   6.167   1.983
 2246TIP3    H1 6702   2.016   6.104   1.919
 2246TIP3    H2 6703   1.991   6.123   2.067
 2247TIP3   OH2 6704   3.501   3.067   2.839
 2247TIP3    H1 6705   3.469   3.146   2.882
 2247TIP3    H2 6706   3.585   3.049   2.882
 2248TIP3   OH2 6707   2.504   0.452   0.187
 2248TIP3    H1 6708   2.517   0.379   0.247
 2248TIP3    H2 6709   2.553   0.427   0.108
 2249TIP3   OH2 6710   5.744   0.996   5.570
 2249TIP3    H1 6711   5.771   0.912   5.533
 2249TIP3    H2 6712   5.669   0.974   5.625
 2250TIP3   OH2 6713   3.375   1.650   2.669
 2250TIP3    H1 6714   3.375   1.738   2.707
 2250TIP3    H2 6715   3.340   1.662   2.581
 2251TIP3   OH2 6716   3.099   0.080   3.530
 2251TIP3    H1 6717   3.138   0.167   3.538
 2251TIP3    H2 6718   3.016   0.095   3.485
 2252TIP3   OH2 6719   5.586   1.636   5.331
 2252TIP3    H1 6720   5.507   1.602   5.374
 2252TIP3    H2 6721   5.658   1.591   5.374
 2253TIP3   OH2 6722   4.615   1.323   2.145
 2253TIP3    H1 6723   4.534   1.276   2.169
 2253TIP3    H2 6724   4.646   1.278   2.067
 2254TIP3   OH2 6725   0.913   1.696   2.968
 2254TIP3    H1 6726   0.936   1.617   3.017
 2254TIP3    H2 6727   0.930   1.673   2.876
 2255TIP3   OH2 6728   6.930   1.552   3.145
 2255TIP3    H1 6729   6.963   1.612   3.078
 2255TIP3    H2 6730   6.853   1.511   3.105
 2256TIP3   OH2 6731   2.740   4.394   3.563
 2256TIP3    H1 6732   2.761   4.454   3.634
 2256TIP3    H2 6733   2.800   4.418   3.492
 2257TIP3   OH2 6734   1.741   4.158   0.252
 2257TIP3    H1 6735   1.691   4.207   0.187
 2257TIP3    H2 6736   1.689   4.166   0.333
 2258TIP3   OH2 6737   0.280   3.926   1.736
 2258TIP3    H1 6738   0.188   3.949   1.725
 2258TIP3    H2 6739   0.306   3.890   1.651
 2259TIP3   OH2 6740   3.453   4.012   2.559
 2259TIP3    H1 6741   3.417   4.081   2.614
 2259TIP3    H2 6742   3.380   3.952   2.544
 2260TIP3   OH2 6743   4.610   0.922   5.040
 2260TIP3    H1 6744   4.656   0.941   4.958
 2260TIP3    H2 6745   4.655   0.976   5.105
 2261TIP3   OH2 6746   1.027   4.331   1.827
 2261TIP3    H1 6747   1.008   4.395   1.895
 2261TIP3    H2 6748   1.122   4.337   1.815
 2262TIP3   OH2 6749   6.737   4.179   5.293
 2262TIP3    H1 6750   6.821   4.204   5.331
 2262TIP3    H2 6751   6.757   4.107   5.234
 2263TIP3   OH2 6752   1.529   3.553   2.646
 2263TIP3    H1 6753   1.504   3.460   2.641
 2263TIP3    H2 6754   1.608   3.553   2.700
 2264TIP3   OH2 6755   6.487   0.611   5.659
 2264TIP3    H1 6756   6.524   0.654   5.582
 2264TIP3    H2 6757   6.495   0.675   5.729
 2265TIP3   OH2 6758   5.202   2.583   3.874
 2265TIP3    H1 6759   5.121   2.626   3.843
 2265TIP3    H2 6760   5.202   2.598   3.969
 2266TIP3   OH2 6761   2.638   3.876   2.361
 2266TIP3    H1 6762   2.708   3.935   2.333
 2266TIP3    H2 6763   2.684   3.798   2.391
 2267TIP3   OH2 6764   6.536   2.969   2.490
 2267TIP3    H1 6765   6.469   2.910   2.454
 2267TIP3    H2 6766   6.614   2.952   2.438
 2268TIP3   OH2 6767   2.050   6.476   1.801
 2268TIP3    H1 6768   1.965   6.457   1.761
 2268TIP3    H2 6769   2.035   6.552   1.857
 2269TIP3   OH2 6770   2.016   0.495   4.785
 2269TIP3    H1 6771   2.012   0.589   4.805
 2269TIP3    H2 6772   2.086   0.488   4.720
 2270TIP3   OH2 6773   1.413   3.961   5.109
 2270TIP3    H1 6774   1.452   3.995   5.189
 2270TIP3    H2 6775   1.488   3.943   5.052
 2271TIP3   OH2 6776   4.282   5.647   4.719
 2271TIP3    H1 6777   4.248   5.726   4.761
 2271TIP3    H2 6778   4.323   5.678   4.639
 2272TIP3   OH2 6779   4.946   6.818   5.819
 2272TIP3    H1 6780   4.967   6.778   5.735
 2272TIP3    H2 6781   4.971   6.753   5.884
 2273TIP3   OH2 6782   5.710   5.622   0.709
 2273TIP3    H1 6783   5.678   5.594   0.794
 2273TIP3    H2 6784   5.655   5.574   0.646
 2274TIP3   OH2 6785   0.745   1.912   2.112
 2274TIP3    H1 6786   0.657   1.886   2.084
 2274TIP3    H2 6787   0.804   1.858   2.059
 2275TIP3   OH2 6788   3.618   5.037   5.554
 2275TIP3    H1 6789   3.572   4.954   5.564
 2275TIP3    H2 6790   3.698   5.027   5.607
 2276TIP3   OH2 6791   4.057   6.128   2.282
 2276TIP3    H1 6792   4.038   6.106   2.373
 2276TIP3    H2 6793   4.126   6.194   2.287
 2277TIP3   OH2 6794   2.038   1.405   0.509
 2277TIP3    H1 6795   2.013   1.390   0.418
 2277TIP3    H2 6796   1.970   1.464   0.542
 2278TIP3   OH2 6797   7.149   2.885   3.350
 2278TIP3    H1 6798   7.157   2.845   3.436
 2278TIP3    H2 6799   7.077   2.949   3.359
 2279TIP3   OH2 6800   0.743   6.171   2.808
 2279TIP3    H1 6801   0.716   6.254   2.846
 2279TIP3    H2 6802   0.836   6.181   2.791
 2280TIP3   OH2 6803   3.038   6.484   0.836
 2280TIP3    H1 6804   3.128   6.517   0.839
 2280TIP3    H2 6805   2.984   6.562   0.825
 2281TIP3   OH2 6806   2.471   1.942   1.587
 2281TIP3    H1 6807   2.537   1.996   1.544
 2281TIP3    H2 6808   2.490   1.951   1.680
 2282TIP3   OH2 6809   6.326   6.136   4.542
 2282TIP3    H1 6810   6.402   6.084   4.569
 2282TIP3    H2 6811   6.251   6.085   4.570
 2283TIP3   OH2 6812   3.307   1.694   0.694
 2283TIP3    H1 6813   3.300   1.723   0.603
 2283TIP3    H2 6814   3.258   1.760   0.744
 2284TIP3   OH2 6815   4.848   0.424   0.109
 2284TIP3    H1 6816   4.791   0.400   0.036
 2284TIP3    H2 6817   4.790   0.426   0.185
 2285TIP3   OH2 6818   5.429   0.214  -0.068
 2285TIP3    H1 6819   5.455   0.271   0.004
 2285TIP3    H2 6820   5.437   0.125  -0.033
 2286TIP3   OH2 6821   6.259   4.712   1.928
 2286TIP3    H1 6822   6.203   4.788   1.913
 2286TIP3    H2 6823   6.328   4.720   1.863
 2287TIP3   OH2 6824   4.381   6.276   1.402
 2287TIP3    H1 6825   4.301   6.274   1.349
 2287TIP3    H2 6826   4.420   6.362   1.384
 2288TIP3   OH2 6827   2.091   6.738   4.347
 2288TIP3    H1 6828   2.152   6.774   4.411
 2288TIP3    H2 6829   2.081   6.806   4.281
 2289TIP3   OH2 6830   0.269   5.290   1.114
 2289TIP3    H1 6831   0.265   5.216   1.175
 2289TIP3    H2 6832   0.198   5.348   1.142
 2290TIP3   OH2 6833   1.065   0.079   0.575
 2290TIP3    H1 6834   1.134   0.145   0.579
 2290TIP3    H2 6835   0.984   0.128   0.588
 2291TIP3   OH2 6836   2.227   2.679   2.274
 2291TIP3    H1 6837   2.164   2.613   2.245
 2291TIP3    H2 6838   2.185   2.721   2.349
 2292TIP3   OH2 6839   3.855   1.619   2.974
 2292TIP3    H1 6840   3.886   1.704   2.942
 2292TIP3    H2 6841   3.826   1.636   3.063
 2293TIP3   OH2 6842   1.193   3.969   2.252
 2293TIP3    H1 6843   1.278   3.952   2.294
 2293TIP3    H2 6844   1.136   3.900   2.285
 2294TIP3   OH2 6845   0.104   5.663   5.534
 2294TIP3    H1 6846   0.135   5.684   5.622
 2294TIP3    H2 6847   0.011   5.644   5.545
 2295TIP3   OH2 6848   1.087   0.859   0.653
 2295TIP3    H1 6849   1.139   0.779   0.658
 2295TIP3    H2 6850   1.096   0.889   0.563
 2296TIP3   OH2 6851   6.018   4.682   2.231
 2296TIP3    H1 6852   6.062   4.603   2.202
 2296TIP3    H2 6853   5.982   4.721   2.151
 2297TIP3   OH2 6854   1.489   0.815   1.249
 2297TIP3    H1 6855   1.536   0.869   1.184
 2297TIP3    H2 6856   1.548   0.743   1.267
 2298TIP3   OH2 6857   3.780   6.632   3.226
 2298TIP3    H1 6858   3.795   6.726   3.221
 2298TIP3    H2 6859   3.843   6.594   3.165
 2299TIP3   OH2 6860   6.951   4.692   2.909
 2299TIP3    H1 6861   6.953   4.728   2.998
 2299TIP3    H2 6862   7.035   4.718   2.871
 2300TIP3   OH2 6863   1.104   1.012   4.663
 2300TIP3    H1 6864   1.062   0.955   4.599
 2300TIP3    H2 6865   1.105   1.098   4.620
 2301TIP3   OH2 6866   0.692   3.158   3.734
 2301TIP3    H1 6867   0.641   3.239   3.737
 2301TIP3    H2 6868   0.651   3.107   3.664
 2302TIP3   OH2 6869   2.856   0.227   3.704
 2302TIP3    H1 6870   2.798   0.216   3.629
 2302TIP3    H2 6871   2.812   0.181   3.775
 2303TIP3   OH2 6872   5.750   3.426   1.087
 2303TIP3    H1 6873   5.668   3.410   1.134
 2303TIP3    H2 6874   5.800   3.345   1.099
 2304TIP3   OH2 6875   0.732   6.164   0.556
 2304TIP3    H1 6876   0.678   6.153   0.478
 2304TIP3    H2 6877   0.779   6.246   0.540
 2305TIP3   OH2 6878   4.261   5.426   4.087
 2305TIP3    H1 6879   4.213   5.433   4.169
 2305TIP3    H2 6880   4.284   5.333   4.080
 2306TIP3   OH2 6881   6.479   3.051   1.755
 2306TIP3    H1 6882   6.422   3.046   1.832
 2306TIP3    H2 6883   6.420   3.044   1.680
 2307TIP3   OH2 6884   5.916   2.486   0.067
 2307TIP3    H1 6885   5.963   2.477  -0.016
 2307TIP3    H2 6886   5.948   2.569   0.103
 2308TIP3   OH2 6887   4.747   0.575   5.314
 2308TIP3    H1 6888   4.679   0.618   5.262
 2308TIP3    H2 6889   4.701   0.538   5.389
 2309TIP3   OH2 6890   4.150   5.244   2.357
 2309TIP3    H1 6891   4.186   5.331   2.374
 2309TIP3    H2 6892   4.185   5.219   2.271
 2310TIP3   OH2 6893   1.313   3.741   1.669
 2310TIP3    H1 6894   1.357   3.809   1.618
 2310TIP3    H2 6895   1.220   3.760   1.658
 2311TIP3   OH2 6896   2.713   0.840   1.182
 2311TIP3    H1 6897   2.725   0.753   1.143
 2311TIP3    H2 6898   2.621   0.841   1.210
 2312TIP3   OH2 6899   6.446   5.934   1.799
 2312TIP3    H1 6900   6.484   5.959   1.714
 2312TIP3    H2 6901   6.465   5.841   1.807
 2313TIP3   OH2 6902   1.305   1.052   1.780
 2313TIP3    H1 6903   1.280   0.976   1.728
 2313TIP3    H2 6904   1.229   1.070   1.835
 2314TIP3   OH2 6905   6.465   1.056   4.331
 2314TIP3    H1 6906   6.558   1.040   4.342
 2314TIP3    H2 6907   6.434   1.083   4.418
 2315TIP3   OH2 6908   6.516   1.576   2.418
 2315TIP3    H1 6909   6.504   1.581   2.513
 2315TIP3    H2 6910   6.606   1.603   2.403
 2316TIP3   OH2 6911   1.494   3.557   1.005
 2316TIP3    H1 6912   1.429   3.590   0.942
 2316TIP3    H2 6913   1.523   3.474   0.969
 2317TIP3   OH2 6914   5.837   4.266   5.567
 2317TIP3    H1 6915   5.926   4.293   5.590
 2317TIP3    H2 6916   5.822   4.187   5.619
 2318TIP3   OH2 6917   4.251   3.686   3.635
 2318TIP3    H1 6918   4.161   3.714   3.649
 2318TIP3    H2 6919   4.266   3.698   3.542
 2319TIP3   OH2 6920   2.738   1.302   1.395
 2319TIP3    H1 6921   2.742   1.227   1.336
 2319TIP3    H2 6922   2.652   1.295   1.437
 2320TIP3   OH2 6923   2.233   6.232   3.554
 2320TIP3    H1 6924   2.184   6.233   3.472
 2320TIP3    H2 6925   2.262   6.322   3.566
 2321TIP3   OH2 6926   2.924   4.002   1.160
 2321TIP3    H1 6927   2.931   4.007   1.255
 2321TIP3    H2 6928   2.880   4.083   1.134
 2322TIP3   OH2 6929   2.436   4.731   3.746
 2322TIP3    H1 6930   2.477   4.817   3.743
 2322TIP3    H2 6931   2.493   4.679   3.803
 2323TIP3   OH2 6932   1.641   2.039   1.417
 2323TIP3    H1 6933   1.690   2.084   1.486
 2323TIP3    H2 6934   1.700   2.040   1.341
 2324TIP3   OH2 6935   3.503   4.660   0.114
 2324TIP3    H1 6936   3.510   4.645   0.208
 2324TIP3    H2 6937   3.593   4.681   0.087
 2325TIP3   OH2 6938   4.939   2.840   2.504
 2325TIP3    H1 6939   5.023   2.843   2.458
 2325TIP3    H2 6940   4.879   2.799   2.442
 2326TIP3   OH2 6941   1.206   2.989   4.249
 2326TIP3    H1 6942   1.192   2.928   4.176
 2326TIP3    H2 6943   1.130   3.047   4.247
 2327TIP3   OH2 6944   1.871   5.009   5.408
 2327TIP3    H1 6945   1.906   5.090   5.372
 2327TIP3    H2 6946   1.823   4.968   5.336
 2328TIP3   OH2 6947   5.207   6.368   0.064
 2328TIP3    H1 6948   5.260   6.414   0.000
 2328TIP3    H2 6949   5.118   6.399   0.049
 2329TIP3   OH2 6950   0.468   1.293   5.333
 2329TIP3    H1 6951   0.420   1.241   5.270
 2329TIP3    H2 6952   0.500   1.368   5.283
 2330TIP3   OH2 6953   6.714   5.029   3.133
 2330TIP3    H1 6954   6.734   5.096   3.068
 2330TIP3    H2 6955   6.691   5.078   3.212
 2331TIP3   OH2 6956   6.668   1.109   4.749
 2331TIP3    H1 6957   6.763   1.102   4.748
 2331TIP3    H2 6958   6.649   1.179   4.686
 2332TIP3   OH2 6959   1.705   4.777   2.931
 2332TIP3    H1 6960   1.703   4.719   3.007
 2332TIP3    H2 6961   1.790   4.762   2.891
 2333TIP3   OH2 6962   2.053   6.257   2.705
 2333TIP3    H1 6963   2.100   6.174   2.712
 2333TIP3    H2 6964   1.961   6.235   2.719
 2334TIP3   OH2 6965   4.406   5.574   1.385
 2334TIP3    H1 6966   4.405   5.661   1.424
 2334TIP3    H2 6967   4.427   5.515   1.458
 2335TIP3   OH2 6968   0.090   5.361   5.544
 2335TIP3    H1 6969   0.046   5.409   5.473
 2335TIP3    H2 6970   0.019   5.325   5.596
 2336TIP3   OH2 6971   0.614   1.291   3.080
 2336TIP3    H1 6972   0.659   1.247   3.153
 2336TIP3    H2 6973   0.681   1.344   3.039
 2337TIP3   OH2 6974   0.809   6.633   1.793
 2337TIP3    H1 6975   0.727   6.670   1.826
 2337TIP3    H2 6976   0.876   6.669   1.851
 2338TIP3   OH2 6977   3.666   2.037   1.403
 2338TIP3    H1 6978   3.619   1.993   1.333
 2338TIP3    H2 6979   3.752   2.056   1.366
 2339TIP3   OH2 6980   2.361   5.911   4.521
 2339TIP3    H1 6981   2.399   5.994   4.548
 2339TIP3    H2 6982   2.433   5.848   4.529
 2340TIP3   OH2 6983   2.846   4.621   2.298
 2340TIP3    H1 6984   2.821   4.696   2.244
 2340TIP3    H2 6985   2.786   4.623   2.372
 2341TIP3   OH2 6986  -0.034   6.203   4.094
 2341TIP3    H1 6987   0.058   6.190   4.069
 2341TIP3    H2 6988  -0.072   6.252   4.021
 2342TIP3   OH2 6989   3.853   3.699   2.555
 2342TIP3    H1 6990   3.924   3.655   2.602
 2342TIP3    H2 6991   3.801   3.628   2.518
 2343TIP3   OH2 6992   5.123   4.914   2.422
 2343TIP3    H1 6993   5.205   4.881   2.386
 2343TIP3    H2 6994   5.092   4.977   2.357
 2344TIP3   OH2 6995   0.864   2.250   1.566
 2344TIP3    H1 6996   0.863   2.179   1.630
 2344TIP3    H2 6997   0.896   2.325   1.615
 2345TIP3   OH2 6998   6.276   4.987   5.086
 2345TIP3    H1 6999   6.263   5.077   5.057
 2345TIP3    H2 7000   6.320   4.996   5.171
 2346TIP3   OH2 7001   0.947   2.560   4.757
 2346TIP3    H1 7002   0.967   2.651   4.780
 2346TIP3    H2 7003   0.941   2.559   4.662
 2347TIP3   OH2 7004   1.001   1.671   3.492
 2347TIP3    H1 7005   1.096   1.680   3.488
 2347TIP3    H2 7006   0.973   1.742   3.550
 2348TIP3   OH2 7007   6.085   5.412   3.522
 2348TIP3    H1 7008   6.153   5.388   3.584
 2348TIP3    H2 7009   6.050   5.329   3.490
 2349TIP3   OH2 7010   6.549   2.267   0.435
 2349TIP3    H1 7011   6.530   2.208   0.361
 2349TIP3    H2 7012   6.606   2.335   0.397
 2350TIP3   OH2 7013   4.503   2.506   5.854
 2350TIP3    H1 7014   4.474   2.570   5.789
 2350TIP3    H2 7015   4.424   2.459   5.878
 2351TIP3   OH2 7016   3.580   1.856   4.276
 2351TIP3    H1 7017   3.512   1.789   4.276
 2351TIP3    H2 7018   3.636   1.833   4.202
 2352TIP3   OH2 7019   1.476   6.668   3.755
 2352TIP3    H1 7020   1.476   6.573   3.767
 2352TIP3    H2 7021   1.475   6.704   3.843
 2353TIP3   OH2 7022   2.485   4.942   3.172
 2353TIP3    H1 7023   2.491   5.037   3.177
 2353TIP3    H2 7024   2.392   4.923   3.167
 2354TIP3   OH2 7025   5.614   4.724   2.247
 2354TIP3    H1 7026   5.648   4.724   2.157
 2354TIP3    H2 7027   5.686   4.689   2.299
 2355TIP3   OH2 7028   2.261   1.855   3.681
 2355TIP3    H1 7029   2.278   1.820   3.593
 2355TIP3    H2 7030   2.260   1.950   3.669
 2356TIP3   OH2 7031   5.070   0.465   4.224
 2356TIP3    H1 7032   5.138   0.425   4.169
 2356TIP3    H2 7033   5.069   0.557   4.198
 2357TIP3   OH2 7034   3.863   2.260   1.760
 2357TIP3    H1 7035   3.771   2.266   1.735
 2357TIP3    H2 7036   3.865   2.287   1.852
 2358TIP3   OH2 7037   3.935   5.570   0.402
 2358TIP3    H1 7038   3.868   5.605   0.343
 2358TIP3    H2 7039   3.946   5.638   0.469
 2359TIP3   OH2 7040   3.204   0.941   3.133
 2359TIP3    H1 7041   3.156   0.972   3.056
 2359TIP3    H2 7042   3.204   0.845   3.124
 2360TIP3   OH2 7043   6.878   3.784   0.208
 2360TIP3    H1 7044   6.794   3.816   0.242
 2360TIP3    H2 7045   6.932   3.862   0.197
 2361TIP3   OH2 7046   2.331   1.202   2.666
 2361TIP3    H1 7047   2.266   1.271   2.650
 2361TIP3    H2 7048   2.319   1.179   2.758
 2362TIP3   OH2 7049   2.574   3.500   0.438
 2362TIP3    H1 7050   2.486   3.515   0.473
 2362TIP3    H2 7051   2.567   3.418   0.389
 2363TIP3   OH2 7052   6.500   3.187   3.324
 2363TIP3    H1 7053   6.574   3.173   3.265
 2363TIP3    H2 7054   6.483   3.100   3.362
 2364TIP3   OH2 7055   0.552   5.082   5.090
 2364TIP3    H1 7056   0.459   5.083   5.109
 2364TIP3    H2 7057   0.591   5.143   5.153
 2365TIP3   OH2 7058   4.596   2.266   2.125
 2365TIP3    H1 7059   4.678   2.224   2.150
 2365TIP3    H2 7060   4.620   2.357   2.108
 2366TIP3   OH2 7061   5.829   2.582   3.276
 2366TIP3    H1 7062   5.772   2.656   3.293
 2366TIP3    H2 7063   5.917   2.618   3.280
 2367TIP3   OH2 7064   4.694   6.478   0.463
 2367TIP3    H1 7065   4.679   6.439   0.376
 2367TIP3    H2 7066   4.787   6.497   0.464
 2368TIP3   OH2 7067   1.359   4.956   1.456
 2368TIP3    H1 7068   1.371   4.886   1.521
 2368TIP3    H2 7069   1.347   5.035   1.509
 2369TIP3   OH2 7070   6.839   4.616   3.809
 2369TIP3    H1 7071   6.806   4.686   3.753
 2369TIP3    H2 7072   6.776   4.545   3.799
 2370TIP3   OH2 7073   1.427   6.181   5.292
 2370TIP3    H1 7074   1.361   6.219   5.235
 2370TIP3    H2 7075   1.509   6.221   5.265
 2371TIP3   OH2 7076   3.094   4.858   1.562
 2371TIP3    H1 7077   3.000   4.840   1.550
 2371TIP3    H2 7078   3.102   4.952   1.546
 2372TIP3   OH2 7079   0.885   4.828   1.501
 2372TIP3    H1 7080   0.937   4.762   1.455
 2372TIP3    H2 7081   0.939   4.856   1.575
 2373TIP3   OH2 7082   5.729   5.757   4.632
 2373TIP3    H1 7083   5.760   5.671   4.658
 2373TIP3    H2 7084   5.640   5.742   4.599
 2374TIP3   OH2 7085   0.792   3.846   0.028
 2374TIP3    H1 7086   0.733   3.790  -0.022
 2374TIP3    H2 7087   0.814   3.794   0.106
 2375TIP3   OH2 7088   2.045   4.293   0.448
 2375TIP3    H1 7089   1.971   4.346   0.419
 2375TIP3    H2 7090   2.007   4.210   0.474
 2376TIP3   OH2 7091   3.520   4.592   3.757
 2376TIP3    H1 7092   3.458   4.652   3.714
 2376TIP3    H2 7093   3.498   4.506   3.722
 2377TIP3   OH2 7094   6.213   1.238   2.042
 2377TIP3    H1 7095   6.155   1.314   2.037
 2377TIP3    H2 7096   6.269   1.245   1.965
 2378TIP3   OH2 7097   6.275   6.302   2.711
 2378TIP3    H1 7098   6.211   6.251   2.761
 2378TIP3    H2 7099   6.247   6.393   2.722
 2379TIP3   OH2 7100   1.635   5.025   0.664
 2379TIP3    H1 7101   1.648   5.120   0.659
 2379TIP3    H2 7102   1.694   4.996   0.734
 2380TIP3   OH2 7103   6.579   4.563   5.308
 2380TIP3    H1 7104   6.636   4.640   5.311
 2380TIP3    H2 7105   6.634   4.493   5.274
 2381TIP3   OH2 7106   3.009   0.608   2.958
 2381TIP3    H1 7107   2.945   0.659   3.008
 2381TIP3    H2 7108   3.024   0.659   2.879
 2382TIP3   OH2 7109   2.880   0.123   5.403
 2382TIP3    H1 7110   2.951   0.079   5.356
 2382TIP3    H2 7111   2.911   0.213   5.415
 2383TIP3   OH2 7112   6.653   1.604   2.806
 2383TIP3    H1 7113   6.694   1.689   2.790
 2383TIP3    H2 7114   6.725   1.541   2.796
 2384TIP3   OH2 7115   0.318   1.236   3.269
 2384TIP3    H1 7116   0.268   1.291   3.330
 2384TIP3    H2 7117   0.340   1.293   3.196
 2385TIP3   OH2 7118   4.564   0.456   0.710
 2385TIP3    H1 7119   4.620   0.386   0.677
 2385TIP3    H2 7120   4.593   0.534   0.662
 2386TIP3   OH2 7121   1.826   5.512   2.078
 2386TIP3    H1 7122   1.832   5.420   2.052
 2386TIP3    H2 7123   1.766   5.551   2.014
 2387TIP3   OH2 7124   4.911   1.316   5.916
 2387TIP3    H1 7125   4.954   1.233   5.894
 2387TIP3    H2 7126   4.862   1.340   5.837
 2388TIP3   OH2 7127   3.009   1.839   0.287
 2388TIP3    H1 7128   3.014   1.750   0.321
 2388TIP3    H2 7129   3.039   1.831   0.196
 2389TIP3   OH2 7130   1.053   2.290   3.627
 2389TIP3    H1 7131   1.011   2.260   3.708
 2389TIP3    H2 7132   1.139   2.248   3.628
 2390TIP3   OH2 7133   5.854   4.247   2.416
 2390TIP3    H1 7134   5.892   4.289   2.339
 2390TIP3    H2 7135   5.881   4.303   2.490
 2391TIP3   OH2 7136   6.206   2.581   0.930
 2391TIP3    H1 7137   6.266   2.650   0.902
 2391TIP3    H2 7138   6.222   2.509   0.869
 2392TIP3   OH2 7139   6.419   4.246   5.620
 2392TIP3    H1 7140   6.345   4.240   5.680
 2392TIP3    H2 7141   6.477   4.174   5.647
 2393TIP3   OH2 7142   2.441   3.275   3.594
 2393TIP3    H1 7143   2.524   3.300   3.554
 2393TIP3    H2 7144   2.376   3.329   3.549
 2394TIP3   OH2 7145   6.695   1.724   4.350
 2394TIP3    H1 7146   6.694   1.798   4.410
 2394TIP3    H2 7147   6.786   1.718   4.321
 2395TIP3   OH2 7148   5.589   4.149   0.152
 2395TIP3    H1 7149   5.680   4.121   0.140
 2395TIP3    H2 7150   5.550   4.080   0.206
 2396TIP3   OH2 7151   2.045   0.827   2.835
 2396TIP3    H1 7152   2.030   0.744   2.790
 2396TIP3    H2 7153   2.005   0.893   2.779
 2397TIP3   OH2 7154   3.277   2.227   5.337
 2397TIP3    H1 7155   3.239   2.140   5.342
 2397TIP3    H2 7156   3.258   2.267   5.422
 2398TIP3   OH2 7157   5.717   6.607   0.523
 2398TIP3    H1 7158   5.752   6.687   0.485
 2398TIP3    H2 7159   5.747   6.537   0.465
 2399TIP3   OH2 7160   7.247   5.206   1.677
 2399TIP3    H1 7161   7.153   5.189   1.687
 2399TIP3    H2 7162   7.256   5.300   1.693
 2400TIP3   OH2 7163   0.448   3.925   2.324
 2400TIP3    H1 7164   0.439   3.900   2.416
 2400TIP3    H2 7165   0.434   4.020   2.323
 2401TIP3   OH2 7166  -0.004   5.118   5.784
 2401TIP3    H1 7167   0.085   5.094   5.759
 2401TIP3    H2 7168  -0.031   5.050   5.847
 2402TIP3   OH2 7169   3.119   4.380   1.560
 2402TIP3    H1 7170   3.205   4.413   1.532
 2402TIP3    H2 7171   3.057   4.422   1.501
 2403TIP3   OH2 7172   3.511   5.044   4.228
 2403TIP3    H1 7173   3.417   5.061   4.221
 2403TIP3    H2 7174   3.537   5.018   4.140
 2404TIP3   OH2 7175   2.767   1.936   1.832
 2404TIP3    H1 7176   2.799   1.861   1.882
 2404TIP3    H2 7177   2.812   2.011   1.870
 2405TIP3   OH2 7178   6.659   5.197   5.323
 2405TIP3    H1 7179   6.602   5.149   5.383
 2405TIP3    H2 7180   6.637   5.289   5.338
 2406TIP3   OH2 7181   5.138   0.733   4.543
 2406TIP3    H1 7182   5.157   0.688   4.461
 2406TIP3    H2 7183   5.071   0.797   4.521
 2407TIP3   OH2 7184   4.066   1.439   3.331
 2407TIP3    H1 7185   4.115   1.479   3.259
 2407TIP3    H2 7186   3.974   1.445   3.304
 2408TIP3   OH2 7187   0.167   0.569   0.379
 2408TIP3    H1 7188   0.081   0.601   0.353
 2408TIP3    H2 7189   0.217   0.567   0.297
 2409TIP3   OH2 7190   4.891   1.228   4.969
 2409TIP3    H1 7191   4.826   1.183   4.916
 2409TIP3    H2 7192   4.854   1.229   5.057
 2410TIP3   OH2 7193   2.372   2.816   0.392
 2410TIP3    H1 7194   2.405   2.903   0.414
 2410TIP3    H2 7195   2.450   2.762   0.382
 2411TIP3   OH2 7196   0.182   1.233   0.090
 2411TIP3    H1 7197   0.261   1.180   0.077
 2411TIP3    H2 7198   0.119   1.198   0.026
 2412TIP3   OH2 7199   1.129   5.265   4.881
 2412TIP3    H1 7200   1.163   5.338   4.933
 2412TIP3    H2 7201   1.207   5.224   4.844
 2413TIP3   OH2 7202   6.205   4.860   3.041
 2413TIP3    H1 7203   6.134   4.917   3.011
 2413TIP3    H2 7204   6.228   4.895   3.128
 2414TIP3   OH2 7205   2.457   2.849   4.825
 2414TIP3    H1 7206   2.403   2.790   4.772
 2414TIP3    H2 7207   2.530   2.873   4.767
 2415TIP3   OH2 7208   5.765   1.973   2.114
 2415TIP3    H1 7209   5.798   1.984   2.025
 2415TIP3    H2 7210   5.782   1.882   2.136
 2416TIP3   OH2 7211   1.613   5.132   2.470
 2416TIP3    H1 7212   1.586   5.216   2.433
 2416TIP3    H2 7213   1.555   5.067   2.430
 2417TIP3   OH2 7214   1.094   5.485   4.387
 2417TIP3    H1 7215   1.133   5.468   4.473
 2417TIP3    H2 7216   1.030   5.554   4.403
 2418TIP3   OH2 7217   0.251   0.571   5.906
 2418TIP3    H1 7218   0.252   0.559   6.001
 2418TIP3    H2 7219   0.333   0.618   5.888
 2419TIP3   OH2 7220   3.349   0.504   2.734
 2419TIP3    H1 7221   3.332   0.534   2.645
 2419TIP3    H2 7222   3.358   0.584   2.786
 2420TIP3   OH2 7223   4.419   1.264   5.561
 2420TIP3    H1 7224   4.434   1.225   5.647
 2420TIP3    H2 7225   4.339   1.223   5.529
 2421TIP3   OH2 7226   3.786   3.767   4.081
 2421TIP3    H1 7227   3.724   3.752   4.010
 2421TIP3    H2 7228   3.732   3.798   4.154
 2422TIP3   OH2 7229   3.573   6.679   4.626
 2422TIP3    H1 7230   3.599   6.732   4.701
 2422TIP3    H2 7231   3.596   6.732   4.550
 2423TIP3   OH2 7232   2.448   6.305   1.591
 2423TIP3    H1 7233   2.423   6.220   1.627
 2423TIP3    H2 7234   2.386   6.366   1.630
 2424TIP3   OH2 7235   1.359   3.105   3.295
 2424TIP3    H1 7236   1.443   3.060   3.305
 2424TIP3    H2 7237   1.314   3.055   3.227
 2425TIP3   OH2 7238   2.728   2.466   4.542
 2425TIP3    H1 7239   2.806   2.514   4.516
 2425TIP3    H2 7240   2.693   2.432   4.459
 2426TIP3   OH2 7241   0.989   4.163   0.833
 2426TIP3    H1 7242   0.959   4.081   0.795
 2426TIP3    H2 7243   1.083   4.165   0.813
 2427TIP3   OH2 7244   2.993   6.032   0.882
 2427TIP3    H1 7245   3.080   6.052   0.915
 2427TIP3    H2 7246   2.957   6.117   0.856
 2428TIP3   OH2 7247   4.577   5.284   1.333
 2428TIP3    H1 7248   4.528   5.228   1.273
 2428TIP3    H2 7249   4.664   5.243   1.339
 2429TIP3   OH2 7250   6.507   0.487   4.267
 2429TIP3    H1 7251   6.579   0.518   4.322
 2429TIP3    H2 7252   6.466   0.566   4.233
 2430TIP3   OH2 7253   6.223   0.770   4.913
 2430TIP3    H1 7254   6.173   0.781   4.832
 2430TIP3    H2 7255   6.255   0.680   4.910
 2431TIP3   OH2 7256   2.281   6.007   5.546
 2431TIP3    H1 7257   2.299   5.985   5.637
 2431TIP3    H2 7258   2.257   5.924   5.505
 2432TIP3   OH2 7259   3.303   4.742   0.592
 2432TIP3    H1 7260   3.354   4.819   0.569
 2432TIP3    H2 7261   3.342   4.671   0.542
 2433TIP3   OH2 7262   6.841   4.083   0.346
 2433TIP3    H1 7263   6.756   4.057   0.313
 2433TIP3    H2 7264   6.840   4.058   0.439
 2434TIP3   OH2 7265   4.807   3.139   2.613
 2434TIP3    H1 7266   4.812   3.207   2.545
 2434TIP3    H2 7267   4.825   3.057   2.566
 2435TIP3   OH2 7268   2.009   1.568   3.204
 2435TIP3    H1 7269   1.963   1.651   3.191
 2435TIP3    H2 7270   2.079   1.570   3.139
 2436TIP3   OH2 7271   2.446   4.780   5.617
 2436TIP3    H1 7272   2.505   4.722   5.667
 2436TIP3    H2 7273   2.433   4.733   5.534
 2437TIP3   OH2 7274   2.253   3.872   3.884
 2437TIP3    H1 7275   2.255   3.783   3.848
 2437TIP3    H2 7276   2.345   3.895   3.896
 2438TIP3   OH2 7277   7.195   0.353   3.634
 2438TIP3    H1 7278   7.169   0.350   3.726
 2438TIP3    H2 7279   7.124   0.399   3.590
 2439TIP3   OH2 7280   0.134   4.422   0.766
 2439TIP3    H1 7281   0.200   4.477   0.808
 2439TIP3    H2 7282   0.161   4.332   0.786
 2440TIP3   OH2 7283   1.660   5.405   4.664
 2440TIP3    H1 7284   1.707   5.489   4.664
 2440TIP3    H2 7285   1.682   5.366   4.579
 2441TIP3   OH2 7286   2.648   5.989   5.677
 2441TIP3    H1 7287   2.613   6.054   5.616
 2441TIP3    H2 7288   2.742   5.990   5.661
 2442TIP3   OH2 7289   2.519   2.665   5.052
 2442TIP3    H1 7290   2.505   2.574   5.025
 2442TIP3    H2 7291   2.515   2.716   4.971
 2443TIP3   OH2 7292   5.867   0.007   5.161
 2443TIP3    H1 7293   5.945   0.052   5.192
 2443TIP3    H2 7294   5.853   0.042   5.073
 2444TIP3   OH2 7295   5.399   5.972   0.612
 2444TIP3    H1 7296   5.387   6.046   0.552
 2444TIP3    H2 7297   5.484   5.988   0.653
 2445TIP3   OH2 7298   1.716   4.124   5.249
 2445TIP3    H1 7299   1.646   4.164   5.301
 2445TIP3    H2 7300   1.781   4.193   5.238
 2446TIP3   OH2 7301   3.849   1.751   5.469
 2446TIP3    H1 7302   3.907   1.805   5.523
 2446TIP3    H2 7303   3.873   1.661   5.491
 2447TIP3   OH2 7304   1.862   0.076   0.940
 2447TIP3    H1 7305   1.824   0.162   0.956
 2447TIP3    H2 7306   1.859   0.032   1.025
 2448TIP3   OH2 7307   4.615   3.740   2.658
 2448TIP3    H1 7308   4.690   3.762   2.713
 2448TIP3    H2 7309   4.615   3.805   2.588
 2449TIP3   OH2 7310   4.422   0.369   3.200
 2449TIP3    H1 7311   4.484   0.433   3.233
 2449TIP3    H2 7312   4.362   0.419   3.145
 2450TIP3   OH2 7313   5.756   3.111   4.471
 2450TIP3    H1 7314   5.743   3.206   4.472
 2450TIP3    H2 7315   5.809   3.093   4.548
 2451TIP3   OH2 7316   3.938   4.735   1.162
 2451TIP3    H1 7317   3.909   4.773   1.245
 2451TIP3    H2 7318   4.005   4.795   1.130
 2452TIP3   OH2 7319   1.218   6.459   2.600
 2452TIP3    H1 7320   1.190   6.391   2.661
 2452TIP3    H2 7321   1.314   6.455   2.601
 2453TIP3   OH2 7322   4.858   4.898   2.565
 2453TIP3    H1 7323   4.848   4.813   2.608
 2453TIP3    H2 7324   4.843   4.881   2.472
 2454TIP3   OH2 7325   0.927   4.343   3.138
 2454TIP3    H1 7326   0.997   4.327   3.202
 2454TIP3    H2 7327   0.866   4.402   3.183
 2455TIP3   OH2 7328   5.006   5.928   5.366
 2455TIP3    H1 7329   4.957   5.973   5.434
 2455TIP3    H2 7330   5.065   5.995   5.330
 2456TIP3   OH2 7331   5.677   2.517   0.377
 2456TIP3    H1 7332   5.616   2.565   0.322
 2456TIP3    H2 7333   5.696   2.437   0.328
 2457TIP3   OH2 7334   4.725   0.387   0.345
 2457TIP3    H1 7335   4.665   0.462   0.341
 2457TIP3    H2 7336   4.696   0.337   0.421
 2458TIP3   OH2 7337   6.091   0.349   1.143
 2458TIP3    H1 7338   6.055   0.315   1.224
 2458TIP3    H2 7339   6.095   0.273   1.085
 2459TIP3   OH2 7340   6.676   5.969   5.036
 2459TIP3    H1 7341   6.757   6.002   5.075
 2459TIP3    H2 7342   6.674   5.877   5.059
 2460TIP3   OH2 7343   5.970   4.151   1.627
 2460TIP3    H1 7344   5.943   4.233   1.669
 2460TIP3    H2 7345   5.915   4.145   1.549
 2461TIP3   OH2 7346   2.194   1.525   1.678
 2461TIP3    H1 7347   2.137   1.525   1.602
 2461TIP3    H2 7348   2.269   1.472   1.652
 2462TIP3   OH2 7349   2.734   1.356   5.372
 2462TIP3    H1 7350   2.737   1.418   5.299
 2462TIP3    H2 7351   2.826   1.338   5.391
 2463TIP3   OH2 7352   1.882   6.502   5.521
 2463TIP3    H1 7353   1.910   6.588   5.491
 2463TIP3    H2 7354   1.922   6.492   5.607
 2464TIP3   OH2 7355   4.911   0.464   0.884
 2464TIP3    H1 7356   4.840   0.400   0.895
 2464TIP3    H2 7357   4.938   0.453   0.792
 2465TIP3   OH2 7358   5.821   2.532   2.428
 2465TIP3    H1 7359   5.879   2.496   2.495
 2465TIP3    H2 7360   5.734   2.528   2.466
 2466TIP3   OH2 7361   1.467   0.676   3.651
 2466TIP3    H1 7362   1.530   0.704   3.717
 2466TIP3    H2 7363   1.452   0.754   3.598
 2467TIP3   OH2 7364   5.537   5.688   4.097
 2467TIP3    H1 7365   5.601   5.733   4.152
 2467TIP3    H2 7366   5.479   5.645   4.160
 2468TIP3   OH2 7367   4.595   5.019   3.767
 2468TIP3    H1 7368   4.615   4.935   3.807
 2468TIP3    H2 7369   4.679   5.062   3.757
 2469TIP3   OH2 7370   6.670   4.885   4.085
 2469TIP3    H1 7371   6.749   4.852   4.040
 2469TIP3    H2 7372   6.702   4.958   4.138
 2470TIP3   OH2 7373   3.505   5.993   4.838
 2470TIP3    H1 7374   3.581   5.935   4.830
 2470TIP3    H2 7375   3.448   5.951   4.901
 2471TIP3   OH2 7376   3.602   2.876   0.668
 2471TIP3    H1 7377   3.631   2.875   0.577
 2471TIP3    H2 7378   3.520   2.827   0.668
 2472TIP3   OH2 7379   1.372   1.108   2.978
 2472TIP3    H1 7380   1.407   1.174   3.038
 2472TIP3    H2 7381   1.420   1.122   2.897
 2473TIP3   OH2 7382   6.162   2.947   2.436
 2473TIP3    H1 7383   6.171   2.859   2.400
 2473TIP3    H2 7384   6.171   2.935   2.531
 2474TIP3   OH2 7385   3.988   6.219   0.699
 2474TIP3    H1 7386   3.918   6.188   0.756
 2474TIP3    H2 7387   4.058   6.247   0.758
 2475TIP3   OH2 7388   2.404   6.020   0.407
 2475TIP3    H1 7389   2.315   5.986   0.404
 2475TIP3    H2 7390   2.445   5.987   0.328
 2476TIP3   OH2 7391   1.161   3.174   1.851
 2476TIP3    H1 7392   1.069   3.177   1.879
 2476TIP3    H2 7393   1.206   3.234   1.910
 2477TIP3   OH2 7394   5.330   4.077   0.303
 2477TIP3    H1 7395   5.245   4.065   0.346
 2477TIP3    H2 7396   5.325   4.022   0.225
 2478TIP3   OH2 7397   0.199   6.661   3.467
 2478TIP3    H1 7398   0.241   6.595   3.522
 2478TIP3    H2 7399   0.182   6.734   3.526
 2479TIP3   OH2 7400   6.819   2.001   4.756
 2479TIP3    H1 7401   6.911   1.981   4.775
 2479TIP3    H2 7402   6.809   2.092   4.783
 2480TIP3   OH2 7403   3.554   3.154   0.745
 2480TIP3    H1 7404   3.586   3.141   0.835
 2480TIP3    H2 7405   3.572   3.070   0.702
 2481TIP3   OH2 7406   0.163   0.764   2.756
 2481TIP3    H1 7407   0.251   0.729   2.744
 2481TIP3    H2 7408   0.156   0.781   2.850
 2482TIP3   OH2 7409   1.804   0.614   0.172
 2482TIP3    H1 7410   1.877   0.566   0.134
 2482TIP3    H2 7411   1.731   0.551   0.172
 2483TIP3   OH2 7412   5.682   1.852   1.701
 2483TIP3    H1 7413   5.649   1.868   1.613
 2483TIP3    H2 7414   5.634   1.913   1.756
 2484TIP3   OH2 7415   1.517   0.939   1.941
 2484TIP3    H1 7416   1.423   0.937   1.922
 2484TIP3    H2 7417   1.545   0.848   1.931
 2485TIP3   OH2 7418   3.764   2.880   4.838
 2485TIP3    H1 7419   3.754   2.791   4.805
 2485TIP3    H2 7420   3.793   2.868   4.929
 2486TIP3   OH2 7421   5.960   3.593   4.271
 2486TIP3    H1 7422   5.897   3.553   4.211
 2486TIP3    H2 7423   6.040   3.602   4.219
 2487TIP3   OH2 7424   0.154   3.323   4.147
 2487TIP3    H1 7425   0.099   3.266   4.094
 2487TIP3    H2 7426   0.196   3.265   4.211
 2488TIP3   OH2 7427   5.150   6.728   4.501
 2488TIP3    H1 7428   5.103   6.702   4.421
 2488TIP3    H2 7429   5.092   6.701   4.572
 2489TIP3   OH2 7430   3.276   2.182   2.424
 2489TIP3    H1 7431   3.183   2.166   2.439
 2489TIP3    H2 7432   3.302   2.237   2.498
 2490TIP3   OH2 7433   4.336   0.473   1.080
 2490TIP3    H1 7434   4.425   0.472   1.046
 2490TIP3    H2 7435   4.290   0.406   1.030
 2491TIP3   OH2 7436   2.647   6.023   4.137
 2491TIP3    H1 7437   2.601   6.068   4.065
 2491TIP3    H2 7438   2.589   5.952   4.162
 2492TIP3   OH2 7439   1.092   3.255   0.939
 2492TIP3    H1 7440   1.170   3.228   0.891
 2492TIP3    H2 7441   1.061   3.175   0.982
 2493TIP3   OH2 7442   2.706   5.235   5.019
 2493TIP3    H1 7443   2.632   5.193   4.976
 2493TIP3    H2 7444   2.754   5.277   4.948
 2494TIP3   OH2 7445   6.451   3.153   0.560
 2494TIP3    H1 7446   6.374   3.114   0.519
 2494TIP3    H2 7447   6.417   3.200   0.635
 2495TIP3   OH2 7448   0.841   1.258   2.678
 2495TIP3    H1 7449   0.928   1.294   2.659
 2495TIP3    H2 7450   0.818   1.209   2.600
 2496TIP3   OH2 7451   3.147   3.442   3.908
 2496TIP3    H1 7452   3.057   3.414   3.891
 2496TIP3    H2 7453   3.149   3.535   3.887
 2497TIP3   OH2 7454   3.160   6.765   4.318
 2497TIP3    H1 7455   3.066   6.763   4.339
 2497TIP3    H2 7456   3.203   6.754   4.403
 2498TIP3   OH2 7457   5.548   2.889   2.048
 2498TIP3    H1 7458   5.534   2.977   2.084
 2498TIP3    H2 7459   5.625   2.898   1.992
 2499TIP3   OH2 7460   5.034   4.628   2.415
 2499TIP3    H1 7461   4.998   4.612   2.502
 2499TIP3    H2 7462   5.082   4.711   2.423
 2500TIP3   OH2 7463   0.652   1.016   5.243
 2500TIP3    H1 7464   0.713   1.087   5.224
 2500TIP3    H2 7465   0.680   0.943   5.187
 2501TIP3   OH2 7466   2.253   0.609   4.675
 2501TIP3    H1 7467   2.336   0.657   4.673
 2501TIP3    H2 7468   2.200   0.650   4.606
 2502TIP3   OH2 7469   6.804   0.338   2.183
 2502TIP3    H1 7470   6.779   0.255   2.225
 2502TIP3    H2 7471   6.875   0.314   2.123
 2503TIP3   OH2 7472   6.691   1.234   2.818
 2503TIP3    H1 7473   6.709   1.152   2.864
 2503TIP3    H2 7474   6.643   1.287   2.881
 2504TIP3   OH2 7475   6.176   0.571   5.272
 2504TIP3    H1 7476   6.113   0.567   5.199
 2504TIP3    H2 7477   6.261   0.582   5.229
 2505TIP3   OH2 7478   0.282   2.687   4.330
 2505TIP3    H1 7479   0.294   2.776   4.296
 2505TIP3    H2 7480   0.342   2.681   4.404
 2506TIP3   OH2 7481   0.086   5.827   2.435
 2506TIP3    H1 7482   0.106   5.886   2.362
 2506TIP3    H2 7483   0.097   5.880   2.513
 2507TIP3   OH2 7484   0.186   0.988   0.376
 2507TIP3    H1 7485   0.163   0.936   0.454
 2507TIP3    H2 7486   0.102   1.019   0.343
 2508TIP3   OH2 7487   3.595   3.536   3.181
 2508TIP3    H1 7488   3.540   3.526   3.103
 2508TIP3    H2 7489   3.679   3.498   3.156
 2509TIP3   OH2 7490   7.001   2.043   2.139
 2509TIP3    H1 7491   7.045   2.098   2.204
 2509TIP3    H2 7492   6.908   2.063   2.150
 2510TIP3   OH2 7493   6.778   4.242   1.021
 2510TIP3    H1 7494   6.861   4.288   1.031
 2510TIP3    H2 7495   6.735   4.286   0.947
 2511TIP3   OH2 7496   6.306   5.343   2.777
 2511TIP3    H1 7497   6.296   5.429   2.818
 2511TIP3    H2 7498   6.273   5.356   2.687
 2512TIP3   OH2 7499   4.471   5.509   3.747
 2512TIP3    H1 7500   4.407   5.492   3.816
 2512TIP3    H2 7501   4.419   5.547   3.676
 2513TIP3   OH2 7502   4.123   3.418   5.630
 2513TIP3    H1 7503   4.103   3.449   5.541
 2513TIP3    H2 7504   4.046   3.367   5.655
 2514TIP3   OH2 7505   1.107   1.876   4.413
 2514TIP3    H1 7506   1.095   1.968   4.390
 2514TIP3    H2 7507   1.021   1.848   4.444
 2515TIP3   OH2 7508   5.104   3.925   0.687
 2515TIP3    H1 7509   5.078   3.922   0.779
 2515TIP3    H2 7510   5.041   3.868   0.643
 2516TIP3   OH2 7511   4.472   1.571   3.384
 2516TIP3    H1 7512   4.436   1.659   3.390
 2516TIP3    H2 7513   4.537   1.576   3.314
 2517TIP3   OH2 7514   4.915   6.119   1.896
 2517TIP3    H1 7515   4.859   6.074   1.959
 2517TIP3    H2 7516   4.897   6.075   1.813
 2518TIP3   OH2 7517   2.343   4.183   5.789
 2518TIP3    H1 7518   2.336   4.205   5.696
 2518TIP3    H2 7519   2.252   4.172   5.818
 2519TIP3   OH2 7520   4.858   2.239   4.013
 2519TIP3    H1 7521   4.922   2.263   4.080
 2519TIP3    H2 7522   4.847   2.318   3.961
 2520TIP3   OH2 7523   1.993   2.734   1.914
 2520TIP3    H1 7524   2.027   2.648   1.886
 2520TIP3    H2 7525   1.970   2.778   1.832
 2521TIP3   OH2 7526   5.944   2.272   5.628
 2521TIP3    H1 7527   5.873   2.256   5.691
 2521TIP3    H2 7528   5.936   2.202   5.564
 2522TIP3   OH2 7529   1.966   5.275   5.613
 2522TIP3    H1 7530   2.030   5.210   5.583
 2522TIP3    H2 7531   1.974   5.347   5.551
 2523TIP3   OH2 7532   2.704   6.509   2.202
 2523TIP3    H1 7533   2.674   6.462   2.280
 2523TIP3    H2 7534   2.635   6.495   2.137
 2524TIP3   OH2 7535   0.369   6.034   4.285
 2524TIP3    H1 7536   0.291   5.997   4.244
 2524TIP3    H2 7537   0.336   6.101   4.344
 2525TIP3   OH2 7538   4.228   2.190   1.631
 2525TIP3    H1 7539   4.211   2.227   1.717
 2525TIP3    H2 7540   4.252   2.265   1.577
 2526TIP3   OH2 7541   2.207   5.869   1.259
 2526TIP3    H1 7542   2.213   5.952   1.307
 2526TIP3    H2 7543   2.260   5.808   1.311
 2527TIP3   OH2 7544   0.178   1.700   3.600
 2527TIP3    H1 7545   0.215   1.620   3.563
 2527TIP3    H2 7546   0.181   1.687   3.695
 2528TIP3   OH2 7547   2.411   5.003   0.002
 2528TIP3    H1 7548   2.497   5.040  -0.017
 2528TIP3    H2 7549   2.423   4.956   0.085
 2529TIP3   OH2 7550   2.362   5.495   4.968
 2529TIP3    H1 7551   2.372   5.426   4.902
 2529TIP3    H2 7552   2.445   5.542   4.966
 2530TIP3   OH2 7553   4.198   3.761   3.351
 2530TIP3    H1 7554   4.135   3.778   3.282
 2530TIP3    H2 7555   4.256   3.837   3.349
 2531TIP3   OH2 7556   1.374   5.173   4.767
 2531TIP3    H1 7557   1.420   5.200   4.687
 2531TIP3    H2 7558   1.394   5.080   4.776
 2532TIP3   OH2 7559   4.963   1.396   2.552
 2532TIP3    H1 7560   4.993   1.326   2.611
 2532TIP3    H2 7561   4.980   1.362   2.464
 2533TIP3   OH2 7562   5.291   6.171   4.619
 2533TIP3    H1 7563   5.206   6.149   4.580
 2533TIP3    H2 7564   5.313   6.257   4.583
 2534TIP3   OH2 7565   5.136   1.761   1.384
 2534TIP3    H1 7566   5.056   1.813   1.395
 2534TIP3    H2 7567   5.149   1.756   1.290
 2535TIP3   OH2 7568   5.079   3.830   5.807
 2535TIP3    H1 7569   5.030   3.843   5.726
 2535TIP3    H2 7570   5.117   3.743   5.799
 2536TIP3   OH2 7571   3.368   1.632   2.100
 2536TIP3    H1 7572   3.289   1.656   2.053
 2536TIP3    H2 7573   3.435   1.693   2.069
 2537TIP3   OH2 7574   6.310   4.469   3.865
 2537TIP3    H1 7575   6.370   4.538   3.835
 2537TIP3    H2 7576   6.318   4.471   3.960
 2538TIP3   OH2 7577   4.738   4.440   0.436
 2538TIP3    H1 7578   4.811   4.393   0.394
 2538TIP3    H2 7579   4.664   4.426   0.377
 2539TIP3   OH2 7580   3.727   4.778   5.196
 2539TIP3    H1 7581   3.790   4.851   5.196
 2539TIP3    H2 7582   3.693   4.776   5.286
 2540TIP3   OH2 7583   4.895   6.543   4.027
 2540TIP3    H1 7584   4.829   6.609   4.007
 2540TIP3    H2 7585   4.850   6.459   4.012
 2541TIP3   OH2 7586   4.749   0.948   3.974
 2541TIP3    H1 7587   4.680   0.978   3.915
 2541TIP3    H2 7588   4.707   0.882   4.028
 2542TIP3   OH2 7589   0.667   1.662   3.083
 2542TIP3    H1 7590   0.749   1.687   3.041
 2542TIP3    H2 7591   0.610   1.635   3.012
 2543TIP3   OH2 7592   0.944   1.375   4.959
 2543TIP3    H1 7593   1.027   1.384   4.912
 2543TIP3    H2 7594   0.904   1.462   4.952
 2544TIP3   OH2 7595   5.937   4.117   5.081
 2544TIP3    H1 7596   5.963   4.053   5.015
 2544TIP3    H2 7597   5.963   4.201   5.045
 2545TIP3   OH2 7598   2.089   5.738   1.557
 2545TIP3    H1 7599   2.093   5.833   1.573
 2545TIP3    H2 7600   2.003   5.724   1.519
 2546TIP3   OH2 7601   6.988   3.916   4.611
 2546TIP3    H1 7602   6.913   3.862   4.635
 2546TIP3    H2 7603   6.963   4.005   4.635
 2547TIP3   OH2 7604   6.148   1.907   0.542
 2547TIP3    H1 7605   6.146   2.002   0.552
 2547TIP3    H2 7606   6.241   1.887   0.528
 2548TIP3   OH2 7607   4.948   4.945   1.787
 2548TIP3    H1 7608   4.961   4.956   1.693
 2548TIP3    H2 7609   4.984   5.025   1.826
 2549TIP3   OH2 7610   3.563   1.724   0.288
 2549TIP3    H1 7611   3.591   1.816   0.285
 2549TIP3    H2 7612   3.530   1.713   0.377
 2550TIP3   OH2 7613   6.292   6.261   1.192
 2550TIP3    H1 7614   6.369   6.279   1.245
 2550TIP3    H2 7615   6.266   6.172   1.217
 2551TIP3   OH2 7616   0.978   5.372   5.222
 2551TIP3    H1 7617   0.933   5.289   5.236
 2551TIP3    H2 7618   1.008   5.398   5.309
 2552TIP3   OH2 7619   5.837   3.935   2.122
 2552TIP3    H1 7620   5.882   3.946   2.206
 2552TIP3    H2 7621   5.889   3.987   2.060
 2553TIP3   OH2 7622   4.788   4.832   2.278
 2553TIP3    H1 7623   4.694   4.844   2.260
 2553TIP3    H2 7624   4.801   4.738   2.281
 2554TIP3   OH2 7625   5.739   5.754   5.527
 2554TIP3    H1 7626   5.743   5.685   5.460
 2554TIP3    H2 7627   5.806   5.817   5.501
 2555TIP3   OH2 7628   6.330   2.692   1.581
 2555TIP3    H1 7629   6.378   2.661   1.658
 2555TIP3    H2 7630   6.248   2.725   1.616
 2556TIP3   OH2 7631   3.101   2.354   2.228
 2556TIP3    H1 7632   3.105   2.341   2.323
 2556TIP3    H2 7633   3.011   2.332   2.205
 2557TIP3   OH2 7634   5.085   1.750   5.346
 2557TIP3    H1 7635   5.046   1.791   5.423
 2557TIP3    H2 7636   5.014   1.697   5.309
 2558TIP3   OH2 7637   1.379   1.932   2.952
 2558TIP3    H1 7638   1.431   2.009   2.973
 2558TIP3    H2 7639   1.401   1.869   3.020
 2559TIP3   OH2 7640   3.277   2.706   3.416
 2559TIP3    H1 7641   3.220   2.727   3.342
 2559TIP3    H2 7642   3.217   2.681   3.486
 2560TIP3   OH2 7643   3.618   3.576   2.265
 2560TIP3    H1 7644   3.556   3.590   2.336
 2560TIP3    H2 7645   3.647   3.665   2.242
 2561TIP3   OH2 7646   1.327   5.755   0.389
 2561TIP3    H1 7647   1.324   5.844   0.425
 2561TIP3    H2 7648   1.285   5.701   0.456
 2562TIP3   OH2 7649   0.157   1.076   3.483
 2562TIP3    H1 7650   0.207   1.081   3.564
 2562TIP3    H2 7651   0.223   1.075   3.414
 2563TIP3   OH2 7652   3.585   2.791   5.611
 2563TIP3    H1 7653   3.491   2.774   5.612
 2563TIP3    H2 7654   3.618   2.746   5.688
 2564TIP3   OH2 7655   1.663   1.295   4.206
 2564TIP3    H1 7656   1.579   1.261   4.238
 2564TIP3    H2 7657   1.706   1.329   4.284
 2565TIP3   OH2 7658   2.147   0.937   4.724
 2565TIP3    H1 7659   2.165   1.022   4.685
 2565TIP3    H2 7660   2.062   0.911   4.688
 2566TIP3   OH2 7661   2.047   4.664   5.740
 2566TIP3    H1 7662   1.966   4.696   5.781
 2566TIP3    H2 7663   2.044   4.699   5.651
 2567TIP3   OH2 7664   1.931   2.896   0.147
 2567TIP3    H1 7665   1.928   2.800   0.155
 2567TIP3    H2 7666   2.017   2.921   0.179
 2568TIP3   OH2 7667   0.818   5.243   1.243
 2568TIP3    H1 7668   0.759   5.299   1.293
 2568TIP3    H2 7669   0.854   5.182   1.308
 2569TIP3   OH2 7670   5.128   5.620   1.478
 2569TIP3    H1 7671   5.121   5.701   1.428
 2569TIP3    H2 7672   5.146   5.553   1.413
 2570TIP3   OH2 7673   3.734   1.938   5.708
 2570TIP3    H1 7674   3.828   1.955   5.700
 2570TIP3    H2 7675   3.697   1.966   5.625
 2571TIP3   OH2 7676   3.899   0.192   2.178
 2571TIP3    H1 7677   3.852   0.118   2.140
 2571TIP3    H2 7678   3.836   0.263   2.178
 2572TIP3   OH2 7679   5.337   5.217   4.907
 2572TIP3    H1 7680   5.410   5.276   4.889
 2572TIP3    H2 7681   5.349   5.144   4.846
 2573TIP3   OH2 7682   4.041   5.498   2.668
 2573TIP3    H1 7683   4.059   5.574   2.613
 2573TIP3    H2 7684   4.027   5.535   2.755
 2574TIP3   OH2 7685   3.033   2.407   0.608
 2574TIP3    H1 7686   3.053   2.456   0.688
 2574TIP3    H2 7687   3.096   2.335   0.608
 2575TIP3   OH2 7688   1.970   2.288   3.803
 2575TIP3    H1 7689   1.939   2.371   3.768
 2575TIP3    H2 7690   2.057   2.277   3.766
 2576TIP3   OH2 7691   6.366   1.177   3.437
 2576TIP3    H1 7692   6.310   1.136   3.370
 2576TIP3    H2 7693   6.322   1.259   3.458
 2577TIP3   OH2 7694   0.049   3.781   0.579
 2577TIP3    H1 7695   0.007   3.737   0.506
 2577TIP3    H2 7696   0.016   3.735   0.657
 2578TIP3   OH2 7697   5.282   6.515   0.937
 2578TIP3    H1 7698   5.272   6.438   0.994
 2578TIP3    H2 7699   5.282   6.589   0.997
 2579TIP3   OH2 7700   6.447   4.730   2.368
 2579TIP3    H1 7701   6.512   4.735   2.298
 2579TIP3    H2 7702   6.471   4.652   2.417
 2580TIP3   OH2 7703   1.183   5.051   2.610
 2580TIP3    H1 7704   1.169   5.016   2.698
 2580TIP3    H2 7705   1.097   5.084   2.584
 2581TIP3   OH2 7706   6.611   0.076   3.768
 2581TIP3    H1 7707   6.565   0.028   3.837
 2581TIP3    H2 7708   6.655   0.147   3.813
 2582TIP3   OH2 7709   3.898   2.203   4.884
 2582TIP3    H1 7710   3.982   2.223   4.844
 2582TIP3    H2 7711   3.903   2.243   4.971
 2583TIP3   OH2 7712   5.094   1.143   3.659
 2583TIP3    H1 7713   5.060   1.132   3.570
 2583TIP3    H2 7714   5.156   1.215   3.653
 2584TIP3   OH2 7715   4.561   5.105   5.131
 2584TIP3    H1 7716   4.583   5.038   5.066
 2584TIP3    H2 7717   4.590   5.187   5.091
 2585TIP3   OH2 7718   6.903   2.579   0.833
 2585TIP3    H1 7719   6.896   2.609   0.924
 2585TIP3    H2 7720   6.814   2.549   0.811
 2586TIP3   OH2 7721   5.760   1.105   3.714
 2586TIP3    H1 7722   5.828   1.095   3.648
 2586TIP3    H2 7723   5.683   1.134   3.665
 2587TIP3   OH2 7724   6.878   4.064   2.059
 2587TIP3    H1 7725   6.789   4.080   2.089
 2587TIP3    H2 7726   6.904   4.145   2.016
 2588TIP3   OH2 7727   3.161   6.360   0.303
 2588TIP3    H1 7728   3.243   6.400   0.275
 2588TIP3    H2 7729   3.097   6.431   0.296
 2589TIP3   OH2 7730   2.036   2.306   5.900
 2589TIP3    H1 7731   2.061   2.349   5.819
 2589TIP3    H2 7732   1.944   2.330   5.913
 2590TIP3   OH2 7733   4.785   1.392   5.702
 2590TIP3    H1 7734   4.819   1.451   5.634
 2590TIP3    H2 7735   4.792   1.305   5.664
 2591TIP3   OH2 7736   0.717   5.865   3.514
 2591TIP3    H1 7737   0.789   5.833   3.570
 2591TIP3    H2 7738   0.638   5.828   3.553
 2592TIP3   OH2 7739   4.976   6.308   3.717
 2592TIP3    H1 7740   5.045   6.305   3.649
 2592TIP3    H2 7741   4.939   6.396   3.709
 2593TIP3   OH2 7742   3.160   3.278   3.237
 2593TIP3    H1 7743   3.240   3.251   3.281
 2593TIP3    H2 7744   3.160   3.373   3.243
 2594TIP3   OH2 7745   5.459   2.587   0.171
 2594TIP3    H1 7746   5.394   2.530   0.128
 2594TIP3    H2 7747   5.416   2.672   0.176
 2595TIP3   OH2 7748   1.899   1.108   0.421
 2595TIP3    H1 7749   1.809   1.125   0.449
 2595TIP3    H2 7750   1.942   1.072   0.499
 2596TIP3   OH2 7751   6.227   4.535   2.144
 2596TIP3    H1 7752   6.310   4.492   2.165
 2596TIP3    H2 7753   6.250   4.597   2.074
 2597TIP3   OH2 7754   6.873   5.896   2.904
 2597TIP3    H1 7755   6.779   5.913   2.916
 2597TIP3    H2 7756   6.913   5.927   2.985
 2598TIP3   OH2 7757   3.494   3.619   4.811
 2598TIP3    H1 7758   3.453   3.630   4.725
 2598TIP3    H2 7759   3.473   3.530   4.836
 2599TIP3   OH2 7760   6.078   3.877   1.663
 2599TIP3    H1 7761   6.032   3.953   1.628
 2599TIP3    H2 7762   6.144   3.914   1.721
 2600TIP3   OH2 7763   2.796   6.184   2.172
 2600TIP3    H1 7764   2.891   6.183   2.173
 2600TIP3    H2 7765   2.772   6.259   2.226
 2601TIP3   OH2 7766   2.207   0.985   5.174
 2601TIP3    H1 7767   2.238   0.895   5.183
 2601TIP3    H2 7768   2.235   1.011   5.086
 2602TIP3   OH2 7769   6.301   1.955   4.456
 2602TIP3    H1 7770   6.359   2.031   4.461
 2602TIP3    H2 7771   6.331   1.909   4.377
 2603TIP3   OH2 7772   5.209   6.320   3.519
 2603TIP3    H1 7773   5.275   6.279   3.574
 2603TIP3    H2 7774   5.255   6.393   3.477
 2604TIP3   OH2 7775   1.292   2.102   2.363
 2604TIP3    H1 7776   1.317   2.011   2.382
 2604TIP3    H2 7777   1.311   2.150   2.444
 2605TIP3   OH2 7778   0.919   0.622   3.480
 2605TIP3    H1 7779   0.989   0.599   3.419
 2605TIP3    H2 7780   0.842   0.575   3.446
 2606TIP3   OH2 7781   3.457   5.885   0.714
 2606TIP3    H1 7782   3.366   5.912   0.704
 2606TIP3    H2 7783   3.460   5.796   0.680
 2607TIP3   OH2 7784   1.480   0.452   0.414
 2607TIP3    H1 7785   1.503   0.488   0.328
 2607TIP3    H2 7786   1.501   0.359   0.408
 2608TIP3   OH2 7787   6.804   4.192   3.795
 2608TIP3    H1 7788   6.742   4.127   3.827
 2608TIP3    H2 7789   6.858   4.213   3.871
 2609TIP3   OH2 7790   1.224   4.014   1.388
 2609TIP3    H1 7791   1.225   4.049   1.298
 2609TIP3    H2 7792   1.313   4.029   1.419
 2610TIP3   OH2 7793   5.288   4.028   5.768
 2610TIP3    H1 7794   5.228   3.954   5.776
 2610TIP3    H2 7795   5.374   3.989   5.758
 2611TIP3   OH2 7796   0.962   5.910   2.452
 2611TIP3    H1 7797   1.041   5.874   2.413
 2611TIP3    H2 7798   0.971   5.891   2.546
 2612TIP3   OH2 7799   5.789   1.104   2.761
 2612TIP3    H1 7800   5.742   1.151   2.829
 2612TIP3    H2 7801   5.724   1.044   2.724
 2613TIP3   OH2 7802   5.719   3.504   2.793
 2613TIP3    H1 7803   5.762   3.458   2.865
 2613TIP3    H2 7804   5.746   3.456   2.715
 2614TIP3   OH2 7805   1.567   5.789   0.998
 2614TIP3    H1 7806   1.536   5.812   0.911
 2614TIP3    H2 7807   1.632   5.720   0.984
 2615TIP3   OH2 7808   5.785   4.726   1.559
 2615TIP3    H1 7809   5.790   4.647   1.612
 2615TIP3    H2 7810   5.702   4.718   1.512
 2616TIP3   OH2 7811   3.197   6.488   1.101
 2616TIP3    H1 7812   3.223   6.580   1.091
 2616TIP3    H2 7813   3.139   6.488   1.177
 2617TIP3   OH2 7814   2.512   2.391   4.989
 2617TIP3    H1 7815   2.592   2.416   4.943
 2617TIP3    H2 7816   2.539   2.320   5.047
 2618TIP3   OH2 7817   2.801   1.680   0.775
 2618TIP3    H1 7818   2.775   1.635   0.856
 2618TIP3    H2 7819   2.896   1.680   0.777
 2619TIP3   OH2 7820   3.723   0.084   1.049
 2619TIP3    H1 7821   3.769   0.168   1.053
 2619TIP3    H2 7822   3.630   0.107   1.046
 2620TIP3   OH2 7823   7.098   2.267   4.687
 2620TIP3    H1 7824   7.047   2.346   4.705
 2620TIP3    H2 7825   7.083   2.248   4.595
 2621TIP3   OH2 7826   4.797   5.521   0.962
 2621TIP3    H1 7827   4.750   5.515   0.879
 2621TIP3    H2 7828   4.729   5.514   1.029
 2622TIP3   OH2 7829   6.990   3.530   4.183
 2622TIP3    H1 7830   7.049   3.587   4.133
 2622TIP3    H2 7831   6.955   3.587   4.252
 2623TIP3   OH2 7832   5.605   3.761   2.844
 2623TIP3    H1 7833   5.620   3.668   2.830
 2623TIP3    H2 7834   5.524   3.765   2.895
 2624TIP3   OH2 7835   0.275   6.481   3.805
 2624TIP3    H1 7836   0.304   6.404   3.756
 2624TIP3    H2 7837   0.346   6.544   3.796
 2625TIP3   OH2 7838   5.240   3.833   4.648
 2625TIP3    H1 7839   5.176   3.841   4.577
 2625TIP3    H2 7840   5.290   3.754   4.627
 2626TIP3   OH2 7841   5.219   2.534   0.097
 2626TIP3    H1 7842   5.148   2.570   0.151
 2626TIP3    H2 7843   5.214   2.581   0.014
 2627TIP3   OH2 7844   3.444   1.105   3.713
 2627TIP3    H1 7845   3.355   1.136   3.700
 2627TIP3    H2 7846   3.446   1.019   3.672
 2628TIP3   OH2 7847   2.572   4.434   4.229
 2628TIP3    H1 7848   2.565   4.341   4.206
 2628TIP3    H2 7849   2.594   4.433   4.322
 2629TIP3   OH2 7850   1.079   4.054   5.391
 2629TIP3    H1 7851   0.991   4.040   5.425
 2629TIP3    H2 7852   1.128   3.976   5.418
 2630TIP3   OH2 7853   1.458   6.431   2.223
 2630TIP3    H1 7854   1.414   6.502   2.270
 2630TIP3    H2 7855   1.551   6.453   2.228
 2631TIP3   OH2 7856   3.884   1.394   5.618
 2631TIP3    H1 7857   3.961   1.427   5.572
 2631TIP3    H2 7858   3.880   1.301   5.594
 2632TIP3   OH2 7859   0.704   4.805   0.843
 2632TIP3    H1 7860   0.625   4.777   0.798
 2632TIP3    H2 7861   0.677   4.879   0.897
 2633TIP3   OH2 7862   5.239   1.391   5.609
 2633TIP3    H1 7863   5.242   1.304   5.568
 2633TIP3    H2 7864   5.237   1.372   5.703
 2634TIP3   OH2 7865   4.561   1.288   4.879
 2634TIP3    H1 7866   4.543   1.301   4.973
 2634TIP3    H2 7867   4.474   1.279   4.840
 2635TIP3   OH2 7868   2.559   6.692   2.935
 2635TIP3    H1 7869   2.519   6.777   2.953
 2635TIP3    H2 7870   2.634   6.688   2.994
 2636TIP3   OH2 7871   4.670   4.148   3.648
 2636TIP3    H1 7872   4.644   4.171   3.737
 2636TIP3    H2 7873   4.766   4.143   3.652
 2637TIP3   OH2 7874   5.128   2.070   5.009
 2637TIP3    H1 7875   5.090   1.987   4.980
 2637TIP3    H2 7876   5.162   2.052   5.096
 2638TIP3   OH2 7877   0.760   4.595   0.180
 2638TIP3    H1 7878   0.815   4.647   0.121
 2638TIP3    H2 7879   0.747   4.651   0.257
 2639TIP3   OH2 7880   6.744   1.792   3.070
 2639TIP3    H1 7881   6.823   1.846   3.082
 2639TIP3    H2 7882   6.775   1.716   3.020
 2640TIP3   OH2 7883   6.951   1.378   5.671
 2640TIP3    H1 7884   6.904   1.333   5.601
 2640TIP3    H2 7885   6.903   1.355   5.751
 2641TIP3   OH2 7886   0.522   1.586   2.849
 2641TIP3    H1 7887   0.519   1.491   2.837
 2641TIP3    H2 7888   0.586   1.616   2.784
 2642TIP3   OH2 7889   5.968   4.902   5.588
 2642TIP3    H1 7890   5.885   4.922   5.631
 2642TIP3    H2 7891   6.009   4.836   5.644
 2643TIP3   OH2 7892   7.064   1.747   0.132
 2643TIP3    H1 7893   7.069   1.751   0.228
 2643TIP3    H2 7894   7.149   1.780   0.103
 2644TIP3   OH2 7895   4.496   2.601   3.489
 2644TIP3    H1 7896   4.534   2.621   3.575
 2644TIP3    H2 7897   4.571   2.574   3.436
 2645TIP3   OH2 7898   5.564   2.357   1.529
 2645TIP3    H1 7899   5.573   2.443   1.571
 2645TIP3    H2 7900   5.479   2.361   1.485
 2646TIP3   OH2 7901   1.851   4.160   5.503
 2646TIP3    H1 7902   1.825   4.250   5.481
 2646TIP3    H2 7903   1.826   4.108   5.427
 2647TIP3   OH2 7904   6.141   0.958   5.379
 2647TIP3    H1 7905   6.207   0.898   5.415
 2647TIP3    H2 7906   6.102   0.909   5.306
 2648TIP3   OH2 7907   2.857   2.231   1.895
 2648TIP3    H1 7908   2.922   2.288   1.854
 2648TIP3    H2 7909   2.774   2.256   1.853
 2649TIP3   OH2 7910   3.916   2.738   3.784
 2649TIP3    H1 7911   3.865   2.662   3.813
 2649TIP3    H2 7912   4.001   2.702   3.759
 2650TIP3   OH2 7913   4.404   5.374   5.573
 2650TIP3    H1 7914   4.356   5.308   5.523
 2650TIP3    H2 7915   4.336   5.433   5.606
 2651TIP3   OH2 7916   0.818   3.561   4.014
 2651TIP3    H1 7917   0.760   3.636   4.002
 2651TIP3    H2 7918   0.824   3.520   3.928
 2652TIP3   OH2 7919   4.864   1.928   1.131
 2652TIP3    H1 7920   4.870   2.003   1.071
 2652TIP3    H2 7921   4.927   1.865   1.096
 2653TIP3   OH2 7922   3.138   1.331   3.504
 2653TIP3    H1 7923   3.209   1.381   3.465
 2653TIP3    H2 7924   3.083   1.304   3.431
 2654TIP3   OH2 7925   2.036   1.594   1.455
 2654TIP3    H1 7926   2.044   1.550   1.371
 2654TIP3    H2 7927   2.001   1.680   1.434
 2655TIP3   OH2 7928   0.670   6.040   1.749
 2655TIP3    H1 7929   0.725   5.962   1.759
 2655TIP3    H2 7930   0.711   6.088   1.677
 2656TIP3   OH2 7931   7.046   5.823   0.176
 2656TIP3    H1 7932   7.011   5.878   0.246
 2656TIP3    H2 7933   7.000   5.852   0.097
 2657TIP3   OH2 7934   3.872   0.831   4.313
 2657TIP3    H1 7935   3.910   0.757   4.359
 2657TIP3    H2 7936   3.826   0.793   4.238
 2658TIP3   OH2 7937   3.071   5.485   2.508
 2658TIP3    H1 7938   3.013   5.546   2.462
 2658TIP3    H2 7939   3.111   5.538   2.577
 2659TIP3   OH2 7940   0.114   4.439   3.810
 2659TIP3    H1 7941   0.048   4.501   3.780
 2659TIP3    H2 7942   0.085   4.412   3.897
 2660TIP3   OH2 7943   4.467   6.328   4.942
 2660TIP3    H1 7944   4.498   6.265   5.007
 2660TIP3    H2 7945   4.416   6.391   4.992
 2661TIP3   OH2 7946   4.665   3.273   5.506
 2661TIP3    H1 7947   4.682   3.213   5.433
 2661TIP3    H2 7948   4.663   3.216   5.583
 2662TIP3   OH2 7949   1.972   3.947   2.478
 2662TIP3    H1 7950   1.896   3.959   2.422
 2662TIP3    H2 7951   2.046   3.974   2.424
 2663TIP3   OH2 7952   3.392   3.894   2.843
 2663TIP3    H1 7953   3.413   3.825   2.780
 2663TIP3    H2 7954   3.471   3.948   2.848
 2664TIP3   OH2 7955   1.208   3.582   0.173
 2664TIP3    H1 7956   1.221   3.595   0.079
 2664TIP3    H2 7957   1.252   3.499   0.192
 2665TIP3   OH2 7958   5.344   4.905  -0.012
 2665TIP3    H1 7959   5.391   4.910   0.071
 2665TIP3    H2 7960   5.394   4.841  -0.064
 2666TIP3   OH2 7961   4.322   1.690   5.488
 2666TIP3    H1 7962   4.312   1.781   5.462
 2666TIP3    H2 7963   4.368   1.648   5.415
 2667TIP3   OH2 7964   1.485   5.663   3.452
 2667TIP3    H1 7965   1.394   5.666   3.484
 2667TIP3    H2 7966   1.503   5.752   3.424
 2668TIP3   OH2 7967   1.246   1.246   3.799
 2668TIP3    H1 7968   1.177   1.264   3.735
 2668TIP3    H2 7969   1.327   1.270   3.754
 2669TIP3   OH2 7970   0.634   1.746   1.646
 2669TIP3    H1 7971   0.656   1.828   1.601
 2669TIP3    H2 7972   0.550   1.762   1.688
 2670TIP3   OH2 7973   2.257   0.724   1.641
 2670TIP3    H1 7974   2.211   0.642   1.625
 2670TIP3    H2 7975   2.345   0.697   1.668
 2671TIP3   OH2 7976   0.001   3.388   2.246
 2671TIP3    H1 7977  -0.076   3.344   2.210
 2671TIP3    H2 7978   0.075   3.345   2.203
 2672TIP3   OH2 7979   6.418   6.299   2.254
 2672TIP3    H1 7980   6.444   6.268   2.168
 2672TIP3    H2 7981   6.399   6.220   2.304
 2673TIP3   OH2 7982   0.909   6.671   5.711
 2673TIP3    H1 7983   0.954   6.600   5.666
 2673TIP3    H2 7984   0.874   6.726   5.641
 2674TIP3   OH2 7985   4.429   3.528   2.255
 2674TIP3    H1 7986   4.458   3.531   2.346
 2674TIP3    H2 7987   4.334   3.534   2.259
 2675TIP3   OH2 7988   6.320   3.988   3.552
 2675TIP3    H1 7989   6.361   3.965   3.469
 2675TIP3    H2 7990   6.234   3.946   3.548
 2676TIP3   OH2 7991   5.577   5.184   1.888
 2676TIP3    H1 7992   5.647   5.232   1.842
 2676TIP3    H2 7993   5.617   5.102   1.914
 2677TIP3   OH2 7994   0.620   2.086   5.130
 2677TIP3    H1 7995   0.711   2.062   5.114
 2677TIP3    H2 7996   0.590   2.023   5.196
 2678TIP3   OH2 7997   4.638   5.748   1.819
 2678TIP3    H1 7998   4.571   5.816   1.817
 2678TIP3    H2 7999   4.598   5.674   1.774
 2679TIP3   OH2 8000   3.097   5.022   0.984
 2679TIP3    H1 8001   3.016   4.991   1.025
 2679TIP3    H2 8002   3.128   5.091   1.043
 2680TIP3   OH2 8003   1.385   5.535   2.233
 2680TIP3    H1 8004   1.449   5.585   2.183
 2680TIP3    H2 8005   1.314   5.517   2.171
 2681TIP3   OH2 8006   3.435   2.850   2.393
 2681TIP3    H1 8007   3.470   2.939   2.385
 2681TIP3    H2 8008   3.340   2.862   2.400
 2682TIP3   OH2 8009   6.930   2.141   1.663
 2682TIP3    H1 8010   6.998   2.180   1.608
 2682TIP3    H2 8011   6.927   2.198   1.741
 2683TIP3   OH2 8012   3.520   5.174   1.183
 2683TIP3    H1 8013   3.578   5.113   1.228
 2683TIP3    H2 8014   3.536   5.159   1.090
 2684TIP3   OH2 8015   6.519   2.728   2.721
 2684TIP3    H1 8016   6.584   2.784   2.764
 2684TIP3    H2 8017   6.571   2.659   2.680
 2685TIP3   OH2 8018   5.494   5.473   1.294
 2685TIP3    H1 8019   5.520   5.380   1.292
 2685TIP3    H2 8020   5.399   5.471   1.298
 2686TIP3   OH2 8021   5.216   2.377   4.600
 2686TIP3    H1 8022   5.194   2.297   4.552
 2686TIP3    H2 8023   5.303   2.401   4.568
 2687TIP3   OH2 8024   6.331   5.235   0.092
 2687TIP3    H1 8025   6.247   5.191   0.086
 2687TIP3    H2 8026   6.320   5.297   0.164
 2688TIP3   OH2 8027   5.674   6.324   1.181
 2688TIP3    H1 8028   5.664   6.419   1.180
 2688TIP3    H2 8029   5.596   6.292   1.226
 2689TIP3   OH2 8030   0.667   4.986   4.468
 2689TIP3    H1 8031   0.677   5.080   4.482
 2689TIP3    H2 8032   0.600   4.977   4.401
 2690TIP3   OH2 8033   2.401   4.971   2.662
 2690TIP3    H1 8034   2.308   4.994   2.661
 2690TIP3    H2 8035   2.406   4.891   2.609
 2691TIP3   OH2 8036   5.117   4.876   4.898
 2691TIP3    H1 8037   5.144   4.968   4.885
 2691TIP3    H2 8038   5.186   4.839   4.952
 2692TIP3   OH2 8039   6.455   0.087   1.834
 2692TIP3    H1 8040   6.474   0.094   1.927
 2692TIP3    H2 8041   6.532   0.126   1.791
 2693TIP3   OH2 8042   1.059   6.706   4.521
 2693TIP3    H1 8043   1.103   6.762   4.585
 2693TIP3    H2 8044   1.099   6.730   4.437
 2694TIP3   OH2 8045   4.313   4.346   1.925
 2694TIP3    H1 8046   4.406   4.336   1.907
 2694TIP3    H2 8047   4.307   4.354   2.020
 2695TIP3   OH2 8048   5.532   3.582   3.647
 2695TIP3    H1 8049   5.548   3.508   3.588
 2695TIP3    H2 8050   5.522   3.657   3.590
 2696TIP3   OH2 8051   5.058   1.246   0.206
 2696TIP3    H1 8052   4.998   1.185   0.164
 2696TIP3    H2 8053   5.096   1.196   0.279
 2697TIP3   OH2 8054   6.040   1.305   3.759
 2697TIP3    H1 8055   6.027   1.399   3.774
 2697TIP3    H2 8056   6.017   1.292   3.667
 2698TIP3   OH2 8057   2.518   4.012   1.730
 2698TIP3    H1 8058   2.493   4.011   1.637
 2698TIP3    H2 8059   2.612   3.997   1.730
 2699TIP3   OH2 8060   1.754   3.899   0.237
 2699TIP3    H1 8061   1.764   3.994   0.231
 2699TIP3    H2 8062   1.760   3.880   0.330
 2700TIP3   OH2 8063   3.230   1.457   4.725
 2700TIP3    H1 8064   3.207   1.382   4.779
 2700TIP3    H2 8065   3.149   1.508   4.719
 2701TIP3   OH2 8066   6.427   4.504   5.018
 2701TIP3    H1 8067   6.359   4.534   4.958
 2701TIP3    H2 8068   6.453   4.583   5.065
 2702TIP3   OH2 8069   1.257   3.800   3.983
 2702TIP3    H1 8070   1.310   3.745   4.041
 2702TIP3    H2 8071   1.168   3.792   4.017
 2703TIP3   OH2 8072   3.046   6.635   3.314
 2703TIP3    H1 8073   3.010   6.688   3.242
 2703TIP3    H2 8074   3.110   6.577   3.272
 2704TIP3   OH2 8075   4.125   2.004   0.723
 2704TIP3    H1 8076   4.177   1.984   0.645
 2704TIP3    H2 8077   4.082   1.921   0.745
 2705TIP3   OH2 8078   2.764   1.736   3.736
 2705TIP3    H1 8079   2.769   1.658   3.680
 2705TIP3    H2 8080   2.670   1.753   3.743
 2706TIP3   OH2 8081   6.204   6.780   5.386
 2706TIP3    H1 8082   6.266   6.737   5.327
 2706TIP3    H2 8083   6.151   6.709   5.421
 2707TIP3   OH2 8084   4.203   6.224   3.497
 2707TIP3    H1 8085   4.222   6.154   3.435
 2707TIP3    H2 8086   4.166   6.178   3.573
 2708TIP3   OH2 8087   2.534   5.029   3.790
 2708TIP3    H1 8088   2.601   4.965   3.766
 2708TIP3    H2 8089   2.544   5.040   3.885
 2709TIP3   OH2 8090   5.674   6.076   1.884
 2709TIP3    H1 8091   5.691   6.001   1.941
 2709TIP3    H2 8092   5.642   6.037   1.803
 2710TIP3   OH2 8093   5.984   5.679   4.022
 2710TIP3    H1 8094   6.036   5.601   4.040
 2710TIP3    H2 8095   6.005   5.701   3.931
 2711TIP3   OH2 8096   0.862   6.469   4.968
 2711TIP3    H1 8097   0.814   6.454   4.886
 2711TIP3    H2 8098   0.882   6.563   4.966
 2712TIP3   OH2 8099   3.627   0.351   4.268
 2712TIP3    H1 8100   3.594   0.439   4.282
 2712TIP3    H2 8101   3.622   0.309   4.354
 2713TIP3   OH2 8102   1.271   2.446   0.468
 2713TIP3    H1 8103   1.227   2.366   0.440
 2713TIP3    H2 8104   1.339   2.461   0.401
 2714TIP3   OH2 8105   5.747   0.883   3.878
 2714TIP3    H1 8106   5.745   0.969   3.837
 2714TIP3    H2 8107   5.734   0.822   3.805
 2715TIP3   OH2 8108   4.393   2.494   2.992
 2715TIP3    H1 8109   4.430   2.556   3.055
 2715TIP3    H2 8110   4.322   2.541   2.949
 2716TIP3   OH2 8111   5.753   2.862   4.384
 2716TIP3    H1 8112   5.744   2.956   4.399
 2716TIP3    H2 8113   5.778   2.826   4.469
 2717TIP3   OH2 8114   1.751   5.453   4.363
 2717TIP3    H1 8115   1.720   5.410   4.283
 2717TIP3    H2 8116   1.676   5.505   4.393
 2718TIP3   OH2 8117   5.346   6.694   1.164
 2718TIP3    H1 8118   5.346   6.789   1.171
 2718TIP3    H2 8119   5.371   6.664   1.252
 2719TIP3   OH2 8120   4.396   6.095   3.079
 2719TIP3    H1 8121   4.386   6.000   3.074
 2719TIP3    H2 8122   4.382   6.125   2.989
 2720TIP3   OH2 8123   5.712   0.513   1.807
 2720TIP3    H1 8124   5.725   0.427   1.765
 2720TIP3    H2 8125   5.633   0.547   1.765
 2721TIP3   OH2 8126   4.766   5.138   2.152
 2721TIP3    H1 8127   4.727   5.155   2.238
 2721TIP3    H2 8128   4.839   5.079   2.170
 2722TIP3   OH2 8129   1.006   3.797   4.115
 2722TIP3    H1 8130   0.936   3.786   4.051
 2722TIP3    H2 8131   0.970   3.761   4.196
 2723TIP3   OH2 8132   3.913   4.347   0.776
 2723TIP3    H1 8133   3.921   4.263   0.730
 2723TIP3    H2 8134   3.845   4.331   0.842
 2724TIP3   OH2 8135   1.780   3.213   0.158
 2724TIP3    H1 8136   1.784   3.178   0.069
 2724TIP3    H2 8137   1.785   3.135   0.214
 2725TIP3   OH2 8138   0.074   0.219   5.181
 2725TIP3    H1 8139   0.169   0.215   5.175
 2725TIP3    H2 8140   0.052   0.308   5.154
 2726TIP3   OH2 8141   2.671   1.532   5.814
 2726TIP3    H1 8142   2.763   1.520   5.837
 2726TIP3    H2 8143   2.645   1.612   5.860
 2727TIP3   OH2 8144   0.896   6.397   2.557
 2727TIP3    H1 8145   0.936   6.359   2.635
 2727TIP3    H2 8146   0.835   6.329   2.526
 2728TIP3   OH2 8147   1.162   6.713   2.174
 2728TIP3    H1 8148   1.159   6.650   2.247
 2728TIP3    H2 8149   1.252   6.708   2.142
 2729TIP3   OH2 8150   0.519   4.186   4.170
 2729TIP3    H1 8151   0.519   4.230   4.255
 2729TIP3    H2 8152   0.604   4.207   4.132
 2730TIP3   OH2 8153   5.570   1.155   2.227
 2730TIP3    H1 8154   5.617   1.144   2.309
 2730TIP3    H2 8155   5.634   1.132   2.159
 2731TIP3   OH2 8156   1.439   0.692   5.861
 2731TIP3    H1 8157   1.404   0.670   5.775
 2731TIP3    H2 8158   1.506   0.759   5.844
 2732TIP3   OH2 8159   5.309   2.672   5.808
 2732TIP3    H1 8160   5.381   2.610   5.803
 2732TIP3    H2 8161   5.327   2.724   5.886
 2733TIP3   OH2 8162   5.890   2.395   3.971
 2733TIP3    H1 8163   5.944   2.464   4.009
 2733TIP3    H2 8164   5.842   2.438   3.900
 2734TIP3   OH2 8165   4.220   1.352   3.733
 2734TIP3    H1 8166   4.197   1.288   3.666
 2734TIP3    H2 8167   4.168   1.430   3.712
 2735TIP3   OH2 8168   1.273   1.651   4.378
 2735TIP3    H1 8169   1.242   1.741   4.393
 2735TIP3    H2 8170   1.199   1.596   4.404
 2736TIP3   OH2 8171   2.909   4.663   0.835
 2736TIP3    H1 8172   2.988   4.715   0.845
 2736TIP3    H2 8173   2.849   4.719   0.785
 2737TIP3   OH2 8174   7.039   5.651   2.429
 2737TIP3    H1 8175   6.957   5.699   2.438
 2737TIP3    H2 8176   7.107   5.718   2.439
 2738TIP3   OH2 8177   0.820   4.495   4.071
 2738TIP3    H1 8178   0.904   4.540   4.068
 2738TIP3    H2 8179   0.789   4.507   4.160
 2739TIP3   OH2 8180   2.718   2.076   1.592
 2739TIP3    H1 8181   2.712   2.044   1.682
 2739TIP3    H2 8182   2.811   2.070   1.570
 2740TIP3   OH2 8183   0.974   6.459   3.426
 2740TIP3    H1 8184   0.950   6.400   3.354
 2740TIP3    H2 8185   1.030   6.525   3.385
 2741TIP3   OH2 8186   3.148   2.170   1.940
 2741TIP3    H1 8187   3.104   2.157   1.856
 2741TIP3    H2 8188   3.133   2.262   1.962
 2742TIP3   OH2 8189   3.343   4.344   1.982
 2742TIP3    H1 8190   3.253   4.336   2.013
 2742TIP3    H2 8191   3.354   4.437   1.963
 2743TIP3   OH2 8192   5.622   2.763   3.071
 2743TIP3    H1 8193   5.634   2.829   3.003
 2743TIP3    H2 8194   5.546   2.712   3.043
 2744TIP3   OH2 8195   3.030   1.298   5.674
 2744TIP3    H1 8196   3.113   1.254   5.692
 2744TIP3    H2 8197   3.033   1.316   5.580
 2745TIP3   OH2 8198   6.599   0.449   3.082
 2745TIP3    H1 8199   6.593   0.537   3.119
 2745TIP3    H2 8200   6.513   0.410   3.097
 2746TIP3   OH2 8201   6.236   4.564   0.813
 2746TIP3    H1 8202   6.259   4.633   0.750
 2746TIP3    H2 8203   6.289   4.584   0.890
 2747TIP3   OH2 8204   1.232   4.249   5.303
 2747TIP3    H1 8205   1.177   4.172   5.317
 2747TIP3    H2 8206   1.182   4.303   5.241
 2748TIP3   OH2 8207   3.906   4.975   5.235
 2748TIP3    H1 8208   3.992   4.952   5.270
 2748TIP3    H2 8209   3.925   5.043   5.170
 2749TIP3   OH2 8210   6.917   2.737   5.234
 2749TIP3    H1 8211   6.822   2.746   5.242
 2749TIP3    H2 8212   6.938   2.783   5.153
 2750TIP3   OH2 8213   0.406   6.047   1.797
 2750TIP3    H1 8214   0.384   6.113   1.732
 2750TIP3    H2 8215   0.502   6.049   1.802
 2751TIP3   OH2 8216   2.805   5.999   1.752
 2751TIP3    H1 8217   2.714   6.002   1.780
 2751TIP3    H2 8218   2.801   5.980   1.658
 2752TIP3   OH2 8219   1.248   0.296   0.615
 2752TIP3    H1 8220   1.269   0.380   0.574
 2752TIP3    H2 8221   1.195   0.320   0.692
 2753TIP3   OH2 8222   4.964   1.534   1.872
 2753TIP3    H1 8223   4.894   1.548   1.936
 2753TIP3    H2 8224   4.943   1.594   1.801
 2754TIP3   OH2 8225   6.407   5.249   3.439
 2754TIP3    H1 8226   6.364   5.239   3.354
 2754TIP3    H2 8227   6.501   5.242   3.419
 2755TIP3   OH2 8228   3.838   0.358   1.605
 2755TIP3    H1 8229   3.845   0.398   1.692
 2755TIP3    H2 8230   3.763   0.298   1.613
 2756TIP3   OH2 8231   4.292   3.947   5.415
 2756TIP3    H1 8232   4.370   3.961   5.361
 2756TIP3    H2 8233   4.311   3.993   5.496
 2757TIP3   OH2 8234   0.173   1.128   1.416
 2757TIP3    H1 8235   0.144   1.180   1.490
 2757TIP3    H2 8236   0.199   1.044   1.454
 2758TIP3   OH2 8237   1.381   1.211   4.288
 2758TIP3    H1 8238   1.348   1.268   4.357
 2758TIP3    H2 8239   1.331   1.236   4.210
 2759TIP3   OH2 8240   3.099   2.360   3.246
 2759TIP3    H1 8241   3.004   2.361   3.238
 2759TIP3    H2 8242   3.127   2.438   3.198
 2760TIP3   OH2 8243   2.694   2.691   2.729
 2760TIP3    H1 8244   2.735   2.761   2.678
 2760TIP3    H2 8245   2.600   2.702   2.714
 2761TIP3   OH2 8246   2.540   1.790   2.117
 2761TIP3    H1 8247   2.617   1.752   2.161
 2761TIP3    H2 8248   2.531   1.877   2.157
 2762TIP3   OH2 8249   2.999   0.607   5.544
 2762TIP3    H1 8250   2.996   0.512   5.532
 2762TIP3    H2 8251   2.974   0.642   5.459
 2763TIP3   OH2 8252   2.587   5.132   0.870
 2763TIP3    H1 8253   2.599   5.138   0.965
 2763TIP3    H2 8254   2.498   5.099   0.859
 2764TIP3   OH2 8255   4.765   4.717   4.523
 2764TIP3    H1 8256   4.859   4.702   4.537
 2764TIP3    H2 8257   4.727   4.714   4.610
 2765TIP3   OH2 8258   6.752   3.014   5.361
 2765TIP3    H1 8259   6.790   2.969   5.437
 2765TIP3    H2 8260   6.708   2.945   5.312
 2766TIP3   OH2 8261   3.112   0.148   4.189
 2766TIP3    H1 8262   3.128   0.178   4.099
 2766TIP3    H2 8263   3.184   0.086   4.206
 2767TIP3   OH2 8264   1.233   2.218   4.920
 2767TIP3    H1 8265   1.228   2.126   4.894
 2767TIP3    H2 8266   1.154   2.257   4.884
 2768TIP3   OH2 8267   2.995   2.032   2.329
 2768TIP3    H1 8268   3.063   2.018   2.264
 2768TIP3    H2 8269   2.942   2.105   2.294
 2769TIP3   OH2 8270   1.480   1.240   4.751
 2769TIP3    H1 8271   1.575   1.230   4.750
 2769TIP3    H2 8272   1.465   1.323   4.797
 2770TIP3   OH2 8273   0.589   3.564   1.048
 2770TIP3    H1 8274   0.498   3.535   1.036
 2770TIP3    H2 8275   0.590   3.654   1.018
 2771TIP3   OH2 8276   2.305   0.636   2.947
 2771TIP3    H1 8277   2.244   0.662   2.877
 2771TIP3    H2 8278   2.248   0.604   3.017
 2772TIP3   OH2 8279   0.840   4.127   1.937
 2772TIP3    H1 8280   0.781   4.186   1.890
 2772TIP3    H2 8281   0.924   4.173   1.938
 2773TIP3   OH2 8282   2.551   4.566   3.417
 2773TIP3    H1 8283   2.531   4.538   3.327
 2773TIP3    H2 8284   2.571   4.485   3.463
 2774TIP3   OH2 8285   4.923   1.705   0.638
 2774TIP3    H1 8286   4.966   1.677   0.557
 2774TIP3    H2 8287   4.841   1.655   0.639
 2775TIP3   OH2 8288   1.284   2.106   3.367
 2775TIP3    H1 8289   1.312   2.044   3.435
 2775TIP3    H2 8290   1.199   2.138   3.398
 2776TIP3   OH2 8291   6.890   1.067   3.788
 2776TIP3    H1 8292   6.966   1.125   3.782
 2776TIP3    H2 8293   6.815   1.126   3.780
 2777TIP3   OH2 8294   6.520   6.606   5.363
 2777TIP3    H1 8295   6.571   6.525   5.358
 2777TIP3    H2 8296   6.437   6.586   5.320
 2778TIP3   OH2 8297   7.041   2.288   3.855
 2778TIP3    H1 8298   7.030   2.208   3.803
 2778TIP3    H2 8299   7.114   2.334   3.814
 2779TIP3   OH2 8300   0.777   4.500   2.109
 2779TIP3    H1 8301   0.861   4.458   2.128
 2779TIP3    H2 8302   0.725   4.432   2.066
 2780TIP3   OH2 8303   4.641   5.951   3.112
 2780TIP3    H1 8304   4.575   5.882   3.107
 2780TIP3    H2 8305   4.651   5.982   3.022
 2781TIP3   OH2 8306   3.146   5.325   2.055
 2781TIP3    H1 8307   3.132   5.296   2.145
 2781TIP3    H2 8308   3.111   5.415   2.053
 2782TIP3   OH2 8309   2.978   1.464   3.988
 2782TIP3    H1 8310   2.977   1.521   4.065
 2782TIP3    H2 8311   3.022   1.515   3.921
 2783TIP3   OH2 8312   0.802   6.053   1.488
 2783TIP3    H1 8313   0.813   5.974   1.436
 2783TIP3    H2 8314   0.875   6.110   1.462
 2784TIP3   OH2 8315   3.114   3.186   5.180
 2784TIP3    H1 8316   3.037   3.173   5.124
 2784TIP3    H2 8317   3.122   3.105   5.229
 2785TIP3   OH2 8318   2.894   5.749   3.662
 2785TIP3    H1 8319   2.957   5.806   3.706
 2785TIP3    H2 8320   2.946   5.674   3.633
 2786TIP3   OH2 8321   6.222   5.073   1.357
 2786TIP3    H1 8322   6.252   5.139   1.294
 2786TIP3    H2 8323   6.269   5.093   1.437
 2787TIP3   OH2 8324   2.602   0.625   3.655
 2787TIP3    H1 8325   2.670   0.562   3.630
 2787TIP3    H2 8326   2.565   0.654   3.571
 2788TIP3   OH2 8327   0.567   3.274   5.751
 2788TIP3    H1 8328   0.543   3.254   5.660
 2788TIP3    H2 8329   0.487   3.308   5.790
 2789TIP3   OH2 8330   0.324   1.156   4.515
 2789TIP3    H1 8331   0.253   1.126   4.572
 2789TIP3    H2 8332   0.357   1.235   4.558
 2790TIP3   OH2 8333   3.637   6.328   2.981
 2790TIP3    H1 8334   3.724   6.362   2.961
 2790TIP3    H2 8335   3.584   6.406   3.001
 2791TIP3   OH2 8336   2.776   1.242   0.434
 2791TIP3    H1 8337   2.686   1.211   0.425
 2791TIP3    H2 8338   2.770   1.317   0.494
 2792TIP3   OH2 8339   1.362   5.396   4.141
 2792TIP3    H1 8340   1.411   5.416   4.061
 2792TIP3    H2 8341   1.405   5.447   4.209
 2793TIP3   OH2 8342   5.921   0.533   3.547
 2793TIP3    H1 8343   5.868   0.455   3.561
 2793TIP3    H2 8344   5.883   0.575   3.471
 2794TIP3   OH2 8345   5.633   4.978   1.690
 2794TIP3    H1 8346   5.609   4.969   1.598
 2794TIP3    H2 8347   5.583   5.054   1.721
 2795TIP3   OH2 8348   2.822   1.080   4.935
 2795TIP3    H1 8349   2.914   1.089   4.961
 2795TIP3    H2 8350   2.822   1.009   4.871
 2796TIP3   OH2 8351   3.319   4.278   2.673
 2796TIP3    H1 8352   3.238   4.253   2.716
 2796TIP3    H2 8353   3.383   4.285   2.744
 2797TIP3   OH2 8354   0.728   6.453   2.881
 2797TIP3    H1 8355   0.718   6.436   2.975
 2797TIP3    H2 8356   0.820   6.477   2.871
 2798TIP3   OH2 8357   0.511   3.933   3.384
 2798TIP3    H1 8358   0.490   3.926   3.477
 2798TIP3    H2 8359   0.496   3.845   3.349
 2799TIP3   OH2 8360   2.419   1.770   5.283
 2799TIP3    H1 8361   2.377   1.800   5.202
 2799TIP3    H2 8362   2.470   1.845   5.313
 2800TIP3   OH2 8363   4.686   2.002   4.554
 2800TIP3    H1 8364   4.660   2.087   4.590
 2800TIP3    H2 8365   4.640   1.996   4.471
 2801TIP3   OH2 8366   0.330   0.901   0.155
 2801TIP3    H1 8367   0.281   0.928   0.078
 2801TIP3    H2 8368   0.291   0.950   0.227
 2802TIP3   OH2 8369   5.575   0.435   2.595
 2802TIP3    H1 8370   5.647   0.397   2.646
 2802TIP3    H2 8371   5.506   0.452   2.660
 2803TIP3   OH2 8372   3.062   2.676   2.517
 2803TIP3    H1 8373   2.995   2.736   2.550
 2803TIP3    H2 8374   3.040   2.662   2.425
 2804TIP3   OH2 8375   6.411   1.733   4.298
 2804TIP3    H1 8376   6.497   1.710   4.332
 2804TIP3    H2 8377   6.416   1.715   4.204
 2805TIP3   OH2 8378   5.007   2.559   4.369
 2805TIP3    H1 8379   5.066   2.594   4.435
 2805TIP3    H2 8380   4.977   2.476   4.405
 2806TIP3   OH2 8381   2.875   5.882   3.003
 2806TIP3    H1 8382   2.870   5.805   2.947
 2806TIP3    H2 8383   2.786   5.917   3.005
 2807TIP3   OH2 8384   5.849   3.867   0.994
 2807TIP3    H1 8385   5.768   3.835   1.034
 2807TIP3    H2 8386   5.878   3.795   0.937
 2808TIP3   OH2 8387   5.885   0.560   4.501
 2808TIP3    H1 8388   5.872   0.629   4.436
 2808TIP3    H2 8389   5.921   0.606   4.577
 2809TIP3   OH2 8390   5.165   3.150   3.650
 2809TIP3    H1 8391   5.165   3.224   3.710
 2809TIP3    H2 8392   5.257   3.126   3.641
 2810TIP3   OH2 8393   0.080   6.587   0.418
 2810TIP3    H1 8394   0.008   6.649   0.411
 2810TIP3    H2 8395   0.089   6.551   0.330
 2811TIP3   OH2 8396   0.497   2.899   4.758
 2811TIP3    H1 8397   0.426   2.928   4.700
 2811TIP3    H2 8398   0.475   2.808   4.779
 2812TIP3   OH2 8399   2.500   1.173   0.351
 2812TIP3    H1 8400   2.523   1.132   0.267
 2812TIP3    H2 8401   2.411   1.143   0.368
 2813TIP3   OH2 8402   2.667   1.572   2.352
 2813TIP3    H1 8403   2.720   1.651   2.358
 2813TIP3    H2 8404   2.595   1.586   2.414
 2814TIP3   OH2 8405   0.227   1.524   1.148
 2814TIP3    H1 8406   0.160   1.591   1.165
 2814TIP3    H2 8407   0.252   1.494   1.235
 2815TIP3   OH2 8408   1.923   3.029   2.849
 2815TIP3    H1 8409   1.999   2.975   2.873
 2815TIP3    H2 8410   1.872   3.036   2.930
 2816TIP3   OH2 8411   2.941   4.239   3.110
 2816TIP3    H1 8412   3.022   4.280   3.140
 2816TIP3    H2 8413   2.969   4.152   3.079
 2817TIP3   OH2 8414   1.831   2.735   0.541
 2817TIP3    H1 8415   1.850   2.642   0.553
 2817TIP3    H2 8416   1.908   2.771   0.498
 2818TIP3   OH2 8417   1.381   5.306   4.497
 2818TIP3    H1 8418   1.379   5.382   4.438
 2818TIP3    H2 8419   1.291   5.298   4.528
 2819TIP3   OH2 8420   6.205   3.979   5.044
 2819TIP3    H1 8421   6.263   4.054   5.061
 2819TIP3    H2 8422   6.151   4.007   4.970
 2820TIP3   OH2 8423   1.445   0.371   3.146
 2820TIP3    H1 8424   1.434   0.362   3.240
 2820TIP3    H2 8425   1.524   0.322   3.125
 2821TIP3   OH2 8426   0.634   5.350   5.509
 2821TIP3    H1 8427   0.679   5.433   5.492
 2821TIP3    H2 8428   0.564   5.373   5.570
 2822TIP3   OH2 8429   4.213   4.611   1.882
 2822TIP3    H1 8430   4.236   4.522   1.907
 2822TIP3    H2 8431   4.143   4.635   1.944
 2823TIP3   OH2 8432   4.569   6.792   4.317
 2823TIP3    H1 8433   4.528   6.739   4.386
 2823TIP3    H2 8434   4.633   6.846   4.363
 2824TIP3   OH2 8435   1.698   6.306   1.302
 2824TIP3    H1 8436   1.775   6.288   1.356
 2824TIP3    H2 8437   1.726   6.284   1.213
 2825TIP3   OH2 8438   5.036   4.969   1.519
 2825TIP3    H1 8439   5.047   5.063   1.506
 2825TIP3    H2 8440   5.023   4.934   1.431
 2826TIP3   OH2 8441   5.023   0.227   4.680
 2826TIP3    H1 8442   5.006   0.133   4.682
 2826TIP3    H2 8443   5.053   0.244   4.591
 2827TIP3   OH2 8444   3.410   3.775   1.860
 2827TIP3    H1 8445   3.490   3.824   1.876
 2827TIP3    H2 8446   3.431   3.719   1.784
 2828TIP3   OH2 8447   0.519   3.618   3.042
 2828TIP3    H1 8448   0.532   3.583   3.130
 2828TIP3    H2 8449   0.453   3.686   3.054
 2829TIP3   OH2 8450   5.512   0.939   0.219
 2829TIP3    H1 8451   5.551   0.991   0.290
 2829TIP3    H2 8452   5.470   0.865   0.264
 2830TIP3   OH2 8453   0.418   5.924   4.888
 2830TIP3    H1 8454   0.414   5.895   4.979
 2830TIP3    H2 8455   0.512   5.936   4.872
 2831TIP3   OH2 8456   4.837   1.613   5.547
 2831TIP3    H1 8457   4.745   1.628   5.564
 2831TIP3    H2 8458   4.879   1.697   5.566
 2832TIP3   OH2 8459   0.607   3.243   4.423
 2832TIP3    H1 8460   0.624   3.170   4.364
 2832TIP3    H2 8461   0.653   3.221   4.503
 2833TIP3   OH2 8462   0.450   0.035   0.894
 2833TIP3    H1 8463   0.398  -0.044   0.875
 2833TIP3    H2 8464   0.540   0.004   0.901
 2834TIP3   OH2 8465   1.597   4.492   2.235
 2834TIP3    H1 8466   1.534   4.524   2.299
 2834TIP3    H2 8467   1.676   4.474   2.287
 2835TIP3   OH2 8468   0.302   2.183   1.820
 2835TIP3    H1 8469   0.300   2.120   1.893
 2835TIP3    H2 8470   0.277   2.266   1.859
 2836TIP3   OH2 8471   0.733   3.048   4.937
 2836TIP3    H1 8472   0.643   3.082   4.927
 2836TIP3    H2 8473   0.781   3.120   4.978
 2837TIP3   OH2 8474   4.459   3.471   1.172
 2837TIP3    H1 8475   4.431   3.519   1.250
 2837TIP3    H2 8476   4.465   3.380   1.201
 2838TIP3   OH2 8477   0.092   3.229   5.045
 2838TIP3    H1 8478   0.128   3.141   5.061
 2838TIP3    H2 8479   0.021   3.237   5.108
 2839TIP3   OH2 8480   4.492   4.731   0.494
 2839TIP3    H1 8481   4.447   4.647   0.492
 2839TIP3    H2 8482   4.569   4.718   0.439
 2840TIP3   OH2 8483   4.904   1.480   3.529
 2840TIP3    H1 8484   4.900   1.385   3.542
 2840TIP3    H2 8485   4.961   1.492   3.453
 2841TIP3   OH2 8486   3.552   1.523   3.513
 2841TIP3    H1 8487   3.523   1.522   3.422
 2841TIP3    H2 8488   3.641   1.558   3.510
 2842TIP3   OH2 8489   5.337   3.081   5.047
 2842TIP3    H1 8490   5.377   3.128   4.973
 2842TIP3    H2 8491   5.407   3.075   5.112
 2843TIP3   OH2 8492   2.050   1.949   0.799
 2843TIP3    H1 8493   1.992   1.876   0.779
 2843TIP3    H2 8494   1.991   2.023   0.816
 2844TIP3   OH2 8495   0.311   4.486   4.395
 2844TIP3    H1 8496   0.259   4.565   4.411
 2844TIP3    H2 8497   0.360   4.505   4.315
 2845TIP3   OH2 8498   4.095   5.433   3.141
 2845TIP3    H1 8499   4.053   5.516   3.164
 2845TIP3    H2 8500   4.030   5.389   3.086
 2846TIP3   OH2 8501   1.771   2.042   3.248
 2846TIP3    H1 8502   1.842   2.029   3.185
 2846TIP3    H2 8503   1.788   1.979   3.317
 2847TIP3   OH2 8504   4.396   3.697   4.373
 2847TIP3    H1 8505   4.376   3.633   4.305
 2847TIP3    H2 8506   4.367   3.655   4.454
 2848TIP3   OH2 8507   7.167   1.937   5.332
 2848TIP3    H1 8508   7.080   1.915   5.365
 2848TIP3    H2 8509   7.151   1.969   5.243
 2849TIP3   OH2 8510   1.782   3.235   4.662
 2849TIP3    H1 8511   1.858   3.225   4.719
 2849TIP3    H2 8512   1.738   3.150   4.664
 2850TIP3   OH2 8513   0.433   3.326   4.047
 2850TIP3    H1 8514   0.402   3.306   3.958
 2850TIP3    H2 8515   0.377   3.274   4.104
 2851TIP3   OH2 8516   4.701   0.481   2.049
 2851TIP3    H1 8517   4.620   0.431   2.040
 2851TIP3    H2 8518   4.674   0.565   2.085
 2852TIP3   OH2 8519   3.150   4.110   1.529
 2852TIP3    H1 8520   3.185   4.131   1.443
 2852TIP3    H2 8521   3.131   4.195   1.569
 2853TIP3   OH2 8522   0.471   1.033   0.812
 2853TIP3    H1 8523   0.533   1.099   0.783
 2853TIP3    H2 8524   0.386   1.076   0.811
 2854TIP3   OH2 8525   6.062   0.561   5.028
 2854TIP3    H1 8526   6.000   0.488   5.031
 2854TIP3    H2 8527   6.041   0.607   4.947
 2855TIP3   OH2 8528   3.664   5.305   3.952
 2855TIP3    H1 8529   3.654   5.341   4.040
 2855TIP3    H2 8530   3.616   5.365   3.895
 2856TIP3   OH2 8531   2.997   3.035   0.586
 2856TIP3    H1 8532   3.052   3.045   0.664
 2856TIP3    H2 8533   2.994   3.123   0.547
 2857TIP3   OH2 8534   0.811   0.692   3.171
 2857TIP3    H1 8535   0.787   0.623   3.233
 2857TIP3    H2 8536   0.902   0.673   3.148
 2858TIP3   OH2 8537   1.071   3.791   3.036
 2858TIP3    H1 8538   1.031   3.876   3.053
 2858TIP3    H2 8539   1.157   3.812   2.999
 2859TIP3   OH2 8540   6.578   2.134   1.452
 2859TIP3    H1 8541   6.527   2.165   1.527
 2859TIP3    H2 8542   6.516   2.135   1.379
 2860TIP3   OH2 8543   2.612   6.767   0.636
 2860TIP3    H1 8544   2.621   6.802   0.725
 2860TIP3    H2 8545   2.560   6.687   0.647
 2861TIP3   OH2 8546   5.149   0.352   1.996
 2861TIP3    H1 8547   5.123   0.275   2.046
 2861TIP3    H2 8548   5.244   0.353   2.000
 2862TIP3   OH2 8549   3.553   2.156   3.879
 2862TIP3    H1 8550   3.616   2.213   3.923
 2862TIP3    H2 8551   3.488   2.216   3.841
 2863TIP3   OH2 8552   2.313   0.409   5.169
 2863TIP3    H1 8553   2.345   0.482   5.117
 2863TIP3    H2 8554   2.375   0.339   5.153
 2864TIP3   OH2 8555   0.558   2.742   5.129
 2864TIP3    H1 8556   0.499   2.796   5.182
 2864TIP3    H2 8557   0.645   2.775   5.150
 2865TIP3   OH2 8558   4.163   6.535   2.191
 2865TIP3    H1 8559   4.196   6.456   2.234
 2865TIP3    H2 8560   4.071   6.540   2.217
 2866TIP3   OH2 8561   0.684   5.881   0.123
 2866TIP3    H1 8562   0.648   5.801   0.084
 2866TIP3    H2 8563   0.769   5.891   0.082
 2867TIP3   OH2 8564   2.358   3.972   2.791
 2867TIP3    H1 8565   2.274   4.006   2.822
 2867TIP3    H2 8566   2.335   3.899   2.734
 2868TIP3   OH2 8567   0.340   0.066   1.345
 2868TIP3    H1 8568   0.344  -0.023   1.310
 2868TIP3    H2 8569   0.416   0.110   1.309
 2869TIP3   OH2 8570   5.716   0.518   1.437
 2869TIP3    H1 8571   5.713   0.498   1.343
 2869TIP3    H2 8572   5.724   0.613   1.441
 2870TIP3   OH2 8573   3.243   5.802   5.582
 2870TIP3    H1 8574   3.263   5.895   5.597
 2870TIP3    H2 8575   3.281   5.757   5.658
 2871TIP3   OH2 8576   5.908   4.025   4.128
 2871TIP3    H1 8577   5.883   4.103   4.177
 2871TIP3    H2 8578   5.904   4.053   4.036
 2872TIP3   OH2 8579   3.566   5.359   0.443
 2872TIP3    H1 8580   3.565   5.394   0.354
 2872TIP3    H2 8581   3.655   5.377   0.474
 2873TIP3   OH2 8582   5.209   5.758   4.881
 2873TIP3    H1 8583   5.267   5.696   4.926
 2873TIP3    H2 8584   5.268   5.827   4.849
 2874TIP3   OH2 8585   2.586   2.503   2.992
 2874TIP3    H1 8586   2.503   2.547   3.009
 2874TIP3    H2 8587   2.583   2.424   3.045
 2875TIP3   OH2 8588   1.056   1.089   0.810
 2875TIP3    H1 8589   1.011   1.034   0.875
 2875TIP3    H2 8590   1.089   1.027   0.745
 2876TIP3   OH2 8591   2.720   5.045   1.580
 2876TIP3    H1 8592   2.676   5.098   1.646
 2876TIP3    H2 8593   2.780   5.106   1.536
 2877TIP3   OH2 8594   5.208   5.524   2.380
 2877TIP3    H1 8595   5.202   5.429   2.392
 2877TIP3    H2 8596   5.220   5.536   2.286
 2878TIP3   OH2 8597   3.298   3.634   3.698
 2878TIP3    H1 8598   3.341   3.714   3.668
 2878TIP3    H2 8599   3.246   3.662   3.774
 2879TIP3   OH2 8600   5.019   4.696   5.572
 2879TIP3    H1 8601   5.094   4.712   5.515
 2879TIP3    H2 8602   5.029   4.758   5.644
 2880TIP3   OH2 8603   6.741   6.199   0.202
 2880TIP3    H1 8604   6.660   6.238   0.236
 2880TIP3    H2 8605   6.730   6.105   0.217
 2881TIP3   OH2 8606   2.205   5.278   5.412
 2881TIP3    H1 8607   2.288   5.243   5.379
 2881TIP3    H2 8608   2.161   5.312   5.334
 2882TIP3   OH2 8609   6.198   3.161   4.865
 2882TIP3    H1 8610   6.250   3.150   4.944
 2882TIP3    H2 8611   6.113   3.121   4.886
 2883TIP3   OH2 8612   2.063   3.889   5.165
 2883TIP3    H1 8613   2.009   3.878   5.243
 2883TIP3    H2 8614   2.016   3.955   5.113
 2884TIP3   OH2 8615   2.249   4.233   1.813
 2884TIP3    H1 8616   2.190   4.168   1.774
 2884TIP3    H2 8617   2.305   4.183   1.871
 2885TIP3   OH2 8618   0.975   0.058   5.883
 2885TIP3    H1 8619   0.913  -0.002   5.841
 2885TIP3    H2 8620   0.953   0.052   5.976
 2886TIP3   OH2 8621   6.477   0.663   4.637
 2886TIP3    H1 8622   6.472   0.755   4.663
 2886TIP3    H2 8623   6.387   0.631   4.642
 2887TIP3   OH2 8624   5.590   6.221   0.282
 2887TIP3    H1 8625   5.507   6.191   0.319
 2887TIP3    H2 8626   5.623   6.285   0.346
 2888TIP3   OH2 8627   2.498   1.026   4.107
 2888TIP3    H1 8628   2.440   0.961   4.148
 2888TIP3    H2 8629   2.442   1.071   4.044
 2889TIP3   OH2 8630   4.322   4.118   5.632
 2889TIP3    H1 8631   4.387   4.173   5.589
 2889TIP3    H2 8632   4.373   4.049   5.674
 2890TIP3   OH2 8633   7.101   5.066   2.273
 2890TIP3    H1 8634   7.133   4.980   2.301
 2890TIP3    H2 8635   7.006   5.056   2.268
 2891TIP3   OH2 8636   6.163   3.812   5.263
 2891TIP3    H1 8637   6.188   3.866   5.338
 2891TIP3    H2 8638   6.166   3.871   5.188
 2892TIP3   OH2 8639   4.180   1.375   0.907
 2892TIP3    H1 8640   4.207   1.412   0.823
 2892TIP3    H2 8641   4.113   1.310   0.885
 2893TIP3   OH2 8642   2.791   1.066   1.908
 2893TIP3    H1 8643   2.854   1.100   1.844
 2893TIP3    H2 8644   2.706   1.081   1.867
 2894TIP3   OH2 8645   6.218   2.209   3.975
 2894TIP3    H1 8646   6.150   2.223   4.040
 2894TIP3    H2 8647   6.246   2.297   3.950
 2895TIP3   OH2 8648   5.557   0.867   1.463
 2895TIP3    H1 8649   5.490   0.935   1.453
 2895TIP3    H2 8650   5.559   0.850   1.557
 2896TIP3   OH2 8651   4.494   0.565   0.352
 2896TIP3    H1 8652   4.453   0.634   0.404
 2896TIP3    H2 8653   4.421   0.512   0.320
 2897TIP3   OH2 8654   3.994   2.368   0.920
 2897TIP3    H1 8655   3.959   2.362   0.831
 2897TIP3    H2 8656   3.970   2.285   0.960
 2898TIP3   OH2 8657   6.167   2.431   2.365
 2898TIP3    H1 8658   6.109   2.476   2.304
 2898TIP3    H2 8659   6.128   2.449   2.451
 2899TIP3   OH2 8660   3.504   3.133   2.347
 2899TIP3    H1 8661   3.579   3.155   2.292
 2899TIP3    H2 8662   3.522   3.177   2.430
 2900TIP3   OH2 8663   2.099   4.884   4.514
 2900TIP3    H1 8664   2.168   4.948   4.499
 2900TIP3    H2 8665   2.021   4.936   4.533
 2901TIP3   OH2 8666   4.691   6.027   4.102
 2901TIP3    H1 8667   4.653   6.015   4.190
 2901TIP3    H2 8668   4.652   5.957   4.050
 2902TIP3   OH2 8669   3.914   4.107   0.644
 2902TIP3    H1 8670   3.943   4.021   0.675
 2902TIP3    H2 8671   3.876   4.089   0.558
 2903TIP3   OH2 8672   6.071   4.526   4.219
 2903TIP3    H1 8673   6.014   4.456   4.186
 2903TIP3    H2 8674   6.159   4.490   4.211
 2904TIP3   OH2 8675   3.297   1.199   2.849
 2904TIP3    H1 8676   3.344   1.180   2.768
 2904TIP3    H2 8677   3.264   1.288   2.838
 2905TIP3   OH2 8678   6.532   1.484   4.389
 2905TIP3    H1 8679   6.593   1.557   4.398
 2905TIP3    H2 8680   6.531   1.465   4.295
 2906TIP3   OH2 8681   5.903   6.712   2.339
 2906TIP3    H1 8682   5.946   6.627   2.327
 2906TIP3    H2 8683   5.973   6.776   2.328
 2907TIP3   OH2 8684   1.478   4.153   1.401
 2907TIP3    H1 8685   1.566   4.167   1.367
 2907TIP3    H2 8686   1.466   4.220   1.467
 2908TIP3   OH2 8687   2.743   3.966   3.987
 2908TIP3    H1 8688   2.831   3.935   3.966
 2908TIP3    H2 8689   2.757   4.031   4.056
 2909TIP3   OH2 8690   0.630   3.223   2.576
 2909TIP3    H1 8691   0.647   3.184   2.663
 2909TIP3    H2 8692   0.572   3.297   2.594
 2910TIP3   OH2 8693   2.907   2.234   0.378
 2910TIP3    H1 8694   2.918   2.189   0.294
 2910TIP3    H2 8695   2.903   2.165   0.443
 2911TIP3   OH2 8696   0.997   0.920   3.016
 2911TIP3    H1 8697   1.000   0.987   3.084
 2911TIP3    H2 8698   1.084   0.880   3.017
 2912TIP3   OH2 8699   0.408   5.487   4.080
 2912TIP3    H1 8700   0.469   5.561   4.078
 2912TIP3    H2 8701   0.345   5.506   4.010
 2913TIP3   OH2 8702   4.304   5.859   5.258
 2913TIP3    H1 8703   4.220   5.856   5.304
 2913TIP3    H2 8704   4.363   5.904   5.318
 2914TIP3   OH2 8705   1.336   5.613   1.671
 2914TIP3    H1 8706   1.304   5.644   1.587
 2914TIP3    H2 8707   1.258   5.576   1.714
 2915TIP3   OH2 8708   6.740   2.259   4.843
 2915TIP3    H1 8709   6.732   2.349   4.811
 2915TIP3    H2 8710   6.768   2.269   4.935
 2916TIP3   OH2 8711   0.909   1.865   3.216
 2916TIP3    H1 8712   1.001   1.883   3.196
 2916TIP3    H2 8713   0.884   1.796   3.155
 2917TIP3   OH2 8714   5.330   5.079   5.222
 2917TIP3    H1 8715   5.256   5.138   5.213
 2917TIP3    H2 8716   5.318   5.014   5.153
 2918TIP3   OH2 8717   7.084   4.130   5.451
 2918TIP3    H1 8718   7.150   4.154   5.516
 2918TIP3    H2 8719   7.021   4.202   5.452
 2919TIP3   OH2 8720   3.845   4.088   0.394
 2919TIP3    H1 8721   3.854   4.157   0.328
 2919TIP3    H2 8722   3.751   4.070   0.397
 2920TIP3   OH2 8723   2.354   1.319   2.325
 2920TIP3    H1 8724   2.420   1.334   2.392
 2920TIP3    H2 8725   2.353   1.400   2.274
 2921TIP3   OH2 8726   6.906   1.359   4.916
 2921TIP3    H1 8727   6.995   1.350   4.881
 2921TIP3    H2 8728   6.857   1.403   4.847
 2922TIP3   OH2 8729   4.394   0.599   1.913
 2922TIP3    H1 8730   4.467   0.556   1.869
 2922TIP3    H2 8731   4.409   0.692   1.900
 2923TIP3   OH2 8732   2.327   3.213   1.044
 2923TIP3    H1 8733   2.416   3.207   1.008
 2923TIP3    H2 8734   2.270   3.205   0.967
 2924TIP3   OH2 8735   1.409   3.992   0.237
 2924TIP3    H1 8736   1.329   3.948   0.266
 2924TIP3    H2 8737   1.451   4.021   0.318
 2925TIP3   OH2 8738   2.745   2.072   3.311
 2925TIP3    H1 8739   2.679   2.011   3.343
 2925TIP3    H2 8740   2.759   2.133   3.383
 2926TIP3   OH2 8741   0.434   5.303   2.877
 2926TIP3    H1 8742   0.400   5.247   2.807
 2926TIP3    H2 8743   0.440   5.246   2.953
 2927TIP3   OH2 8744   0.579   1.873   1.043
 2927TIP3    H1 8745   0.602   1.929   0.969
 2927TIP3    H2 8746   0.605   1.785   1.016
 2928TIP3   OH2 8747   5.225   0.638   2.039
 2928TIP3    H1 8748   5.290   0.568   2.047
 2928TIP3    H2 8749   5.148   0.604   2.085
 2929TIP3   OH2 8750   4.545   1.294   2.853
 2929TIP3    H1 8751   4.473   1.254   2.804
 2929TIP3    H2 8752   4.583   1.358   2.793
 2930TIP3   OH2 8753   1.495   0.288   0.731
 2930TIP3    H1 8754   1.481   0.252   0.819
 2930TIP3    H2 8755   1.408   0.291   0.692
 2931TIP3   OH2 8756   5.738   1.147   2.465
 2931TIP3    H1 8757   5.743   1.214   2.533
 2931TIP3    H2 8758   5.824   1.105   2.465
 2932TIP3   OH2 8759   4.194   2.204   1.910
 2932TIP3    H1 8760   4.268   2.159   1.950
 2932TIP3    H2 8761   4.140   2.231   1.984
 2933TIP3   OH2 8762   4.092   0.610   3.877
 2933TIP3    H1 8763   4.117   0.566   3.958
 2933TIP3    H2 8764   4.041   0.686   3.905
 2934TIP3   OH2 8765   5.333   4.500   2.076
 2934TIP3    H1 8766   5.317   4.470   2.165
 2934TIP3    H2 8767   5.308   4.593   2.077
 2935TIP3   OH2 8768   3.156   1.920   1.132
 2935TIP3    H1 8769   3.171   1.834   1.172
 2935TIP3    H2 8770   3.234   1.971   1.155
 2936TIP3   OH2 8771   0.400   1.766   0.767
 2936TIP3    H1 8772   0.405   1.786   0.674
 2936TIP3    H2 8773   0.456   1.831   0.809
 2937TIP3   OH2 8774   6.904   2.395   3.570
 2937TIP3    H1 8775   6.864   2.371   3.487
 2937TIP3    H2 8776   6.831   2.405   3.631
 2938TIP3   OH2 8777   1.485   2.965   0.325
 2938TIP3    H1 8778   1.395   2.955   0.297
 2938TIP3    H2 8779   1.505   2.885   0.374
 2939TIP3   OH2 8780   4.015   5.682   1.393
 2939TIP3    H1 8781   3.981   5.622   1.460
 2939TIP3    H2 8782   4.083   5.732   1.439
 2940TIP3   OH2 8783   2.468   5.813   5.324
 2940TIP3    H1 8784   2.526   5.779   5.392
 2940TIP3    H2 8785   2.398   5.748   5.317
 2941TIP3   OH2 8786   2.883   5.265   0.447
 2941TIP3    H1 8787   2.850   5.324   0.379
 2941TIP3    H2 8788   2.816   5.269   0.516
 2942TIP3   OH2 8789   4.845   3.790   5.447
 2942TIP3    H1 8790   4.794   3.716   5.481
 2942TIP3    H2 8791   4.868   3.841   5.525
 2943TIP3   OH2 8792   2.141   3.542   4.892
 2943TIP3    H1 8793   2.138   3.448   4.910
 2943TIP3    H2 8794   2.126   3.549   4.798
 2944TIP3   OH2 8795   2.337   2.397   0.334
 2944TIP3    H1 8796   2.291   2.478   0.354
 2944TIP3    H2 8797   2.383   2.415   0.252
 2945TIP3   OH2 8798   0.079   3.918   1.466
 2945TIP3    H1 8799   0.075   4.005   1.425
 2945TIP3    H2 8800   0.000   3.913   1.519
 2946TIP3   OH2 8801   2.377   4.826   2.888
 2946TIP3    H1 8802   2.390   4.894   2.822
 2946TIP3    H2 8803   2.301   4.855   2.938
 2947TIP3   OH2 8804   1.805   6.746   4.041
 2947TIP3    H1 8805   1.724   6.773   3.997
 2947TIP3    H2 8806   1.776   6.698   4.119
 2948TIP3   OH2 8807   1.616   1.870   2.394
 2948TIP3    H1 8808   1.691   1.884   2.452
 2948TIP3    H2 8809   1.635   1.786   2.352
 2949TIP3   OH2 8810   5.493   2.150   3.258
 2949TIP3    H1 8811   5.576   2.198   3.266
 2949TIP3    H2 8812   5.515   2.073   3.206
 2950TIP3   OH2 8813   2.899   6.762   5.295
 2950TIP3    H1 8814   2.992   6.747   5.281
 2950TIP3    H2 8815   2.876   6.702   5.366
 2951TIP3   OH2 8816   3.107   5.555   1.462
 2951TIP3    H1 8817   3.118   5.546   1.557
 2951TIP3    H2 8818   3.180   5.505   1.425
 2952TIP3   OH2 8819   5.443   0.819   3.882
 2952TIP3    H1 8820   5.402   0.903   3.863
 2952TIP3    H2 8821   5.529   0.824   3.839
 2953TIP3   OH2 8822   4.566   4.806   0.042
 2953TIP3    H1 8823   4.485   4.855   0.055
 2953TIP3    H2 8824   4.633   4.856   0.088
 2954TIP3   OH2 8825   4.266   5.304   1.379
 2954TIP3    H1 8826   4.340   5.362   1.362
 2954TIP3    H2 8827   4.240   5.325   1.469
 2955TIP3   OH2 8828   6.093   5.606   2.329
 2955TIP3    H1 8829   6.155   5.660   2.279
 2955TIP3    H2 8830   6.011   5.614   2.281
 2956TIP3   OH2 8831   4.547   0.281   4.288
 2956TIP3    H1 8832   4.642   0.278   4.295
 2956TIP3    H2 8833   4.531   0.326   4.205
 2957TIP3   OH2 8834   1.132   4.227   2.581
 2957TIP3    H1 8835   1.199   4.293   2.601
 2957TIP3    H2 8836   1.145   4.209   2.487
 2958TIP3   OH2 8837   1.221   6.447   3.715
 2958TIP3    H1 8838   1.166   6.370   3.700
 2958TIP3    H2 8839   1.194   6.479   3.802
 2959TIP3   OH2 8840   4.523   0.220   5.274
 2959TIP3    H1 8841   4.537   0.256   5.361
 2959TIP3    H2 8842   4.592   0.154   5.264
 2960TIP3   OH2 8843   6.973   1.413   3.387
 2960TIP3    H1 8844   6.995   1.439   3.298
 2960TIP3    H2 8845   6.877   1.416   3.390
 2961TIP3   OH2 8846   1.253   5.550   0.609
 2961TIP3    H1 8847   1.176   5.566   0.664
 2961TIP3    H2 8848   1.325   5.543   0.670
 2962TIP3   OH2 8849   7.057   4.518   2.640
 2962TIP3    H1 8850   7.146   4.507   2.673
 2962TIP3    H2 8851   7.044   4.612   2.638
 2963TIP3   OH2 8852   2.827   2.390   3.190
 2963TIP3    H1 8853   2.775   2.464   3.220
 2963TIP3    H2 8854   2.765   2.334   3.144
 2964TIP3   OH2 8855   6.837   3.593   0.031
 2964TIP3    H1 8856   6.866   3.651   0.101
 2964TIP3    H2 8857   6.896   3.518   0.036
 2965TIP3   OH2 8858   6.691   6.704  -0.085
 2965TIP3    H1 8859   6.654   6.743  -0.164
 2965TIP3    H2 8860   6.626   6.723  -0.016
 2966TIP3   OH2 8861   0.737   5.713   4.698
 2966TIP3    H1 8862   0.686   5.632   4.697
 2966TIP3    H2 8863   0.780   5.715   4.613
 2967TIP3   OH2 8864   2.484   6.482   2.056
 2967TIP3    H1 8865   2.397   6.449   2.081
 2967TIP3    H2 8866   2.490   6.461   1.962
 2968TIP3   OH2 8867   7.094   1.450   4.024
 2968TIP3    H1 8868   7.180   1.413   4.004
 2968TIP3    H2 8869   7.112   1.520   4.087
 2969TIP3   OH2 8870   6.829   4.533   4.877
 2969TIP3    H1 8871   6.877   4.530   4.794
 2969TIP3    H2 8872   6.761   4.466   4.867
 2970TIP3   OH2 8873   5.766   6.383   2.943
 2970TIP3    H1 8874   5.749   6.310   2.885
 2970TIP3    H2 8875   5.768   6.460   2.886
 2971TIP3   OH2 8876   3.286   5.745   1.676
 2971TIP3    H1 8877   3.322   5.666   1.717
 2971TIP3    H2 8878   3.356   5.776   1.619
 2972TIP3   OH2 8879   7.130   3.637   0.351
 2972TIP3    H1 8880   7.067   3.703   0.322
 2972TIP3    H2 8881   7.210   3.657   0.302
 2973TIP3   OH2 8882   1.989   5.004   0.104
 2973TIP3    H1 8883   2.054   5.043   0.045
 2973TIP3    H2 8884   1.905   5.031   0.069
 2974TIP3   OH2 8885   0.045   1.545   3.276
 2974TIP3    H1 8886  -0.003   1.625   3.254
 2974TIP3    H2 8887   0.034   1.490   3.199
 2975TIP3   OH2 8888   0.238   2.572   0.056
 2975TIP3    H1 8889   0.158   2.529   0.087
 2975TIP3    H2 8890   0.240   2.556  -0.038
 2976TIP3   OH2 8891   2.112   4.325   5.458
 2976TIP3    H1 8892   2.031   4.297   5.500
 2976TIP3    H2 8893   2.181   4.278   5.505
 2977TIP3   OH2 8894   3.281   1.724   0.119
 2977TIP3    H1 8895   3.248   1.801   0.073
 2977TIP3    H2 8896   3.341   1.759   0.186
 2978TIP3   OH2 8897   3.746   6.719   5.018
 2978TIP3    H1 8898   3.796   6.737   5.097
 2978TIP3    H2 8899   3.797   6.652   4.972
 2979TIP3   OH2 8900   1.694   0.376   4.079
 2979TIP3    H1 8901   1.613   0.351   4.036
 2979TIP3    H2 8902   1.703   0.314   4.151
 2980TIP3   OH2 8903   5.796   1.873   4.399
 2980TIP3    H1 8904   5.867   1.894   4.338
 2980TIP3    H2 8905   5.747   1.803   4.356
 2981TIP3   OH2 8906   3.718   3.462   1.725
 2981TIP3    H1 8907   3.814   3.458   1.722
 2981TIP3    H2 8908   3.700   3.544   1.771
 2982TIP3   OH2 8909   6.930   3.682   2.724
 2982TIP3    H1 8910   6.958   3.721   2.641
 2982TIP3    H2 8911   6.992   3.611   2.739
 2983TIP3   OH2 8912   1.564   3.119   2.289
 2983TIP3    H1 8913   1.592   3.131   2.199
 2983TIP3    H2 8914   1.614   3.043   2.320
 2984TIP3   OH2 8915   3.634   0.459   5.600
 2984TIP3    H1 8916   3.579   0.464   5.521
 2984TIP3    H2 8917   3.585   0.508   5.666
 2985TIP3   OH2 8918   4.467   1.722   1.574
 2985TIP3    H1 8919   4.507   1.705   1.659
 2985TIP3    H2 8920   4.407   1.795   1.591
 2986TIP3   OH2 8921   2.606   1.163   2.575
 2986TIP3    H1 8922   2.518   1.126   2.578
 2986TIP3    H2 8923   2.646   1.137   2.658
 2987TIP3   OH2 8924   3.168   4.761   3.123
 2987TIP3    H1 8925   3.152   4.690   3.061
 2987TIP3    H2 8926   3.252   4.799   3.096
 2988TIP3   OH2 8927   1.780   6.239   5.535
 2988TIP3    H1 8928   1.720   6.241   5.610
 2988TIP3    H2 8929   1.813   6.328   5.528
 2989TIP3   OH2 8930   6.872   0.511   0.977
 2989TIP3    H1 8931   6.907   0.435   1.024
 2989TIP3    H2 8932   6.883   0.489   0.884
 2990TIP3   OH2 8933   4.026   6.445   4.740
 2990TIP3    H1 8934   3.996   6.525   4.696
 2990TIP3    H2 8935   4.061   6.391   4.669
 2991TIP3   OH2 8936   6.622   1.223   5.668
 2991TIP3    H1 8937   6.655   1.260   5.750
 2991TIP3    H2 8938   6.681   1.150   5.649
 2992TIP3   OH2 8939   3.348   3.607   0.480
 2992TIP3    H1 8940   3.370   3.532   0.535
 2992TIP3    H2 8941   3.394   3.680   0.520
 2993TIP3   OH2 8942   3.709   5.707   1.475
 2993TIP3    H1 8943   3.707   5.716   1.570
 2993TIP3    H2 8944   3.627   5.663   1.453
 2994TIP3   OH2 8945   1.497   4.873   4.366
 2994TIP3    H1 8946   1.441   4.802   4.335
 2994TIP3    H2 8947   1.586   4.837   4.363
 2995TIP3   OH2 8948   4.430   3.430   3.595
 2995TIP3    H1 8949   4.357   3.487   3.618
 2995TIP3    H2 8950   4.492   3.487   3.550
 2996TIP3   OH2 8951   0.082   1.862   2.346
 2996TIP3    H1 8952   0.015   1.914   2.389
 2996TIP3    H2 8953   0.163   1.911   2.360
 2997TIP3   OH2 8954   1.241   2.548   3.041
 2997TIP3    H1 8955   1.156   2.518   3.010
 2997TIP3    H2 8956   1.241   2.530   3.135
 2998TIP3   OH2 8957   3.549   4.987   0.966
 2998TIP3    H1 8958   3.475   5.009   0.910
 2998TIP3    H2 8959   3.623   4.975   0.906
 2999TIP3   OH2 8960   3.356   6.082   5.598
 2999TIP3    H1 8961   3.443   6.060   5.565
 2999TIP3    H2 8962   3.336   6.167   5.558
 3000TIP3   OH2 8963   6.739   2.156   5.844
 3000TIP3    H1 8964   6.683   2.208   5.787
 3000TIP3    H2 8965   6.813   2.131   5.789
 3001TIP3   OH2 8966   3.414   2.915   4.394
 3001TIP3    H1 8967   3.503   2.942   4.415
 3001TIP3    H2 8968   3.360   2.945   4.467
 3002TIP3   OH2 8969   0.014   2.080   1.770
 3002TIP3    H1 8970  -0.082   2.075   1.768
 3002TIP3    H2 8971   0.033   2.171   1.793
 3003TIP3   OH2 8972   6.707   5.574   3.510
 3003TIP3    H1 8973   6.712   5.666   3.485
 3003TIP3    H2 8974   6.714   5.526   3.428
 3004TIP3   OH2 8975   0.468   1.913   1.274
 3004TIP3    H1 8976   0.517   1.915   1.192
 3004TIP3    H2 8977   0.420   1.995   1.275
 3005TIP3   OH2 8978   4.207   6.354   2.571
 3005TIP3    H1 8979   4.213   6.449   2.576
 3005TIP3    H2 8980   4.223   6.324   2.660
 3006TIP3   OH2 8981   1.856   6.136   5.871
 3006TIP3    H1 8982   1.810   6.087   5.803
 3006TIP3    H2 8983   1.941   6.156   5.833
 3007TIP3   OH2 8984   5.241   0.055   4.065
 3007TIP3    H1 8985   5.181   0.113   4.112
 3007TIP3    H2 8986   5.239  -0.027   4.113
 3008TIP3   OH2 8987   2.948   3.582   0.209
 3008TIP3    H1 8988   2.994   3.658   0.245
 3008TIP3    H2 8989   2.860   3.613   0.191
 3009TIP3   OH2 8990   3.764   3.083   5.273
 3009TIP3    H1 8991   3.737   3.173   5.253
 3009TIP3    H2 8992   3.859   3.089   5.283
 3010TIP3   OH2 8993   3.191   4.903   0.224
 3010TIP3    H1 8994   3.147   4.971   0.275
 3010TIP3    H2 8995   3.256   4.950   0.172
 3011TIP3   OH2 8996   5.672   6.719   4.350
 3011TIP3    H1 8997   5.591   6.669   4.340
 3011TIP3    H2 8998   5.655   6.803   4.306
 3012TIP3   OH2 8999   5.738   6.574   0.161
 3012TIP3    H1 9000   5.767   6.657   0.199
 3012TIP3    H2 9001   5.801   6.510   0.192
 3013TIP3   OH2 9002   2.238   4.242   3.167
 3013TIP3    H1 9003   2.215   4.289   3.247
 3013TIP3    H2 9004   2.279   4.161   3.199
 3014TIP3   OH2 9005   1.412   4.354   2.025
 3014TIP3    H1 9006   1.506   4.345   2.041
 3014TIP3    H2 9007   1.387   4.434   2.072
 3015TIP3   OH2 9008   1.911   5.102   0.963
 3015TIP3    H1 9009   1.892   5.066   1.050
 3015TIP3    H2 9010   1.824   5.125   0.929
 3016TIP3   OH2 9011   3.296   3.225   0.227
 3016TIP3    H1 9012   3.238   3.180   0.287
 3016TIP3    H2 9013   3.289   3.318   0.251
 3017TIP3   OH2 9014   3.677   0.684   3.294
 3017TIP3    H1 9015   3.711   0.774   3.292
 3017TIP3    H2 9016   3.753   0.630   3.273
 3018TIP3   OH2 9017   7.206   1.084   5.438
 3018TIP3    H1 9018   7.187   1.174   5.411
 3018TIP3    H2 9019   7.134   1.032   5.402
 3019TIP3   OH2 9020   4.989   6.630   4.293
 3019TIP3    H1 9021   4.985   6.610   4.200
 3019TIP3    H2 9022   4.903   6.604   4.327
 3020TIP3   OH2 9023   3.231   5.890   2.142
 3020TIP3    H1 9024   3.195   5.883   2.231
 3020TIP3    H2 9025   3.171   5.837   2.089
 3021TIP3   OH2 9026   1.248   6.807   0.173
 3021TIP3    H1 9027   1.283   6.861   0.244
 3021TIP3    H2 9028   1.296   6.725   0.180
 3022TIP3   OH2 9029   7.170   2.985   1.497
 3022TIP3    H1 9030   7.116   2.961   1.422
 3022TIP3    H2 9031   7.239   2.919   1.499
 3023TIP3   OH2 9032   3.644   5.675   5.075
 3023TIP3    H1 9033   3.589   5.618   5.128
 3023TIP3    H2 9034   3.715   5.619   5.045
 3024TIP3   OH2 9035   0.841   5.853   0.399
 3024TIP3    H1 9036   0.886   5.781   0.354
 3024TIP3    H2 9037   0.759   5.864   0.351
 3025TIP3   OH2 9038   4.862   6.815   1.452
 3025TIP3    H1 9039   4.896   6.826   1.541
 3025TIP3    H2 9040   4.940   6.809   1.397
 3026TIP3   OH2 9041   1.599   6.752   1.554
 3026TIP3    H1 9042   1.561   6.790   1.475
 3026TIP3    H2 9043   1.609   6.659   1.534
 3027TIP3   OH2 9044   0.687   0.722   0.502
 3027TIP3    H1 9045   0.660   0.768   0.422
 3027TIP3    H2 9046   0.605   0.706   0.549
 3028TIP3   OH2 9047   3.139   1.029   0.582
 3028TIP3    H1 9048   3.073   1.083   0.626
 3028TIP3    H2 9049   3.099   0.942   0.577
 3029TIP3   OH2 9050   6.623   2.362   3.936
 3029TIP3    H1 9051   6.667   2.384   4.018
 3029TIP3    H2 9052   6.648   2.271   3.920
 3030TIP3   OH2 9053   2.822   2.070   5.026
 3030TIP3    H1 9054   2.857   2.057   5.114
 3030TIP3    H2 9055   2.843   2.161   5.006
 3031TIP3   OH2 9056   1.374   3.138   5.370
 3031TIP3    H1 9057   1.340   3.121   5.458
 3031TIP3    H2 9058   1.403   3.229   5.373
 3032TIP3   OH2 9059   6.084   4.127   5.722
 3032TIP3    H1 9060   6.136   4.200   5.756
 3032TIP3    H2 9061   6.033   4.097   5.797
 3033TIP3   OH2 9062   0.255   4.665   0.548
 3033TIP3    H1 9063   0.213   4.638   0.467
 3033TIP3    H2 9064   0.234   4.758   0.557
 3034TIP3   OH2 9065   7.016   2.967   2.439
 3034TIP3    H1 9066   6.971   3.005   2.363
 3034TIP3    H2 9067   7.072   3.038   2.470
 3035TIP3   OH2 9068   2.104   6.590   3.449
 3035TIP3    H1 9069   2.085   6.522   3.384
 3035TIP3    H2 9070   2.192   6.569   3.480
 3036TIP3   OH2 9071   6.092   2.678   3.293
 3036TIP3    H1 9072   6.166   2.735   3.274
 3036TIP3    H2 9073   6.132   2.594   3.317
 3037TIP3   OH2 9074   3.339   2.094   5.624
 3037TIP3    H1 9075   3.340   2.086   5.720
 3037TIP3    H2 9076   3.430   2.113   5.601
 3038TIP3   OH2 9077   3.215  -0.014   3.209
 3038TIP3    H1 9078   3.169   0.062   3.245
 3038TIP3    H2 9079   3.178  -0.026   3.122
 3039TIP3   OH2 9080   1.851   1.643   1.653
 3039TIP3    H1 9081   1.933   1.620   1.609
 3039TIP3    H2 9082   1.788   1.578   1.624
 3040TIP3   OH2 9083   3.990   4.770   3.857
 3040TIP3    H1 9084   3.915   4.775   3.917
 3040TIP3    H2 9085   3.969   4.697   3.799
 3041TIP3   OH2 9086   5.025   4.965   1.241
 3041TIP3    H1 9087   5.063   5.022   1.174
 3041TIP3    H2 9088   5.081   4.888   1.242
 3042TIP3   OH2 9089   5.737   1.122   4.610
 3042TIP3    H1 9090   5.726   1.030   4.631
 3042TIP3    H2 9091   5.708   1.129   4.519
 3043TIP3   OH2 9092   2.465   5.793   4.222
 3043TIP3    H1 9093   2.373   5.769   4.215
 3043TIP3    H2 9094   2.477   5.814   4.315
 3044TIP3   OH2 9095   4.754   4.774   3.818
 3044TIP3    H1 9096   4.789   4.755   3.731
 3044TIP3    H2 9097   4.821   4.828   3.860
 3045TIP3   OH2 9098   2.401   3.615   1.431
 3045TIP3    H1 9099   2.362   3.532   1.404
 3045TIP3    H2 9100   2.338   3.682   1.401
 3046TIP3   OH2 9101   0.834   3.459   2.798
 3046TIP3    H1 9102   0.755   3.433   2.845
 3046TIP3    H2 9103   0.870   3.376   2.764
 3047TIP3   OH2 9104   0.431   6.051   5.751
 3047TIP3    H1 9105   0.442   6.146   5.755
 3047TIP3    H2 9106   0.360   6.037   5.689
 3048TIP3   OH2 9107   1.925   5.990   0.900
 3048TIP3    H1 9108   1.998   6.052   0.903
 3048TIP3    H2 9109   1.957   5.912   0.946
 3049TIP3   OH2 9110   4.912   0.833   1.296
 3049TIP3    H1 9111   4.999   0.795   1.307
 3049TIP3    H2 9112   4.902   0.891   1.372
 3050TIP3   OH2 9113   1.730   1.073   5.644
 3050TIP3    H1 9114   1.707   1.142   5.582
 3050TIP3    H2 9115   1.824   1.060   5.631
 3051TIP3   OH2 9116   4.277   4.670   2.499
 3051TIP3    H1 9117   4.244   4.732   2.434
 3051TIP3    H2 9118   4.312   4.598   2.447
 3052TIP3   OH2 9119   1.017   5.531   3.110
 3052TIP3    H1 9120   0.995   5.520   3.202
 3052TIP3    H2 9121   0.940   5.574   3.072
 3053TIP3   OH2 9122   2.960   2.621   0.162
 3053TIP3    H1 9123   2.919   2.537   0.141
 3053TIP3    H2 9124   3.052   2.599   0.178
 3054TIP3   OH2 9125   2.851   2.374   0.093
 3054TIP3    H1 9126   2.828   2.399   0.003
 3054TIP3    H2 9127   2.772   2.333   0.127
 3055TIP3   OH2 9128   5.100   0.129   2.704
 3055TIP3    H1 9129   5.054   0.098   2.626
 3055TIP3    H2 9130   5.139   0.050   2.742
 3056TIP3   OH2 9131   5.535   0.933   3.178
 3056TIP3    H1 9132   5.508   0.891   3.096
 3056TIP3    H2 9133   5.472   1.004   3.190
 3057TIP3   OH2 9134   2.563   4.845   4.959
 3057TIP3    H1 9135   2.575   4.771   4.901
 3057TIP3    H2 9136   2.648   4.889   4.961
 3058TIP3   OH2 9137   6.536   6.761   2.912
 3058TIP3    H1 9138   6.631   6.755   2.903
 3058TIP3    H2 9139   6.502   6.738   2.826
 3059TIP3   OH2 9140   1.167   2.986   3.906
 3059TIP3    H1 9141   1.103   3.019   3.969
 3059TIP3    H2 9142   1.115   2.945   3.838
 3060TIP3   OH2 9143   1.104   1.975   2.561
 3060TIP3    H1 9144   1.048   2.052   2.565
 3060TIP3    H2 9145   1.070   1.925   2.487
 3061TIP3   OH2 9146   0.712   5.618   2.629
 3061TIP3    H1 9147   0.794   5.572   2.646
 3061TIP3    H2 9148   0.735   5.711   2.636
 3062TIP3   OH2 9149   0.080   0.010   3.735
 3062TIP3    H1 9150   0.014   0.006   3.804
 3062TIP3    H2 9151   0.071  -0.072   3.688
 3063TIP3   OH2 9152   2.692   2.425   3.465
 3063TIP3    H1 9153   2.736   2.491   3.411
 3063TIP3    H2 9154   2.763   2.374   3.504
 3064TIP3   OH2 9155   0.324   1.760   0.370
 3064TIP3    H1 9156   0.399   1.805   0.409
 3064TIP3    H2 9157   0.328   1.671   0.405
 3065TIP3   OH2 9158   5.997   2.718   2.342
 3065TIP3    H1 9159   5.944   2.790   2.309
 3065TIP3    H2 9160   5.933   2.658   2.381
 3066TIP3   OH2 9161   5.565   4.287   4.960
 3066TIP3    H1 9162   5.628   4.359   4.963
 3066TIP3    H2 9163   5.601   4.221   5.018
 3067TIP3   OH2 9164   2.496   1.698   2.832
 3067TIP3    H1 9165   2.531   1.625   2.883
 3067TIP3    H2 9166   2.566   1.764   2.833
 3068TIP3   OH2 9167   2.412   6.065   2.483
 3068TIP3    H1 9168   2.344   6.047   2.549
 3068TIP3    H2 9169   2.369   6.122   2.419
 3069TIP3   OH2 9170   1.715   0.450   1.923
 3069TIP3    H1 9171   1.689   0.373   1.974
 3069TIP3    H2 9172   1.799   0.426   1.883
 3070TIP3   OH2 9173   0.804   2.468   2.504
 3070TIP3    H1 9174   0.711   2.443   2.504
 3070TIP3    H2 9175   0.839   2.429   2.584
 3071TIP3   OH2 9176   0.817   2.151   4.793
 3071TIP3    H1 9177   0.890   2.194   4.750
 3071TIP3    H2 9178   0.848   2.133   4.882
 3072TIP3   OH2 9179   3.556   5.997   2.962
 3072TIP3    H1 9180   3.514   5.930   3.015
 3072TIP3    H2 9181   3.615   5.948   2.904
 3073TIP3   OH2 9182   3.760   1.555   0.994
 3073TIP3    H1 9183   3.735   1.467   1.023
 3073TIP3    H2 9184   3.828   1.582   1.057
 3074TIP3   OH2 9185   1.392   3.500   4.637
 3074TIP3    H1 9186   1.407   3.407   4.619
 3074TIP3    H2 9187   1.299   3.513   4.619
 3075TIP3   OH2 9188   5.458   0.633   1.787
 3075TIP3    H1 9189   5.439   0.596   1.701
 3075TIP3    H2 9190   5.376   0.677   1.812
 3076TIP3   OH2 9191   4.103   0.334   3.705
 3076TIP3    H1 9192   4.072   0.406   3.651
 3076TIP3    H2 9193   4.062   0.256   3.668
 3077TIP3   OH2 9194   6.588   0.431   3.581
 3077TIP3    H1 9195   6.541   0.510   3.554
 3077TIP3    H2 9196   6.611   0.388   3.498
 3078TIP3   OH2 9197   0.852   4.813   5.794
 3078TIP3    H1 9198   0.937   4.822   5.752
 3078TIP3    H2 9199   0.801   4.887   5.761
 3079TIP3   OH2 9200   1.958   5.617   5.155
 3079TIP3    H1 9201   1.946   5.701   5.198
 3079TIP3    H2 9202   1.871   5.592   5.124
 3080TIP3   OH2 9203   2.584   0.831   4.938
 3080TIP3    H1 9204   2.593   0.805   5.030
 3080TIP3    H2 9205   2.642   0.771   4.890
 3081TIP3   OH2 9206   4.672   4.989   4.898
 3081TIP3    H1 9207   4.633   4.913   4.854
 3081TIP3    H2 9208   4.630   5.065   4.857
 3082TIP3   OH2 9209   0.448   1.866   3.214
 3082TIP3    H1 9210   0.373   1.871   3.273
 3082TIP3    H2 9211   0.504   1.798   3.252
 3083TIP3   OH2 9212   1.152   1.963   4.861
 3083TIP3    H1 9213   1.069   1.921   4.837
 3083TIP3    H2 9214   1.216   1.923   4.803
 3084TIP3   OH2 9215   2.004   5.777   1.971
 3084TIP3    H1 9216   1.966   5.803   2.055
 3084TIP3    H2 9217   1.928   5.763   1.913
 3085TIP3   OH2 9218   2.900   2.979   2.209
 3085TIP3    H1 9219   2.830   2.946   2.265
 3085TIP3    H2 9220   2.979   2.976   2.264
 3086TIP3   OH2 9221   6.003   6.158   0.124
 3086TIP3    H1 9222   5.914   6.144   0.092
 3086TIP3    H2 9223   6.058   6.154   0.046
 3087TIP3   OH2 9224   0.313   4.880   5.522
 3087TIP3    H1 9225   0.356   4.873   5.437
 3087TIP3    H2 9226   0.220   4.869   5.502
 3088TIP3   OH2 9227   0.084   4.091   3.679
 3088TIP3    H1 9228   0.049   4.118   3.764
 3088TIP3    H2 9229   0.178   4.108   3.686
 3089TIP3   OH2 9230   0.584   2.713   0.210
 3089TIP3    H1 9231   0.501   2.735   0.166
 3089TIP3    H2 9232   0.649   2.769   0.168
 3090TIP3   OH2 9233   3.112   1.251   2.398
 3090TIP3    H1 9234   3.076   1.298   2.473
 3090TIP3    H2 9235   3.035   1.225   2.347
 3091TIP3   OH2 9236   6.316   1.665   3.508
 3091TIP3    H1 9237   6.410   1.660   3.524
 3091TIP3    H2 9238   6.285   1.729   3.572
 3092TIP3   OH2 9239   0.279   0.328   2.606
 3092TIP3    H1 9240   0.330   0.374   2.539
 3092TIP3    H2 9241   0.344   0.281   2.658
 3093TIP3   OH2 9242   4.890   0.488   5.653
 3093TIP3    H1 9243   4.936   0.410   5.683
 3093TIP3    H2 9244   4.797   0.469   5.667
 3094TIP3   OH2 9245   5.331   0.184   4.605
 3094TIP3    H1 9246   5.294   0.236   4.676
 3094TIP3    H2 9247   5.297   0.226   4.525
 3095TIP3   OH2 9248   4.724   0.203   1.637
 3095TIP3    H1 9249   4.749   0.162   1.719
 3095TIP3    H2 9250   4.647   0.155   1.608
 3096TIP3   OH2 9251   4.753   1.635   4.216
 3096TIP3    H1 9252   4.797   1.589   4.287
 3096TIP3    H2 9253   4.717   1.713   4.258
 3097TIP3   OH2 9254   6.918   4.334   5.546
 3097TIP3    H1 9255   6.964   4.417   5.538
 3097TIP3    H2 9256   6.826   4.357   5.557
 3098TIP3   OH2 9257   3.283   4.298   4.670
 3098TIP3    H1 9258   3.280   4.383   4.625
 3098TIP3    H2 9259   3.199   4.257   4.649
 3099TIP3   OH2 9260   5.778   2.654   4.573
 3099TIP3    H1 9261   5.687   2.649   4.601
 3099TIP3    H2 9262   5.783   2.593   4.499
 3100TIP3   OH2 9263   2.173   5.777   4.241
 3100TIP3    H1 9264   2.091   5.823   4.222
 3100TIP3    H2 9265   2.165   5.750   4.333
 3101TIP3   OH2 9266   4.109   1.815   1.334
 3101TIP3    H1 9267   4.017   1.821   1.309
 3101TIP3    H2 9268   4.108   1.802   1.429
 3102TIP3   OH2 9269   3.654   2.106   0.475
 3102TIP3    H1 9270   3.711   2.061   0.538
 3102TIP3    H2 9271   3.577   2.130   0.526
 3103TIP3   OH2 9272   2.856   3.519   0.515
 3103TIP3    H1 9273   2.888   3.562   0.594
 3103TIP3    H2 9274   2.768   3.554   0.502
 3104TIP3   OH2 9275   3.246   5.306   0.224
 3104TIP3    H1 9276   3.289   5.243   0.282
 3104TIP3    H2 9277   3.299   5.306   0.144
 3105TIP3   OH2 9278   5.262   0.348   4.821
 3105TIP3    H1 9279   5.228   0.434   4.797
 3105TIP3    H2 9280   5.198   0.314   4.884
 3106TIP3   OH2 9281   1.673   0.092   3.304
 3106TIP3    H1 9282   1.661   0.152   3.378
 3106TIP3    H2 9283   1.653   0.145   3.227
 3107TIP3   OH2 9284   5.329   0.661   0.230
 3107TIP3    H1 9285   5.386   0.640   0.156
 3107TIP3    H2 9286   5.242   0.636   0.201
 3108TIP3   OH2 9287   5.989   5.340   4.317
 3108TIP3    H1 9288   5.945   5.289   4.385
 3108TIP3    H2 9289   5.936   5.325   4.238
 3109TIP3   OH2 9290   0.924   0.994   5.602
 3109TIP3    H1 9291   0.924   1.042   5.685
 3109TIP3    H2 9292   1.006   1.019   5.561
 3110TIP3   OH2 9293   2.682   4.702   0.425
 3110TIP3    H1 9294   2.707   4.750   0.346
 3110TIP3    H2 9295   2.763   4.662   0.455
 3111TIP3   OH2 9296   3.881   6.063   2.986
 3111TIP3    H1 9297   3.929   6.054   3.068
 3111TIP3    H2 9298   3.937   6.116   2.930
 3112TIP3   OH2 9299   3.938   2.316   3.370
 3112TIP3    H1 9300   4.032   2.296   3.374
 3112TIP3    H2 9301   3.929   2.371   3.292
 3113TIP3   OH2 9302   6.206   0.117   3.138
 3113TIP3    H1 9303   6.290   0.139   3.178
 3113TIP3    H2 9304   6.228   0.092   3.048
 3114TIP3   OH2 9305   4.120   5.129   5.544
 3114TIP3    H1 9306   4.088   5.152   5.632
 3114TIP3    H2 9307   4.104   5.207   5.492
 3115TIP3   OH2 9308   3.847   2.624   4.754
 3115TIP3    H1 9309   3.788   2.586   4.820
 3115TIP3    H2 9310   3.907   2.553   4.732
 3116TIP3   OH2 9311   1.252   5.896   2.999
 3116TIP3    H1 9312   1.337   5.929   2.970
 3116TIP3    H2 9313   1.258   5.801   2.989
 3117TIP3   OH2 9314   4.008   5.893   5.760
 3117TIP3    H1 9315   4.004   5.854   5.672
 3117TIP3    H2 9316   4.064   5.833   5.810
 3118TIP3   OH2 9317   3.973   6.731   0.174
 3118TIP3    H1 9318   4.001   6.795   0.109
 3118TIP3    H2 9319   3.977   6.777   0.257
 3119TIP3   OH2 9320   5.448   2.318   1.811
 3119TIP3    H1 9321   5.519   2.372   1.776
 3119TIP3    H2 9322   5.468   2.308   1.904
 3120TIP3   OH2 9323   1.609   6.603   3.187
 3120TIP3    H1 9324   1.598   6.678   3.246
 3120TIP3    H2 9325   1.686   6.557   3.222
 3121TIP3   OH2 9326   5.030   5.285   3.067
 3121TIP3    H1 9327   5.093   5.358   3.068
 3121TIP3    H2 9328   4.971   5.303   3.140
 3122TIP3   OH2 9329   2.352   2.966   5.056
 3122TIP3    H1 9330   2.416   3.037   5.068
 3122TIP3    H2 9331   2.380   2.922   4.976
 3123TIP3   OH2 9332   4.309   2.328   0.910
 3123TIP3    H1 9333   4.279   2.412   0.947
 3123TIP3    H2 9334   4.400   2.321   0.937
 3124TIP3   OH2 9335   1.605   6.348   4.449
 3124TIP3    H1 9336   1.627   6.255   4.447
 3124TIP3    H2 9337   1.530   6.354   4.507
 3125TIP3   OH2 9338   6.669   5.150   2.052
 3125TIP3    H1 9339   6.691   5.201   1.974
 3125TIP3    H2 9340   6.636   5.067   2.018
 3126TIP3   OH2 9341   6.012   5.851   2.499
 3126TIP3    H1 9342   6.042   5.789   2.566
 3126TIP3    H2 9343   5.928   5.816   2.471
 3127TIP3   OH2 9344   5.373   6.791   3.311
 3127TIP3    H1 9345   5.357   6.792   3.217
 3127TIP3    H2 9346   5.426   6.712   3.325
 3128TIP3   OH2 9347   2.013   4.401   0.791
 3128TIP3    H1 9348   1.930   4.437   0.823
 3128TIP3    H2 9349   2.063   4.382   0.870
 3129TIP3   OH2 9350   6.337   0.468   2.474
 3129TIP3    H1 9351   6.343   0.377   2.444
 3129TIP3    H2 9352   6.427   0.499   2.476
 3130TIP3   OH2 9353   2.630   1.335   4.892
 3130TIP3    H1 9354   2.567   1.275   4.932
 3130TIP3    H2 9355   2.582   1.375   4.819
 3131TIP3   OH2 9356   1.450   2.322   5.778
 3131TIP3    H1 9357   1.408   2.333   5.863
 3131TIP3    H2 9358   1.514   2.393   5.773
 3132TIP3   OH2 9359   5.556   2.615   1.170
 3132TIP3    H1 9360   5.561   2.681   1.240
 3132TIP3    H2 9361   5.614   2.545   1.199
 3133TIP3   OH2 9362   7.006   1.587   3.659
 3133TIP3    H1 9363   7.049   1.502   3.647
 3133TIP3    H2 9364   7.067   1.638   3.712
 3134TIP3   OH2 9365   4.614   1.500   4.595
 3134TIP3    H1 9366   4.638   1.592   4.607
 3134TIP3    H2 9367   4.521   1.497   4.617
 3135TIP3   OH2 9368   5.736   3.436   4.492
 3135TIP3    H1 9369   5.725   3.531   4.500
 3135TIP3    H2 9370   5.737   3.420   4.398
 3136TIP3   OH2 9371   6.748   1.863   0.509
 3136TIP3    H1 9372   6.819   1.926   0.519
 3136TIP3    H2 9373   6.705   1.862   0.595
 3137TIP3   OH2 9374   6.169   6.119   5.494
 3137TIP3    H1 9375   6.217   6.092   5.572
 3137TIP3    H2 9376   6.196   6.209   5.479
 3138TIP3   OH2 9377   4.875   4.141   5.275
 3138TIP3    H1 9378   4.849   4.056   5.239
 3138TIP3    H2 9379   4.832   4.205   5.218
 3139TIP3   OH2 9380   4.347   6.167   5.661
 3139TIP3    H1 9381   4.368   6.152   5.569
 3139TIP3    H2 9382   4.403   6.106   5.709
 3140TIP3   OH2 9383   5.601   5.240   3.207
 3140TIP3    H1 9384   5.588   5.170   3.142
 3140TIP3    H2 9385   5.680   5.285   3.178
 3141TIP3   OH2 9386   4.540   1.394   5.832
 3141TIP3    H1 9387   4.599   1.377   5.759
 3141TIP3    H2 9388   4.511   1.307   5.860
 3142TIP3   OH2 9389   3.447   3.670   2.481
 3142TIP3    H1 9390   3.506   3.699   2.550
 3142TIP3    H2 9391   3.382   3.739   2.473
 3143TIP3   OH2 9392   6.046   4.064   4.832
 3143TIP3    H1 9393   6.104   4.109   4.770
 3143TIP3    H2 9394   5.960   4.067   4.790
 3144TIP3   OH2 9395   5.098   4.162   3.786
 3144TIP3    H1 9396   5.128   4.075   3.813
 3144TIP3    H2 9397   5.095   4.213   3.867
 3145TIP3   OH2 9398   3.989   1.136   0.772
 3145TIP3    H1 9399   3.983   1.141   0.867
 3145TIP3    H2 9400   3.981   1.043   0.752
 3146TIP3   OH2 9401   6.947   1.195   0.380
 3146TIP3    H1 9402   6.920   1.286   0.387
 3146TIP3    H2 9403   6.925   1.157   0.466
 3147TIP3   OH2 9404   4.598   3.028   5.714
 3147TIP3    H1 9405   4.525   2.979   5.751
 3147TIP3    H2 9406   4.621   2.979   5.634
 3148TIP3   OH2 9407   2.449   1.376   3.763
 3148TIP3    H1 9408   2.443   1.293   3.810
 3148TIP3    H2 9409   2.362   1.389   3.726
 3149TIP3   OH2 9410   4.013   3.053   2.990
 3149TIP3    H1 9411   4.069   3.053   3.068
 3149TIP3    H2 9412   4.057   3.111   2.928
 3150TIP3   OH2 9413   4.927   1.914   4.659
 3150TIP3    H1 9414   4.841   1.949   4.634
 3150TIP3    H2 9415   4.929   1.924   4.754
 3151TIP3   OH2 9416   5.265   2.233   5.584
 3151TIP3    H1 9417   5.356   2.257   5.568
 3151TIP3    H2 9418   5.216   2.314   5.570
 3152TIP3   OH2 9419   0.066   3.946   2.380
 3152TIP3    H1 9420  -0.024   3.931   2.350
 3152TIP3    H2 9421   0.117   3.878   2.338
 3153TIP3   OH2 9422   4.833   5.830   2.866
 3153TIP3    H1 9423   4.821   5.795   2.778
 3153TIP3    H2 9424   4.839   5.925   2.854
 3154TIP3   OH2 9425   0.201   3.998   0.466
 3154TIP3    H1 9426   0.180   3.918   0.514
 3154TIP3    H2 9427   0.271   3.972   0.406
 3155TIP3   OH2 9428   5.881   1.679   0.890
 3155TIP3    H1 9429   5.883   1.739   0.815
 3155TIP3    H2 9430   5.804   1.705   0.940
 3156TIP3   OH2 9431   4.926   5.408   2.350
 3156TIP3    H1 9432   4.922   5.469   2.277
 3156TIP3    H2 9433   5.014   5.419   2.386
 3157TIP3   OH2 9434   1.918   6.439   2.074
 3157TIP3    H1 9435   1.841   6.445   2.017
 3157TIP3    H2 9436   1.953   6.351   2.056
 3158TIP3   OH2 9437   6.416   3.635   3.250
 3158TIP3    H1 9438   6.367   3.596   3.323
 3158TIP3    H2 9439   6.436   3.724   3.280
 3159TIP3   OH2 9440   6.572   0.508   1.295
 3159TIP3    H1 9441   6.638   0.575   1.275
 3159TIP3    H2 9442   6.497   0.531   1.238
 3160TIP3   OH2 9443   6.840   5.325   4.853
 3160TIP3    H1 9444   6.877   5.358   4.935
 3160TIP3    H2 9445   6.869   5.388   4.787
 3161TIP3   OH2 9446   4.734   3.751   3.112
 3161TIP3    H1 9447   4.742   3.834   3.159
 3161TIP3    H2 9448   4.650   3.716   3.139
 3162TIP3   OH2 9449   1.748   1.382   1.414
 3162TIP3    H1 9450   1.759   1.464   1.366
 3162TIP3    H2 9451   1.697   1.407   1.491
 3163TIP3   OH2 9452   3.673   2.640   0.236
 3163TIP3    H1 9453   3.721   2.717   0.265
 3163TIP3    H2 9454   3.671   2.647   0.140
 3164TIP3   OH2 9455   0.185   6.757   5.582
 3164TIP3    H1 9456   0.187   6.762   5.486
 3164TIP3    H2 9457   0.272   6.726   5.606
 3165TIP3   OH2 9458   5.336   3.280   0.630
 3165TIP3    H1 9459   5.314   3.323   0.548
 3165TIP3    H2 9460   5.261   3.224   0.649
 3166TIP3   OH2 9461   7.151   5.336   0.773
 3166TIP3    H1 9462   7.091   5.307   0.705
 3166TIP3    H2 9463   7.174   5.257   0.822
 3167TIP3   OH2 9464   6.428   4.270   0.109
 3167TIP3    H1 9465   6.336   4.295   0.111
 3167TIP3    H2 9466   6.448   4.245   0.199
 3168TIP3   OH2 9467   3.147   6.639   5.710
 3168TIP3    H1 9468   3.053   6.634   5.692
 3168TIP3    H2 9469   3.169   6.553   5.747
 3169TIP3   OH2 9470   0.107   3.920   1.173
 3169TIP3    H1 9471   0.068   3.983   1.234
 3169TIP3    H2 9472   0.201   3.936   1.179
 3170TIP3   OH2 9473   3.308   6.588   0.808
 3170TIP3    H1 9474   3.328   6.661   0.749
 3170TIP3    H2 9475   3.394   6.555   0.835
 3171TIP3   OH2 9476   5.498   2.921   4.848
 3171TIP3    H1 9477   5.560   2.864   4.894
 3171TIP3    H2 9478   5.541   3.006   4.848
 3172TIP3   OH2 9479   0.332   2.502   2.785
 3172TIP3    H1 9480   0.297   2.460   2.706
 3172TIP3    H2 9481   0.363   2.587   2.756
 3173TIP3   OH2 9482   1.996   2.955   0.626
 3173TIP3    H1 9483   1.912   2.909   0.630
 3173TIP3    H2 9484   1.996   2.998   0.541
 3174TIP3   OH2 9485   4.785   5.868   4.973
 3174TIP3    H1 9486   4.772   5.885   5.067
 3174TIP3    H2 9487   4.701   5.834   4.943
 3175TIP3   OH2 9488   3.331   3.759   4.580
 3175TIP3    H1 9489   3.259   3.715   4.536
 3175TIP3    H2 9490   3.331   3.848   4.543
 3176TIP3   OH2 9491   6.179   1.614   4.902
 3176TIP3    H1 9492   6.218   1.556   4.968
 3176TIP3    H2 9493   6.253   1.641   4.847
 3177TIP3   OH2 9494   3.905   4.080   3.906
 3177TIP3    H1 9495   3.957   4.161   3.906
 3177TIP3    H2 9496   3.962   4.015   3.946
 3178TIP3   OH2 9497   5.021   2.392   3.000
 3178TIP3    H1 9498   5.104   2.346   2.987
 3178TIP3    H2 9499   4.980   2.348   3.074
 3179TIP3   OH2 9500   3.255   5.916   0.341
 3179TIP3    H1 9501   3.283   5.944   0.428
 3179TIP3    H2 9502   3.335   5.881   0.301
 3180TIP3   OH2 9503   0.053   3.406   5.668
 3180TIP3    H1 9504  -0.041   3.396   5.654
 3180TIP3    H2 9505   0.084   3.316   5.683
 3181TIP3   OH2 9506   5.624   5.121   3.477
 3181TIP3    H1 9507   5.639   5.142   3.384
 3181TIP3    H2 9508   5.575   5.196   3.510
 3182TIP3   OH2 9509   0.142   5.670   3.171
 3182TIP3    H1 9510   0.055   5.689   3.138
 3182TIP3    H2 9511   0.185   5.755   3.178
 3183TIP3   OH2 9512   3.234   4.026   0.390
 3183TIP3    H1 9513   3.281   3.954   0.347
 3183TIP3    H2 9514   3.269   4.026   0.480
 3184TIP3   OH2 9515   1.483   5.449   1.854
 3184TIP3    H1 9516   1.454   5.359   1.864
 3184TIP3    H2 9517   1.442   5.479   1.772
 3185TIP3   OH2 9518   5.242   4.277   0.081
 3185TIP3    H1 9519   5.248   4.182   0.078
 3185TIP3    H2 9520   5.285   4.301   0.163
 3186TIP3   OH2 9521   5.339   5.433   3.860
 3186TIP3    H1 9522   5.434   5.420   3.870
 3186TIP3    H2 9523   5.331   5.501   3.793
 3187TIP3   OH2 9524   2.140   5.481   4.693
 3187TIP3    H1 9525   2.127   5.529   4.775
 3187TIP3    H2 9526   2.234   5.486   4.677
 3188TIP3   OH2 9527   0.371   2.140   0.970
 3188TIP3    H1 9528   0.303   2.149   0.903
 3188TIP3    H2 9529   0.337   2.072   1.029
 3189TIP3   OH2 9530   5.962   0.711   1.259
 3189TIP3    H1 9531   5.951   0.759   1.341
 3189TIP3    H2 9532   5.992   0.624   1.286
 3190TIP3   OH2 9533   2.235   1.717   0.407
 3190TIP3    H1 9534   2.309   1.701   0.350
 3190TIP3    H2 9535   2.234   1.642   0.467
 3191TIP3   OH2 9536   4.904   0.648   3.783
 3191TIP3    H1 9537   4.877   0.633   3.693
 3191TIP3    H2 9538   4.822   0.661   3.832
 3192TIP3   OH2 9539   7.117   1.259   3.790
 3192TIP3    H1 9540   7.178   1.300   3.851
 3192TIP3    H2 9541   7.154   1.277   3.704
 3193TIP3   OH2 9542   0.307   4.003   2.005
 3193TIP3    H1 9543   0.385   4.056   1.989
 3193TIP3    H2 9544   0.275   3.980   1.918
 3194TIP3   OH2 9545   2.827   4.002   4.270
 3194TIP3    H1 9546   2.759   4.009   4.336
 3194TIP3    H2 9547   2.850   3.910   4.269
 3195TIP3   OH2 9548   0.960   2.708   1.270
 3195TIP3    H1 9549   0.941   2.702   1.176
 3195TIP3    H2 9550   0.874   2.699   1.312
 3196TIP3   OH2 9551   1.726   4.750   4.299
 3196TIP3    H1 9552   1.795   4.790   4.246
 3196TIP3    H2 9553   1.703   4.670   4.252
 3197TIP3   OH2 9554   0.486   1.799   2.056
 3197TIP3    H1 9555   0.461   1.723   2.109
 3197TIP3    H2 9556   0.499   1.764   1.968
 3198TIP3   OH2 9557   3.827   3.870   2.767
 3198TIP3    H1 9558   3.892   3.941   2.771
 3198TIP3    H2 9559   3.842   3.829   2.682
 3199TIP3   OH2 9560   1.533   6.444   0.620
 3199TIP3    H1 9561   1.557   6.364   0.665
 3199TIP3    H2 9562   1.525   6.510   0.689
 3200TIP3   OH2 9563   1.514   0.148   1.804
 3200TIP3    H1 9564   1.501   0.061   1.841
 3200TIP3    H2 9565   1.463   0.148   1.723
 3201TIP3   OH2 9566   5.076   4.712   4.397
 3201TIP3    H1 9567   5.060   4.618   4.387
 3201TIP3    H2 9568   5.146   4.718   4.462
 3202TIP3   OH2 9569   0.135   3.165   5.663
 3202TIP3    H1 9570   0.191   3.183   5.588
 3202TIP3    H2 9571   0.188   3.108   5.719
 3203TIP3   OH2 9572   4.049   5.135   3.248
 3203TIP3    H1 9573   4.107   5.182   3.308
 3203TIP3    H2 9574   4.035   5.051   3.290
 3204TIP3   OH2 9575   0.721   4.020   2.765
 3204TIP3    H1 9576   0.667   4.021   2.844
 3204TIP3    H2 9577   0.739   3.928   2.749
 3205TIP3   OH2 9578   2.386   5.863   2.152
 3205TIP3    H1 9579   2.425   5.948   2.169
 3205TIP3    H2 9580   2.460   5.806   2.130
 3206TIP3   OH2 9581   2.890   2.048   2.596
 3206TIP3    H1 9582   2.896   2.123   2.655
 3206TIP3    H2 9583   2.946   2.071   2.522
 3207TIP3   OH2 9584   1.322   1.086   0.238
 3207TIP3    H1 9585   1.278   1.171   0.229
 3207TIP3    H2 9586   1.414   1.109   0.251
 3208TIP3   OH2 9587   5.421   2.979   3.362
 3208TIP3    H1 9588   5.400   2.978   3.455
 3208TIP3    H2 9589   5.346   3.022   3.321
 3209TIP3   OH2 9590   4.054   2.052   2.275
 3209TIP3    H1 9591   4.120   2.003   2.225
 3209TIP3    H2 9592   4.100   2.079   2.354
 3210TIP3   OH2 9593   2.090   0.204   1.609
 3210TIP3    H1 9594   1.999   0.182   1.587
 3210TIP3    H2 9595   2.100   0.171   1.699
 3211TIP3   OH2 9596   6.282   3.636   3.505
 3211TIP3    H1 9597   6.275   3.571   3.574
 3211TIP3    H2 9598   6.211   3.697   3.523
 3212TIP3   OH2 9599   3.983   0.233   1.404
 3212TIP3    H1 9600   3.924   0.297   1.443
 3212TIP3    H2 9601   3.929   0.154   1.394
 3213TIP3   OH2 9602   6.824   4.120   2.880
 3213TIP3    H1 9603   6.829   4.027   2.901
 3213TIP3    H2 9604   6.806   4.163   2.963
 3214TIP3   OH2 9605   3.658   4.019   0.990
 3214TIP3    H1 9606   3.574   4.018   0.945
 3214TIP3    H2 9607   3.723   4.015   0.920
 3215TIP3   OH2 9608   0.382   0.773   5.630
 3215TIP3    H1 9609   0.310   0.830   5.601
 3215TIP3    H2 9610   0.415   0.815   5.709
 3216TIP3   OH2 9611   2.362   1.342   1.280
 3216TIP3    H1 9612   2.393   1.338   1.370
 3216TIP3    H2 9613   2.438   1.315   1.227
 3217TIP3   OH2 9614   6.779   3.184   0.238
 3217TIP3    H1 9615   6.772   3.096   0.203
 3217TIP3    H2 9616   6.712   3.189   0.306
 3218TIP3   OH2 9617   2.249   1.814   5.035
 3218TIP3    H1 9618   2.160   1.845   5.020
 3218TIP3    H2 9619   2.263   1.747   4.968
 3219TIP3   OH2 9620   2.365   3.664   2.114
 3219TIP3    H1 9621   2.271   3.649   2.128
 3219TIP3    H2 9622   2.384   3.742   2.166
 3220TIP3   OH2 9623   5.116   1.527   5.888
 3220TIP3    H1 9624   5.051   1.585   5.927
 3220TIP3    H2 9625   5.068   1.447   5.867
 3221TIP3   OH2 9626   2.817   3.757   1.129
 3221TIP3    H1 9627   2.890   3.695   1.131
 3221TIP3    H2 9628   2.858   3.842   1.143
 3222TIP3   OH2 9629   5.331   6.743   1.704
 3222TIP3    H1 9630   5.298   6.768   1.790
 3222TIP3    H2 9631   5.309   6.651   1.695
 3223TIP3   OH2 9632   5.152   2.814   2.798
 3223TIP3    H1 9633   5.176   2.883   2.737
 3223TIP3    H2 9634   5.159   2.855   2.884
 3224TIP3   OH2 9635   0.645   4.452   0.822
 3224TIP3    H1 9636   0.644   4.424   0.731
 3224TIP3    H2 9637   0.643   4.547   0.819
 3225TIP3   OH2 9638   7.011   5.667   0.470
 3225TIP3    H1 9639   6.946   5.670   0.540
 3225TIP3    H2 9640   6.959   5.674   0.389
 3226TIP3   OH2 9641   5.140   4.219   1.337
 3226TIP3    H1 9642   5.091   4.257   1.409
 3226TIP3    H2 9643   5.230   4.212   1.369
 3227TIP3   OH2 9644   7.066   3.422   2.760
 3227TIP3    H1 9645   7.084   3.346   2.816
 3227TIP3    H2 9646   7.152   3.444   2.723
 3228TIP3   OH2 9647   7.184   1.999   2.594
 3228TIP3    H1 9648   7.217   2.088   2.583
 3228TIP3    H2 9649   7.136   2.001   2.677
 3229TIP3   OH2 9650   1.397   4.205   0.054
 3229TIP3    H1 9651   1.490   4.228   0.060
 3229TIP3    H2 9652   1.389   4.123   0.103
 3230TIP3   OH2 9653   3.283   4.605   5.679
 3230TIP3    H1 9654   3.220   4.595   5.608
 3230TIP3    H2 9655   3.293   4.517   5.715
 3231TIP3   OH2 9656   0.149   1.349   3.941
 3231TIP3    H1 9657   0.208   1.398   3.998
 3231TIP3    H2 9658   0.187   1.261   3.938
 3232TIP3   OH2 9659   6.236   3.096   5.313
 3232TIP3    H1 9660   6.303   3.037   5.347
 3232TIP3    H2 9661   6.209   3.149   5.389
 3233TIP3   OH2 9662   0.252   3.252   0.966
 3233TIP3    H1 9663   0.266   3.159   0.945
 3233TIP3    H2 9664   0.212   3.251   1.053
 3234TIP3   OH2 9665   6.004   1.331   4.489
 3234TIP3    H1 9666   5.970   1.377   4.566
 3234TIP3    H2 9667   6.088   1.375   4.471
 3235TIP3   OH2 9668   3.834   5.479   5.487
 3235TIP3    H1 9669   3.844   5.459   5.394
 3235TIP3    H2 9670   3.750   5.440   5.511
 3236TIP3   OH2 9671   5.087   0.696   3.464
 3236TIP3    H1 9672   5.110   0.785   3.491
 3236TIP3    H2 9673   5.149   0.640   3.512
 3237TIP3   OH2 9674   0.458   1.693   0.041
 3237TIP3    H1 9675   0.510   1.668  -0.036
 3237TIP3    H2 9676   0.522   1.726   0.104
 3238TIP3   OH2 9677   6.447   3.846   2.020
 3238TIP3    H1 9678   6.399   3.764   2.011
 3238TIP3    H2 9679   6.538   3.823   2.001
 3239TIP3   OH2 9680   6.700   4.337   2.246
 3239TIP3    H1 9681   6.721   4.326   2.339
 3239TIP3    H2 9682   6.691   4.248   2.212
 3240TIP3   OH2 9683   7.063   1.604   5.129
 3240TIP3    H1 9684   7.089   1.614   5.221
 3240TIP3    H2 9685   7.095   1.683   5.086
 3241TIP3   OH2 9686   7.007   1.051   4.986
 3241TIP3    H1 9687   7.033   1.082   4.899
 3241TIP3    H2 9688   7.089   1.027   5.029
 3242TIP3   OH2 9689   3.860   4.251   2.826
 3242TIP3    H1 9690   3.914   4.216   2.896
 3242TIP3    H2 9691   3.921   4.299   2.770
 3243TIP3   OH2 9692   6.415   4.566   5.648
 3243TIP3    H1 9693   6.368   4.512   5.584
 3243TIP3    H2 9694   6.361   4.562   5.727
 3244TIP3   OH2 9695   2.468   0.199   2.087
 3244TIP3    H1 9696   2.394   0.230   2.140
 3244TIP3    H2 9697   2.540   0.191   2.150
 3245TIP3   OH2 9698   1.841   1.608   2.841
 3245TIP3    H1 9699   1.934   1.631   2.851
 3245TIP3    H2 9700   1.841   1.514   2.827
 3246TIP3   OH2 9701   6.450   0.146   3.247
 3246TIP3    H1 9702   6.487   0.221   3.294
 3246TIP3    H2 9703   6.446   0.076   3.313
 3247TIP3   OH2 9704   3.860   1.456   5.259
 3247TIP3    H1 9705   3.796   1.498   5.317
 3247TIP3    H2 9706   3.912   1.528   5.224
 3248TIP3   OH2 9707   3.680   0.715   0.384
 3248TIP3    H1 9708   3.621   0.666   0.440
 3248TIP3    H2 9709   3.663   0.807   0.406
 3249TIP3   OH2 9710   5.621   4.128   1.226
 3249TIP3    H1 9711   5.672   4.131   1.307
 3249TIP3    H2 9712   5.618   4.219   1.196
 3250TIP3   OH2 9713   1.376   4.472   3.032
 3250TIP3    H1 9714   1.402   4.548   2.980
 3250TIP3    H2 9715   1.458   4.436   3.064
 3251TIP3   OH2 9716   0.491   3.244   0.666
 3251TIP3    H1 9717   0.465   3.316   0.724
 3251TIP3    H2 9718   0.533   3.181   0.725
 3252TIP3   OH2 9719   7.130   0.045   2.526
 3252TIP3    H1 9720   7.162   0.131   2.499
 3252TIP3    H2 9721   7.208  -0.010   2.530
 3253TIP3   OH2 9722   4.971   5.607   1.155
 3253TIP3    H1 9723   4.915   5.552   1.100
 3253TIP3    H2 9724   4.911   5.672   1.192
 3254TIP3   OH2 9725   5.253   4.757   4.606
 3254TIP3    H1 9726   5.305   4.709   4.541
 3254TIP3    H2 9727   5.228   4.691   4.670
 3255TIP3   OH2 9728   3.240   6.728   1.846
 3255TIP3    H1 9729   3.154   6.772   1.838
 3255TIP3    H2 9730   3.303   6.799   1.837
 3256TIP3   OH2 9731   5.286   0.954   1.543
 3256TIP3    H1 9732   5.216   0.984   1.486
 3256TIP3    H2 9733   5.265   0.862   1.560
 3257TIP3   OH2 9734   0.718   2.976   1.223
 3257TIP3    H1 9735   0.654   3.046   1.211
 3257TIP3    H2 9736   0.750   2.958   1.134
 3258TIP3   OH2 9737   2.408   0.784   0.559
 3258TIP3    H1 9738   2.392   0.820   0.646
 3258TIP3    H2 9739   2.372   0.695   0.562
 3259TIP3   OH2 9740   1.504   5.486   4.962
 3259TIP3    H1 9741   1.500   5.509   4.869
 3259TIP3    H2 9742   1.413   5.468   4.986
 3260TIP3   OH2 9743   1.969   3.619   5.928
 3260TIP3    H1 9744   2.038   3.589   5.869
 3260TIP3    H2 9745   1.973   3.714   5.924
 3261TIP3   OH2 9746   4.834   3.380   2.458
 3261TIP3    H1 9747   4.916   3.372   2.409
 3261TIP3    H2 9748   4.853   3.445   2.526
 3262TIP3   OH2 9749   2.419   1.272   5.236
 3262TIP3    H1 9750   2.422   1.364   5.211
 3262TIP3    H2 9751   2.378   1.228   5.161
 3263TIP3   OH2 9752   2.548   0.444   4.216
 3263TIP3    H1 9753   2.469   0.423   4.267
 3263TIP3    H2 9754   2.527   0.527   4.175
 3264TIP3   OH2 9755   0.715   2.048   0.531
 3264TIP3    H1 9756   0.713   1.985   0.458
 3264TIP3    H2 9757   0.806   2.076   0.536
 3265TIP3   OH2 9758   2.762   5.919   1.033
 3265TIP3    H1 9759   2.712   5.894   0.955
 3265TIP3    H2 9760   2.749   6.013   1.040
 3266TIP3   OH2 9761   0.611   3.658   3.745
 3266TIP3    H1 9762   0.700   3.689   3.761
 3266TIP3    H2 9763   0.576   3.638   3.832
 3267TIP3   OH2 9764   5.680   2.677   0.029
 3267TIP3    H1 9765   5.750   2.628   0.071
 3267TIP3    H2 9766   5.600   2.642   0.069
 3268TIP3   OH2 9767   6.175   6.818   3.352
 3268TIP3    H1 9768   6.088   6.779   3.342
 3268TIP3    H2 9769   6.217   6.807   3.267
 3269TIP3   OH2 9770   2.074   0.585   0.387
 3269TIP3    H1 9771   2.127   0.646   0.336
 3269TIP3    H2 9772   2.027   0.534   0.320
 3270TIP3   OH2 9773   3.438   5.352   5.304
 3270TIP3    H1 9774   3.464   5.369   5.395
 3270TIP3    H2 9775   3.521   5.334   5.259
 3271TIP3   OH2 9776   6.234   3.392   2.332
 3271TIP3    H1 9777   6.203   3.339   2.259
 3271TIP3    H2 9778   6.281   3.331   2.388
 3272TIP3   OH2 9779   4.633   3.813   4.121
 3272TIP3    H1 9780   4.728   3.815   4.124
 3272TIP3    H2 9781   4.605   3.877   4.187
 3273TIP3   OH2 9782   1.052   1.816   0.751
 3273TIP3    H1 9783   1.076   1.732   0.790
 3273TIP3    H2 9784   1.012   1.865   0.822
 3274TIP3   OH2 9785   5.628   4.715   4.482
 3274TIP3    H1 9786   5.645   4.663   4.560
 3274TIP3    H2 9787   5.699   4.692   4.422
 3275TIP3   OH2 9788   0.040   5.817   5.183
 3275TIP3    H1 9789   0.045   5.736   5.234
 3275TIP3    H2 9790   0.096   5.802   5.107
 3276TIP3   OH2 9791   3.791   2.100   1.156
 3276TIP3    H1 9792   3.742   2.140   1.084
 3276TIP3    H2 9793   3.844   2.032   1.114
 3277TIP3   OH2 9794   1.397   1.565   0.643
 3277TIP3    H1 9795   1.380   1.657   0.665
 3277TIP3    H2 9796   1.482   1.546   0.683
 3278TIP3   OH2 9797   1.585   3.115   1.118
 3278TIP3    H1 9798   1.605   3.026   1.148
 3278TIP3    H2 9799   1.658   3.168   1.148
 3279TIP3   OH2 9800   3.000   0.752   1.904
 3279TIP3    H1 9801   2.957   0.674   1.869
 3279TIP3    H2 9802   3.057   0.718   1.974
 3280TIP3   OH2 9803   6.774   4.536   1.756
 3280TIP3    H1 9804   6.853   4.482   1.767
 3280TIP3    H2 9805   6.719   4.512   1.831
 3281TIP3   OH2 9806   4.915   2.883   5.245
 3281TIP3    H1 9807   4.964   2.963   5.225
 3281TIP3    H2 9808   4.836   2.889   5.191
 3282TIP3   OH2 9809   4.872   0.151   0.484
 3282TIP3    H1 9810   4.901   0.165   0.394
 3282TIP3    H2 9811   4.932   0.085   0.518
 3283TIP3   OH2 9812   5.566   4.206   4.694
 3283TIP3    H1 9813   5.560   4.214   4.789
 3283TIP3    H2 9814   5.487   4.158   4.669
 3284TIP3   OH2 9815   2.570   6.430   5.788
 3284TIP3    H1 9816   2.519   6.353   5.814
 3284TIP3    H2 9817   2.561   6.490   5.861
 3285TIP3   OH2 9818   6.097   2.198   0.588
 3285TIP3    H1 9819   6.063   2.202   0.498
 3285TIP3    H2 9820   6.131   2.286   0.605
 3286TIP3   OH2 9821   6.732   5.964   0.702
 3286TIP3    H1 9822   6.663   6.029   0.720
 3286TIP3    H2 9823   6.697   5.911   0.631
 3287TIP3   OH2 9824   5.036   4.484   0.789
 3287TIP3    H1 9825   5.080   4.477   0.874
 3287TIP3    H2 9826   5.033   4.394   0.756
 3288TIP3   OH2 9827   4.776   3.578   3.744
 3288TIP3    H1 9828   4.713   3.605   3.677
 3288TIP3    H2 9829   4.801   3.659   3.788
 3289TIP3   OH2 9830   3.797   6.273   2.432
 3289TIP3    H1 9831   3.844   6.208   2.380
 3289TIP3    H2 9832   3.706   6.267   2.403
 3290TIP3   OH2 9833   5.054   0.591   2.246
 3290TIP3    H1 9834   5.003   0.659   2.290
 3290TIP3    H2 9835   5.016   0.508   2.275
 3291TIP3   OH2 9836   0.732   6.026   4.355
 3291TIP3    H1 9837   0.685   6.025   4.271
 3291TIP3    H2 9838   0.809   5.971   4.340
 3292TIP3   OH2 9839   2.839   6.099   5.042
 3292TIP3    H1 9840   2.834   6.099   4.947
 3292TIP3    H2 9841   2.811   6.011   5.068
 3293TIP3   OH2 9842   6.465   5.338   3.018
 3293TIP3    H1 9843   6.402   5.293   3.073
 3293TIP3    H2 9844   6.476   5.281   2.942
 3294TIP3   OH2 9845   1.516   2.378   0.860
 3294TIP3    H1 9846   1.603   2.377   0.821
 3294TIP3    H2 9847   1.523   2.320   0.937
 3295TIP3   OH2 9848   3.439   2.117   0.684
 3295TIP3    H1 9849   3.374   2.075   0.739
 3295TIP3    H2 9850   3.415   2.210   0.684
 3296TIP3   OH2 9851   5.110   2.406   1.284
 3296TIP3    H1 9852   5.119   2.312   1.303
 3296TIP3    H2 9853   5.098   2.410   1.189
 3297TIP3   OH2 9854   2.794   1.947   0.771
 3297TIP3    H1 9855   2.720   1.959   0.711
 3297TIP3    H2 9856   2.785   1.858   0.803
 3298TIP3   OH2 9857   2.838   5.275   1.875
 3298TIP3    H1 9858   2.779   5.243   1.944
 3298TIP3    H2 9859   2.910   5.212   1.874
 3299TIP3   OH2 9860   1.739   4.751   0.963
 3299TIP3    H1 9861   1.805   4.816   0.984
 3299TIP3    H2 9862   1.655   4.797   0.971
 3300TIP3   OH2 9863   4.263   0.639   3.669
 3300TIP3    H1 9864   4.322   0.701   3.711
 3300TIP3    H2 9865   4.198   0.619   3.736
 3301TIP3   OH2 9866   3.436   3.825   3.569
 3301TIP3    H1 9867   3.485   3.885   3.625
 3301TIP3    H2 9868   3.497   3.803   3.498
 3302TIP3   OH2 9869   3.202   0.332   3.416
 3302TIP3    H1 9870   3.294   0.305   3.423
 3302TIP3    H2 9871   3.183   0.375   3.499
 3303TIP3   OH2 9872   1.759   4.745   4.838
 3303TIP3    H1 9873   1.755   4.728   4.744
 3303TIP3    H2 9874   1.853   4.744   4.859
 3304TIP3   OH2 9875   1.732   3.080   4.103
 3304TIP3    H1 9876   1.680   3.157   4.128
 3304TIP3    H2 9877   1.697   3.054   4.018
 3305TIP3   OH2 9878   6.751   6.529   3.133
 3305TIP3    H1 9879   6.818   6.475   3.175
 3305TIP3    H2 9880   6.774   6.527   3.040
 3306TIP3   OH2 9881   3.821   2.986   5.622
 3306TIP3    H1 9882   3.812   2.987   5.527
 3306TIP3    H2 9883   3.736   2.954   5.654
 3307TIP3   OH2 9884   6.872   4.324   2.465
 3307TIP3    H1 9885   6.926   4.292   2.537
 3307TIP3    H2 9886   6.911   4.286   2.387
 3308TIP3   OH2 9887   6.458   0.512   5.245
 3308TIP3    H1 9888   6.528   0.577   5.251
 3308TIP3    H2 9889   6.494   0.444   5.187
 3309TIP3   OH2 9890   2.054   0.305   5.727
 3309TIP3    H1 9891   2.029   0.397   5.726
 3309TIP3    H2 9892   2.114   0.295   5.653
 3310TIP3   OH2 9893   6.654   5.755   5.302
 3310TIP3    H1 9894   6.631   5.837   5.346
 3310TIP3    H2 9895   6.574   5.703   5.303
 3311TIP3   OH2 9896   1.266   6.360   5.186
 3311TIP3    H1 9897   1.283   6.431   5.124
 3311TIP3    H2 9898   1.177   6.333   5.168
 3312TIP3   OH2 9899   2.472   3.879   3.019
 3312TIP3    H1 9900   2.561   3.890   2.986
 3312TIP3    H2 9901   2.416   3.903   2.945
 3313TIP3   OH2 9902   0.974   6.149   0.242
 3313TIP3    H1 9903   0.988   6.076   0.302
 3313TIP3    H2 9904   1.011   6.225   0.288
 3314TIP3   OH2 9905   6.527   3.937   2.951
 3314TIP3    H1 9906   6.613   3.911   2.920
 3314TIP3    H2 9907   6.539   3.954   3.045
 3315TIP3   OH2 9908   1.439   4.716   1.208
 3315TIP3    H1 9909   1.349   4.726   1.239
 3315TIP3    H2 9910   1.431   4.703   1.114
 3316TIP3   OH2 9911   7.098   3.670   3.953
 3316TIP3    H1 9912   7.193   3.680   3.949
 3316TIP3    H2 9913   7.064   3.758   3.936
 3317TIP3   OH2 9914  -0.068   6.576   5.374
 3317TIP3    H1 9915   0.017   6.595   5.414
 3317TIP3    H2 9916  -0.050   6.503   5.314
 3318TIP3   OH2 9917   2.981   6.291   3.340
 3318TIP3    H1 9918   2.958   6.199   3.342
 3318TIP3    H2 9919   2.920   6.333   3.401
 3319TIP3   OH2 9920   4.787   6.667   2.082
 3319TIP3    H1 9921   4.749   6.620   2.008
 3319TIP3    H2 9922   4.721   6.661   2.151
 3320TIP3   OH2 9923   4.407   3.596   2.836
 3320TIP3    H1 9924   4.341   3.664   2.850
 3320TIP3    H2 9925   4.469   3.634   2.773
 3321TIP3   OH2 9926   1.180   1.617   4.999
 3321TIP3    H1 9927   1.187   1.556   4.926
 3321TIP3    H2 9928   1.086   1.632   5.008
 3322TIP3   OH2 9929   3.599   1.580   5.392
 3322TIP3    H1 9930   3.526   1.519   5.402
 3322TIP3    H2 9931   3.562   1.666   5.414
 3323TIP3   OH2 9932   5.868   3.282   0.148
 3323TIP3    H1 9933   5.778   3.287   0.114
 3323TIP3    H2 9934   5.921   3.325   0.081
 3324TIP3   OH2 9935   6.823   2.949   3.851
 3324TIP3    H1 9936   6.732   2.969   3.828
 3324TIP3    H2 9937   6.816   2.903   3.935
 3325TIP3   OH2 9938   5.719   5.972   0.345
 3325TIP3    H1 9939   5.678   6.052   0.377
 3325TIP3    H2 9940   5.756   5.931   0.423
 3326TIP3   OH2 9941   6.836   0.105   3.205
 3326TIP3    H1 9942   6.770   0.037   3.191
 3326TIP3    H2 9943   6.906   0.060   3.253
 3327TIP3   OH2 9944   1.974   0.160   0.595
 3327TIP3    H1 9945   1.894   0.207   0.618
 3327TIP3    H2 9946   2.045   0.220   0.620
 3328TIP3   OH2 9947   3.771   5.827   0.141
 3328TIP3    H1 9948   3.819   5.905   0.112
 3328TIP3    H2 9949   3.784   5.826   0.236
 3329TIP3   OH2 9950   6.327   3.769   2.585
 3329TIP3    H1 9951   6.337   3.690   2.638
 3329TIP3    H2 9952   6.328   3.840   2.649
 3330TIP3   OH2 9953   3.106   4.519   4.851
 3330TIP3    H1 9954   3.035   4.466   4.816
 3330TIP3    H2 9955   3.121   4.586   4.785
 3331TIP3   OH2 9956   6.639   4.884   0.327
 3331TIP3    H1 9957   6.562   4.841   0.290
 3331TIP3    H2 9958   6.638   4.972   0.289
 3332TIP3   OH2 9959   0.556   1.691   5.161
 3332TIP3    H1 9960   0.558   1.596   5.163
 3332TIP3    H2 9961   0.603   1.719   5.239
 3333TIP3   OH2 9962   2.810   6.331   4.239
 3333TIP3    H1 9963   2.767   6.274   4.303
 3333TIP3    H2 9964   2.878   6.276   4.200
 3334TIP3   OH2 9965   2.522   0.648   3.407
 3334TIP3    H1 9966   2.572   0.578   3.365
 3334TIP3    H2 9967   2.503   0.709   3.335
 3335TIP3   OH2 9968   2.092   0.598   3.109
 3335TIP3    H1 9969   2.002   0.580   3.084
 3335TIP3    H2 9970   2.085   0.661   3.181
 3336TIP3   OH2 9971   2.712   4.172   2.025
 3336TIP3    H1 9972   2.759   4.253   2.004
 3336TIP3    H2 9973   2.735   4.155   2.117
 3337TIP3   OH2 9974   7.145   3.912   5.277
 3337TIP3    H1 9975   7.207   3.946   5.211
 3337TIP3    H2 9976   7.127   3.986   5.334
 3338TIP3   OH2 9977   2.849   0.116   1.578
 3338TIP3    H1 9978   2.768   0.119   1.528
 3338TIP3    H2 9979   2.879   0.026   1.571
 3339TIP3   OH2 9980   6.212   5.485   1.318
 3339TIP3    H1 9981   6.196   5.439   1.401
 3339TIP3    H2 9982   6.126   5.519   1.292
 3340TIP3   OH2 9983   6.534   5.130   4.288
 3340TIP3    H1 9984   6.499   5.069   4.353
 3340TIP3    H2 9985   6.490   5.213   4.307
 3341TIP3   OH2 9986   2.076   5.944   1.770
 3341TIP3    H1 9987   2.172   5.944   1.774
 3341TIP3    H2 9988   2.049   5.877   1.833
 3342TIP3   OH2 9989   1.069   5.948   2.751
 3342TIP3    H1 9990   1.083   5.910   2.838
 3342TIP3    H2 9991   1.157   5.954   2.714
 3343TIP3   OH2 9992   3.609   2.443   2.627
 3343TIP3    H1 9993   3.516   2.436   2.646
 3343TIP3    H2 9994   3.631   2.534   2.648
 3344TIP3   OH2 9995   5.981   1.391   0.513
 3344TIP3    H1 9996   5.896   1.357   0.483
 3344TIP3    H2 9997   6.022   1.425   0.434
 3345TIP3   OH2 9998   2.430   0.533   5.503
 3345TIP3    H1 9999   2.497   0.539   5.571
 3345TIP3    H210000   2.461   0.463   5.446
 3346TIP3   OH210001   2.836   5.768   4.444
 3346TIP3    H110002   2.911   5.759   4.503
 3346TIP3    H210003   2.871   5.813   4.367
 3347TIP3   OH210004   4.735   3.102   0.358
 3347TIP3    H110005   4.645   3.119   0.331
 3347TIP3    H210006   4.748   3.156   0.436
 3348TIP3   OH210007   2.702   5.219   2.426
 3348TIP3    H110008   2.742   5.152   2.481
 3348TIP3    H210009   2.648   5.169   2.364
 3349TIP3   OH210010   2.171   2.906   3.835
 3349TIP3    H110011   2.199   2.815   3.834
 3349TIP3    H210012   2.242   2.952   3.879
 3350TIP3   OH210013   0.335   1.047   1.635
 3350TIP3    H110014   0.275   1.114   1.669
 3350TIP3    H210015   0.416   1.061   1.684
 3351TIP3   OH210016   3.891   6.597   3.928
 3351TIP3    H110017   3.833   6.604   4.004
 3351TIP3    H210018   3.926   6.508   3.932
 3352TIP3   OH210019   6.571   1.197   3.812
 3352TIP3    H110020   6.572   1.117   3.760
 3352TIP3    H210021   6.600   1.170   3.899
 3353TIP3   OH210022   0.154   4.866   2.542
 3353TIP3    H110023   0.202   4.948   2.539
 3353TIP3    H210024   0.182   4.825   2.624
 3354TIP3   OH210025   4.826   2.040   2.981
 3354TIP3    H110026   4.861   1.961   2.940
 3354TIP3    H210027   4.756   2.069   2.922
 3355TIP3   OH210028   4.415   2.866   2.911
 3355TIP3    H110029   4.363   2.787   2.898
 3355TIP3    H210030   4.399   2.918   2.832
 3356TIP3   OH210031   2.978   4.035   0.272
 3356TIP3    H110032   3.071   4.016   0.259
 3356TIP3    H210033   2.968   4.044   0.367
 3357TIP3   OH210034   6.252   4.577   0.386
 3357TIP3    H110035   6.326   4.531   0.427
 3357TIP3    H210036   6.193   4.507   0.358
 3358TIP3   OH210037   5.075   2.831   1.158
 3358TIP3    H110038   5.107   2.871   1.239
 3358TIP3    H210039   4.990   2.872   1.143
 3359TIP3   OH210040   6.409   2.305   2.551
 3359TIP3    H110041   6.433   2.300   2.458
 3359TIP3    H210042   6.342   2.373   2.555
 3360TIP3   OH210043   3.738   3.079   3.591
 3360TIP3    H110044   3.833   3.082   3.599
 3360TIP3    H210045   3.722   3.084   3.496
 3361TIP3   OH210046   2.299   3.256   3.194
 3361TIP3    H110047   2.388   3.280   3.168
 3361TIP3    H210048   2.246   3.271   3.116
 3362TIP3   OH210049   0.205   1.439   5.452
 3362TIP3    H110050   0.143   1.452   5.524
 3362TIP3    H210051   0.152   1.400   5.382
 3363TIP3   OH210052   6.801   2.799   4.074
 3363TIP3    H110053   6.869   2.765   4.015
 3363TIP3    H210054   6.799   2.737   4.147
 3364TIP3   OH210055   1.185   3.893   1.981
 3364TIP3    H110056   1.276   3.884   1.952
 3364TIP3    H210057   1.192   3.922   2.071
 3365TIP3   OH210058   6.652   1.804   0.754
 3365TIP3    H110059   6.648   1.870   0.823
 3365TIP3    H210060   6.616   1.725   0.794
 3366TIP3   OH210061   1.046   3.849   5.633
 3366TIP3    H110062   1.109   3.843   5.704
 3366TIP3    H210063   1.085   3.798   5.562
 3367TIP3   OH210064   6.630   3.554   4.169
 3367TIP3    H110065   6.681   3.532   4.247
 3367TIP3    H210066   6.598   3.643   4.186
 3368TIP3   OH210067   3.677   2.614   2.110
 3368TIP3    H110068   3.682   2.527   2.070
 3368TIP3    H210069   3.727   2.607   2.191
 3369TIP3   OH210070   2.784   6.110   3.858
 3369TIP3    H110071   2.723   6.051   3.903
 3369TIP3    H210072   2.859   6.116   3.917
 3370TIP3   OH210073   6.346   1.982   0.012
 3370TIP3    H110074   6.334   1.924  -0.063
 3370TIP3    H210075   6.264   2.031   0.018
 3371TIP3   OH210076   1.115   4.914   5.417
 3371TIP3    H110077   1.117   4.837   5.474
 3371TIP3    H210078   1.201   4.915   5.375
 3372TIP3   OH210079   3.126   2.852   3.218
 3372TIP3    H110080   3.052   2.898   3.258
 3372TIP3    H210081   3.198   2.915   3.223
 3373TIP3   OH210082   4.212   1.967   3.943
 3373TIP3    H110083   4.148   1.910   3.901
 3373TIP3    H210084   4.164   2.046   3.965
 3374TIP3   OH210085   4.999   4.910   4.205
 3374TIP3    H110086   5.019   4.999   4.233
 3374TIP3    H210087   5.055   4.855   4.260
 3375TIP3   OH210088   5.668   0.384   4.452
 3375TIP3    H110089   5.657   0.392   4.357
 3375TIP3    H210090   5.740   0.442   4.474
 3376TIP3   OH210091   5.951   5.342   1.035
 3376TIP3    H110092   5.948   5.296   1.119
 3376TIP3    H210093   5.881   5.302   0.984
 3377TIP3   OH210094   2.075   5.456   1.613
 3377TIP3    H110095   2.116   5.469   1.527
 3377TIP3    H210096   2.069   5.544   1.650
 3378TIP3   OH210097   0.195   1.559   1.566
 3378TIP3    H110098   0.286   1.547   1.594
 3378TIP3    H210099   0.200   1.612   1.487
 3379TIP3   OH210100   4.150   4.634   0.625
 3379TIP3    H110101   4.216   4.565   0.623
 3379TIP3    H210102   4.187   4.700   0.684
 3380TIP3   OH210103   5.868   4.427   1.652
 3380TIP3    H110104   5.924   4.475   1.713
 3380TIP3    H210105   5.809   4.377   1.709
 3381TIP3   OH210106   2.185   1.531   0.884
 3381TIP3    H110107   2.115   1.586   0.919
 3381TIP3    H210108   2.214   1.479   0.959
 3382TIP3   OH210109   4.532   1.359   0.713
 3382TIP3    H110110   4.484   1.381   0.633
 3382TIP3    H210111   4.580   1.280   0.691
 3383TIP3   OH210112   0.894   4.874   2.907
 3383TIP3    H110113   0.861   4.899   2.821
 3383TIP3    H210114   0.817   4.878   2.964
 3384TIP3   OH210115   7.068   1.234   2.365
 3384TIP3    H110116   7.091   1.221   2.273
 3384TIP3    H210117   6.976   1.210   2.370
 3385TIP3   OH210118   1.566   2.945   5.699
 3385TIP3    H110119   1.560   2.849   5.706
 3385TIP3    H210120   1.652   2.966   5.735
 3386TIP3   OH210121   1.944   1.860   3.123
 3386TIP3    H110122   2.022   1.878   3.071
 3386TIP3    H210123   1.968   1.884   3.213
 3387TIP3   OH210124   0.320   2.587   3.340
 3387TIP3    H110125   0.299   2.632   3.258
 3387TIP3    H210126   0.241   2.538   3.361
 3388TIP3   OH210127   1.690   4.846   3.718
 3388TIP3    H110128   1.756   4.893   3.667
 3388TIP3    H210129   1.607   4.886   3.694
 3389TIP3   OH210130   4.969   6.678   5.562
 3389TIP3    H110131   4.936   6.726   5.486
 3389TIP3    H210132   4.891   6.638   5.600
 3390TIP3   OH210133   4.041   6.243   2.904
 3390TIP3    H110134   3.982   6.270   2.834
 3390TIP3    H210135   4.129   6.251   2.867
 3391TIP3   OH210136   5.394   4.054   3.130
 3391TIP3    H110137   5.452   4.045   3.054
 3391TIP3    H210138   5.446   4.100   3.195
 3392TIP3   OH210139   4.530   1.078   0.933
 3392TIP3    H110140   4.590   1.119   0.995
 3392TIP3    H210141   4.549   1.120   0.849
 3393TIP3   OH210142   1.690   3.488   4.220
 3393TIP3    H110143   1.648   3.436   4.151
 3393TIP3    H210144   1.666   3.444   4.301
 3394TIP3   OH210145   5.065   4.634   3.811
 3394TIP3    H110146   5.021   4.616   3.895
 3394TIP3    H210147   5.085   4.727   3.814
 3395TIP3   OH210148   1.276   5.521   1.048
 3395TIP3    H110149   1.237   5.464   0.982
 3395TIP3    H210150   1.221   5.599   1.049
 3396TIP3   OH210151   3.715   6.280   0.046
 3396TIP3    H110152   3.649   6.226   0.003
 3396TIP3    H210153   3.677   6.301   0.131
 3397TIP3   OH210154   0.199   2.666   2.505
 3397TIP3    H110155   0.257   2.667   2.582
 3397TIP3    H210156   0.163   2.755   2.502
 3398TIP3   OH210157   1.629   0.452   5.888
 3398TIP3    H110158   1.590   0.532   5.922
 3398TIP3    H210159   1.563   0.384   5.904
 3399TIP3   OH210160   4.834   5.881   0.400
 3399TIP3    H110161   4.861   5.873   0.308
 3399TIP3    H210162   4.768   5.813   0.411
 3400TIP3   OH210163   1.152   5.446   3.865
 3400TIP3    H110164   1.228   5.495   3.834
 3400TIP3    H210165   1.121   5.397   3.789
 3401TIP3   OH210166   6.522   3.509   3.895
 3401TIP3    H110167   6.518   3.419   3.927
 3401TIP3    H210168   6.536   3.563   3.973
 3402TIP3   OH210169   5.078   1.278   1.738
 3402TIP3    H110170   5.037   1.195   1.761
 3402TIP3    H210171   5.044   1.340   1.802
 3403TIP3   OH210172   3.016   5.396   5.374
 3403TIP3    H110173   3.070   5.447   5.435
 3403TIP3    H210174   2.932   5.385   5.420
 3404TIP3   OH210175   1.499   3.743   1.867
 3404TIP3    H110176   1.478   3.650   1.859
 3404TIP3    H210177   1.430   3.787   1.818
 3405TIP3   OH210178   0.525   3.206   1.151
 3405TIP3    H110179   0.553   3.289   1.191
 3405TIP3    H210180   0.455   3.174   1.208
 3406TIP3   OH210181   2.223   0.867   1.922
 3406TIP3    H110182   2.287   0.897   1.987
 3406TIP3    H210183   2.274   0.858   1.842
 3407TIP3   OH210184   5.204   2.189   3.316
 3407TIP3    H110185   5.295   2.183   3.286
 3407TIP3    H210186   5.155   2.136   3.253
 3408TIP3   OH210187   2.775   6.731   3.156
 3408TIP3    H110188   2.830   6.804   3.128
 3408TIP3    H210189   2.713   6.771   3.218
 3409TIP3   OH210190   5.627   1.205   3.066
 3409TIP3    H110191   5.585   1.177   3.147
 3409TIP3    H210192   5.577   1.161   2.997
 3410TIP3   OH210193   1.176   3.704   1.093
 3410TIP3    H110194   1.159   3.610   1.103
 3410TIP3    H210195   1.237   3.709   1.019
 3411TIP3   OH210196   4.524   6.671   2.313
 3411TIP3    H110197   4.477   6.658   2.231
 3411TIP3    H210198   4.501   6.760   2.340
 3412TIP3   OH210199   4.620   1.523   2.706
 3412TIP3    H110200   4.676   1.551   2.634
 3412TIP3    H210201   4.583   1.604   2.741
 3413TIP3   OH210202   5.258   5.767   2.516
 3413TIP3    H110203   5.191   5.831   2.542
 3413TIP3    H210204   5.211   5.703   2.464
 3414TIP3   OH210205   3.109   0.975   2.616
 3414TIP3    H110206   3.056   1.042   2.572
 3414TIP3    H210207   3.192   0.977   2.568
 3415TIP3   OH210208   6.891   4.784   3.173
 3415TIP3    H110209   6.906   4.809   3.265
 3415TIP3    H210210   6.815   4.836   3.146
 3416TIP3   OH210211   2.887   5.660   0.203
 3416TIP3    H110212   2.798   5.688   0.181
 3416TIP3    H210213   2.944   5.721   0.157
 3417TIP3   OH210214   4.021   0.610   2.430
 3417TIP3    H110215   3.957   0.674   2.401
 3417TIP3    H210216   4.044   0.639   2.519
 3418TIP3   OH210217   5.500   5.283   5.159
 3418TIP3    H110218   5.444   5.205   5.171
 3418TIP3    H210219   5.440   5.351   5.130
 3419TIP3   OH210220   4.177   0.287   0.503
 3419TIP3    H110221   4.105   0.349   0.517
 3419TIP3    H210222   4.218   0.316   0.421
 3420TIP3   OH210223   1.682   5.139   5.585
 3420TIP3    H110224   1.739   5.076   5.539
 3420TIP3    H210225   1.739   5.182   5.648
 3421TIP3   OH210226   1.366   6.376   0.387
 3421TIP3    H110227   1.403   6.430   0.318
 3421TIP3    H210228   1.411   6.405   0.467
 3422TIP3   OH210229   0.335   3.388   5.817
 3422TIP3    H110230   0.329   3.368   5.911
 3422TIP3    H210231   0.258   3.442   5.799
 3423TIP3   OH210232   3.008   6.460   1.290
 3423TIP3    H110233   3.031   6.402   1.364
 3423TIP3    H210234   2.953   6.528   1.329
 3424TIP3   OH210235   2.773   5.852   3.443
 3424TIP3    H110236   2.812   5.793   3.379
 3424TIP3    H210237   2.835   5.853   3.516
 3425TIP3   OH210238   0.877   1.183   4.425
 3425TIP3    H110239   0.889   1.160   4.333
 3425TIP3    H210240   0.965   1.205   4.455
 3426TIP3   OH210241   5.660   4.978   2.986
 3426TIP3    H110242   5.716   4.945   2.915
 3426TIP3    H210243   5.623   4.899   3.025
 3427TIP3   OH210244   6.301   2.105   1.580
 3427TIP3    H110245   6.342   2.038   1.634
 3427TIP3    H210246   6.214   2.070   1.561
 3428TIP3   OH210247   0.722   4.187   5.475
 3428TIP3    H110248   0.744   4.094   5.470
 3428TIP3    H210249   0.763   4.226   5.398
 3429TIP3   OH210250   7.037   4.247   0.562
 3429TIP3    H110251   6.946   4.265   0.587
 3429TIP3    H210252   7.058   4.165   0.606
 3430TIP3   OH210253   4.265   0.521   4.406
 3430TIP3    H110254   4.236   0.430   4.398
 3430TIP3    H210255   4.257   0.557   4.318
 3431TIP3   OH210256   7.192   1.361   0.892
 3431TIP3    H110257   7.141   1.333   0.816
 3431TIP3    H210258   7.163   1.451   0.909
 3432TIP3   OH210259   5.982   5.796   1.457
 3432TIP3    H110260   5.994   5.746   1.538
 3432TIP3    H210261   5.959   5.884   1.486
 3433TIP3   OH210262   5.530   3.005   1.694
 3433TIP3    H110263   5.473   2.960   1.631
 3433TIP3    H210264   5.501   2.974   1.780
 3434TIP3   OH210265   1.946   3.446   3.251
 3434TIP3    H110266   1.881   3.511   3.278
 3434TIP3    H210267   1.978   3.409   3.334
 3435TIP3   OH210268   0.230   5.965   2.693
 3435TIP3    H110269   0.326   5.956   2.688
 3435TIP3    H210270   0.210   5.954   2.786
 3436TIP3   OH210271   5.918   1.754   4.842
 3436TIP3    H110272   5.993   1.697   4.860
 3436TIP3    H210273   5.950   1.814   4.774
 3437TIP3   OH210274   2.513   4.596   0.685
 3437TIP3    H110275   2.595   4.585   0.637
 3437TIP3    H210276   2.492   4.689   0.677
 3438TIP3   OH210277   4.983   3.182   0.255
 3438TIP3    H110278   4.929   3.107   0.281
 3438TIP3    H210279   4.920   3.249   0.228
 3439TIP3   OH210280   2.321   5.029   4.461
 3439TIP3    H110281   2.387   4.960   4.458
 3439TIP3    H210282   2.356   5.092   4.524
 3440TIP3   OH210283   5.638   3.821   4.022
 3440TIP3    H110284   5.589   3.743   4.047
 3440TIP3    H210285   5.601   3.891   4.076
 3441TIP3   OH210286   4.846   4.369   1.886
 3441TIP3    H110287   4.867   4.302   1.822
 3441TIP3    H210288   4.842   4.322   1.970
 3442TIP3   OH210289   6.766   2.011   5.198
 3442TIP3    H110290   6.795   1.931   5.241
 3442TIP3    H210291   6.671   2.011   5.211
 3443TIP3   OH210292   2.612   4.453   1.998
 3443TIP3    H110293   2.552   4.500   2.056
 3443TIP3    H210294   2.692   4.442   2.050
 3444TIP3   OH210295   1.755   5.193   0.257
 3444TIP3    H110296   1.817   5.151   0.317
 3444TIP3    H210297   1.785   5.283   0.250
 3445TIP3   OH210298   7.147   1.600   4.237
 3445TIP3    H110299   7.085   1.595   4.309
 3445TIP3    H210300   7.232   1.616   4.279
 3446TIP3   OH210301   2.666   1.976   0.253
 3446TIP3    H110302   2.589   1.983   0.196
 3446TIP3    H210303   2.726   2.043   0.219
 3447TIP3   OH210304   2.129   1.156   2.288
 3447TIP3    H110305   2.115   1.157   2.193
 3447TIP3    H210306   2.203   1.215   2.302
 3448TIP3   OH210307   3.386   1.625   4.575
 3448TIP3    H110308   3.387   1.696   4.639
 3448TIP3    H210309   3.364   1.548   4.626
 3449TIP3   OH210310   5.833   4.570   2.394
 3449TIP3    H110311   5.907   4.609   2.347
 3449TIP3    H210312   5.874   4.522   2.466
 3450TIP3   OH210313   6.771   0.489   4.971
 3450TIP3    H110314   6.782   0.400   5.005
 3450TIP3    H210315   6.755   0.477   4.877
 3451TIP3   OH210316   4.322   2.448   1.875
 3451TIP3    H110317   4.298   2.359   1.899
 3451TIP3    H210318   4.399   2.438   1.819
 3452TIP3   OH210319   6.354   1.653   2.666
 3452TIP3    H110320   6.312   1.592   2.726
 3452TIP3    H210321   6.282   1.699   2.624
 3453TIP3   OH210322   4.340   3.473   4.529
 3453TIP3    H110323   4.281   3.398   4.538
 3453TIP3    H210324   4.421   3.446   4.571
 3454TIP3   OH210325   4.657   1.158   0.426
 3454TIP3    H110326   4.752   1.165   0.413
 3454TIP3    H210327   4.645   1.182   0.518
 3455TIP3   OH210328   0.848   1.787   5.213
 3455TIP3    H110329   0.847   1.767   5.306
 3455TIP3    H210330   0.941   1.798   5.192
 3456TIP3   OH210331   5.102   4.212   4.809
 3456TIP3    H110332   5.073   4.290   4.857
 3456TIP3    H210333   5.054   4.140   4.850
 3457TIP3   OH210334   5.527   3.393   2.123
 3457TIP3    H110335   5.621   3.412   2.122
 3457TIP3    H210336   5.498   3.418   2.211
 3458TIP3   OH210337   1.878   1.866   3.424
 3458TIP3    H110338   1.896   1.791   3.481
 3458TIP3    H210339   1.964   1.898   3.398
 3459TIP3   OH210340   3.179   4.191   2.178
 3459TIP3    H110341   3.180   4.259   2.245
 3459TIP3    H210342   3.154   4.111   2.225
 3460TIP3   OH210343   2.975   5.073   3.396
 3460TIP3    H110344   2.899   5.030   3.357
 3460TIP3    H210345   3.049   5.016   3.374
 3461TIP3   OH210346   5.685   1.554   4.982
 3461TIP3    H110347   5.612   1.607   5.014
 3461TIP3    H210348   5.720   1.605   4.908
 3462TIP3   OH210349   5.964   4.883   0.898
 3462TIP3    H110350   6.005   4.804   0.862
 3462TIP3    H210351   6.029   4.918   0.959
 3463TIP3   OH210352   6.090   0.703   1.919
 3463TIP3    H110353   6.092   0.629   1.859
 3463TIP3    H210354   6.014   0.754   1.892
 3464TIP3   OH210355   3.446   2.703   5.128
 3464TIP3    H110356   3.539   2.683   5.136
 3464TIP3    H210357   3.439   2.753   5.046
 3465TIP3   OH210358   5.862   2.877   3.198
 3465TIP3    H110359   5.801   2.873   3.124
 3465TIP3    H210360   5.922   2.805   3.184
 3466TIP3   OH210361   6.585   3.245   3.994
 3466TIP3    H110362   6.625   3.213   4.075
 3466TIP3    H210363   6.651   3.228   3.927
 3467TIP3   OH210364   2.243   1.582   1.182
 3467TIP3    H110365   2.312   1.636   1.143
 3467TIP3    H210366   2.288   1.502   1.210
 3468TIP3   OH210367   3.107   4.489   4.160
 3468TIP3    H110368   3.155   4.571   4.155
 3468TIP3    H210369   3.153   4.438   4.226
 3469TIP3   OH210370   0.091   5.231   4.917
 3469TIP3    H110371   0.095   5.144   4.878
 3469TIP3    H210372   0.067   5.289   4.844
 3470TIP3   OH210373   1.424   3.036   2.514
 3470TIP3    H110374   1.374   2.956   2.494
 3470TIP3    H210375   1.460   3.063   2.429
 3471TIP3   OH210376   6.489   1.473   1.996
 3471TIP3    H110377   6.515   1.565   1.994
 3471TIP3    H210378   6.420   1.469   2.062
 3472TIP3   OH210379   4.399   5.099   5.743
 3472TIP3    H110380   4.327   5.157   5.769
 3472TIP3    H210381   4.392   5.092   5.648
 3473TIP3   OH210382   5.860   2.079   1.109
 3473TIP3    H110383   5.828   2.007   1.163
 3473TIP3    H210384   5.793   2.147   1.118
 3474TIP3   OH210385   6.257   0.100   5.289
 3474TIP3    H110386   6.318   0.034   5.321
 3474TIP3    H210387   6.193   0.110   5.361
 3475TIP3   OH210388   6.396   0.275   5.087
 3475TIP3    H110389   6.351   0.216   5.146
 3475TIP3    H210390   6.472   0.226   5.056
 3476TIP3   OH210391   1.945   5.315   4.904
 3476TIP3    H110392   1.886   5.367   4.958
 3476TIP3    H210393   1.888   5.267   4.845
 3477TIP3   OH210394   4.661   0.024   0.075
 3477TIP3    H110395   4.719   0.040   0.149
 3477TIP3    H210396   4.617  -0.058   0.096
 3478TIP3   OH210397   5.768   5.789   4.227
 3478TIP3    H110398   5.813   5.724   4.281
 3478TIP3    H210399   5.833   5.813   4.160
 3479TIP3   OH210400   6.079   0.471   1.774
 3479TIP3    H110401   6.040   0.473   1.687
 3479TIP3    H210402   6.173   0.481   1.759
 3480TIP3   OH210403   6.750   1.374   5.381
 3480TIP3    H110404   6.794   1.442   5.328
 3480TIP3    H210405   6.755   1.295   5.327
 3481TIP3   OH210406   5.442   5.382   0.400
 3481TIP3    H110407   5.422   5.311   0.460
 3481TIP3    H210408   5.520   5.353   0.353
 3482TIP3   OH210409   2.222   6.140   1.352
 3482TIP3    H110410   2.260   6.223   1.323
 3482TIP3    H210411   2.248   6.133   1.444
 3483TIP3   OH210412   2.103   4.818   4.157
 3483TIP3    H110413   2.191   4.835   4.123
 3483TIP3    H210414   2.095   4.722   4.157
 3484TIP3   OH210415   3.655   2.906   2.711
 3484TIP3    H110416   3.596   2.981   2.722
 3484TIP3    H210417   3.712   2.909   2.788
 3485TIP3   OH210418   3.420   1.537   2.352
 3485TIP3    H110419   3.416   1.559   2.259
 3485TIP3    H210420   3.381   1.612   2.396
 3486TIP3   OH210421   3.288   3.511   1.837
 3486TIP3    H110422   3.295   3.605   1.853
 3486TIP3    H210423   3.197   3.497   1.813
 3487TIP3   OH210424   7.012   2.925   1.253
 3487TIP3    H110425   7.056   2.854   1.205
 3487TIP3    H210426   6.952   2.963   1.189
 3488TIP3   OH210427   2.226   1.599   3.523
 3488TIP3    H110428   2.172   1.592   3.601
 3488TIP3    H210429   2.181   1.547   3.457
 3489TIP3   OH210430   5.824   3.592   5.406
 3489TIP3    H110431   5.841   3.548   5.489
 3489TIP3    H210432   5.799   3.681   5.431
 3490TIP3   OH210433   1.464   5.283   0.703
 3490TIP3    H110434   1.432   5.222   0.637
 3490TIP3    H210435   1.547   5.316   0.668
 3491TIP3   OH210436   0.244   4.044   3.006
 3491TIP3    H110437   0.193   4.091   3.071
 3491TIP3    H210438   0.186   4.037   2.930
 3492TIP3   OH210439   2.604   6.190   5.509
 3492TIP3    H110440   2.547   6.164   5.437
 3492TIP3    H210441   2.690   6.199   5.469
 3493TIP3   OH210442   3.932   0.608   1.490
 3493TIP3    H110443   3.973   0.628   1.406
 3493TIP3    H210444   3.884   0.526   1.474
 3494TIP3   OH210445   3.443   2.422   4.162
 3494TIP3    H110446   3.512   2.398   4.100
 3494TIP3    H210447   3.454   2.517   4.174
 3495TIP3   OH210448   0.326   5.714   4.394
 3495TIP3    H110449   0.305   5.749   4.481
 3495TIP3    H210450   0.242   5.692   4.355
 3496TIP3   OH210451   3.336   3.388   2.116
 3496TIP3    H110452   3.283   3.398   2.037
 3496TIP3    H210453   3.307   3.305   2.154
 3497TIP3   OH210454   0.374   1.821   2.957
 3497TIP3    H110455   0.416   1.823   3.043
 3497TIP3    H210456   0.409   1.741   2.916
 3498TIP3   OH210457   6.010   6.052   5.849
 3498TIP3    H110458   5.944   5.990   5.880
 3498TIP3    H210459   5.974   6.085   5.766
 3499TIP3   OH210460   6.758   3.049   3.523
 3499TIP3    H110461   6.736   3.113   3.590
 3499TIP3    H210462   6.676   3.005   3.504
 3500TIP3   OH210463   0.938   0.677   0.220
 3500TIP3    H110464   0.846   0.664   0.197
 3500TIP3    H210465   0.952   0.771   0.213
 3501TIP3   OH210466   6.598   0.660   3.307
 3501TIP3    H110467   6.674   0.699   3.350
 3501TIP3    H210468   6.530   0.658   3.374
 3502TIP3   OH210469   2.895   2.055   0.159
 3502TIP3    H110470   2.935   1.990   0.217
 3502TIP3    H210471   2.891   2.011   0.074
 3503TIP3   OH210472   1.768   3.889   5.886
 3503TIP3    H110473   1.863   3.891   5.872
 3503TIP3    H210474   1.733   3.847   5.807
 3504TIP3   OH210475   6.209   6.615   4.800
 3504TIP3    H110476   6.196   6.681   4.868
 3504TIP3    H210477   6.217   6.533   4.848
 3505TIP3   OH210478   2.826   6.080   3.269
 3505TIP3    H110479   2.731   6.070   3.278
 3505TIP3    H210480   2.861   5.994   3.288
 3506TIP3   OH210481  -0.006   5.611   0.913
 3506TIP3    H110482  -0.054   5.542   0.868
 3506TIP3    H210483   0.082   5.575   0.926
 3507TIP3   OH210484   6.902   5.097   5.266
 3507TIP3    H110485   6.948   5.180   5.275
 3507TIP3    H210486   6.809   5.119   5.272
 3508TIP3   OH210487   4.290   6.266   2.823
 3508TIP3    H110488   4.311   6.348   2.868
 3508TIP3    H210489   4.375   6.232   2.794
 3509TIP3   OH210490   0.921   2.106   3.032
 3509TIP3    H110491   0.950   2.049   3.103
 3509TIP3    H210492   0.957   2.066   2.953
 3510TIP3   OH210493   5.489   3.881   4.968
 3510TIP3    H110494   5.439   3.952   4.929
 3510TIP3    H210495   5.556   3.859   4.902
 3511TIP3   OH210496   5.852   5.473   4.624
 3511TIP3    H110497   5.820   5.451   4.711
 3511TIP3    H210498   5.938   5.431   4.618
 3512TIP3   OH210499   0.645   3.247   2.307
 3512TIP3    H110500   0.598   3.329   2.294
 3512TIP3    H210501   0.650   3.236   2.402
 3513TIP3   OH210502   1.042   5.707   5.374
 3513TIP3    H110503   0.960   5.719   5.327
 3513TIP3    H210504   1.034   5.760   5.453
 3514TIP3   OH210505   1.355   0.984   4.832
 3514TIP3    H110506   1.287   0.951   4.774
 3514TIP3    H210507   1.369   1.074   4.803
 3515TIP3   OH210508   2.655   1.357   4.140
 3515TIP3    H110509   2.657   1.312   4.056
 3515TIP3    H210510   2.563   1.380   4.153
 3516TIP3   OH210511   5.128   4.401   3.618
 3516TIP3    H110512   5.134   4.340   3.691
 3516TIP3    H210513   5.161   4.484   3.652
 3517TIP3   OH210514   4.917   3.354   0.069
 3517TIP3    H110515   4.835   3.384   0.030
 3517TIP3    H210516   4.967   3.320  -0.005
 3518TIP3   OH210517   2.229   3.017   0.818
 3518TIP3    H110518   2.174   2.954   0.772
 3518TIP3    H210519   2.184   3.100   0.807
 3519TIP3   OH210520   1.251   5.617   2.947
 3519TIP3    H110521   1.265   5.545   2.886
 3519TIP3    H210522   1.181   5.587   3.006
 3520TIP3   OH210523   2.006   0.043   3.009
 3520TIP3    H110524   2.018   0.089   3.092
 3520TIP3    H210525   1.996  -0.049   3.033
 3521TIP3   OH210526   0.191   1.465   2.179
 3521TIP3    H110527   0.201   1.391   2.238
 3521TIP3    H210528   0.112   1.510   2.210
 3522TIP3   OH210529   6.717   5.379   3.945
 3522TIP3    H110530   6.670   5.296   3.934
 3522TIP3    H210531   6.653   5.446   3.920
 3523TIP3   OH210532   1.790   3.692   4.402
 3523TIP3    H110533   1.723   3.673   4.468
 3523TIP3    H210534   1.770   3.632   4.330
 3524TIP3   OH210535   5.036   2.883   5.822
 3524TIP3    H110536   4.976   2.903   5.749
 3524TIP3    H210537   5.029   2.788   5.833
 3525TIP3   OH210538   1.097   2.607   5.561
 3525TIP3    H110539   1.162   2.647   5.503
 3525TIP3    H210540   1.023   2.587   5.504
 3526TIP3   OH210541   4.171   1.680   3.967
 3526TIP3    H110542   4.135   1.712   4.049
 3526TIP3    H210543   4.109   1.709   3.900
 3527TIP3   OH210544   5.337   3.813   2.983
 3527TIP3    H110545   5.259   3.762   3.008
 3527TIP3    H210546   5.333   3.891   3.037
 3528TIP3   OH210547   0.667   5.300   2.480
 3528TIP3    H110548   0.636   5.386   2.506
 3528TIP3    H210549   0.671   5.303   2.384
 3529TIP3   OH210550   5.609   6.695   2.311
 3529TIP3    H110551   5.619   6.618   2.367
 3529TIP3    H210552   5.692   6.741   2.320
 3530TIP3   OH210553   4.592   0.556   3.671
 3530TIP3    H110554   4.616   0.632   3.618
 3530TIP3    H210555   4.651   0.486   3.641
 3531TIP3   OH210556   0.394   0.824   4.991
 3531TIP3    H110557   0.312   0.828   4.941
 3531TIP3    H210558   0.366   0.809   5.081
 3532TIP3   OH210559   3.629   1.270   2.166
 3532TIP3    H110560   3.660   1.190   2.209
 3532TIP3    H210561   3.676   1.341   2.210
 3533TIP3   OH210562   3.445   0.454   5.398
 3533TIP3    H110563   3.384   0.429   5.468
 3533TIP3    H210564   3.475   0.371   5.361
 3534TIP3   OH210565   6.039   6.149   4.616
 3534TIP3    H110566   6.003   6.070   4.576
 3534TIP3    H210567   6.004   6.221   4.565
 3535TIP3   OH210568   3.541   4.206   5.141
 3535TIP3    H110569   3.588   4.191   5.059
 3535TIP3    H210570   3.461   4.154   5.133
 3536TIP3   OH210571   3.980   4.403   3.088
 3536TIP3    H110572   4.008   4.461   3.159
 3536TIP3    H210573   4.055   4.401   3.028
 3537TIP3   OH210574   5.764   2.198   1.615
 3537TIP3    H110575   5.704   2.270   1.632
 3537TIP3    H210576   5.850   2.233   1.635
 3538TIP3   OH210577   6.415   2.497   0.010
 3538TIP3    H110578   6.436   2.534  -0.076
 3538TIP3    H210579   6.353   2.559   0.048
 3539TIP3   OH210580   2.175   4.046   1.594
 3539TIP3    H110581   2.159   3.996   1.514
 3539TIP3    H210582   2.088   4.072   1.624
 3540TIP3   OH210583   2.443   3.816   0.020
 3540TIP3    H110584   2.440   3.761  -0.058
 3540TIP3    H210585   2.497   3.891  -0.005
 3541TIP3   OH210586   3.930   5.856   3.339
 3541TIP3    H110587   3.978   5.809   3.407
 3541TIP3    H210588   3.888   5.788   3.287
 3542TIP3   OH210589   4.067   4.276   4.239
 3542TIP3    H110590   3.984   4.307   4.275
 3542TIP3    H210591   4.130   4.285   4.311
 3543TIP3   OH210592   0.970   5.570   5.799
 3543TIP3    H110593   0.935   5.526   5.876
 3543TIP3    H210594   1.062   5.585   5.820
 3544TIP3   OH210595   5.776   3.627   3.074
 3544TIP3    H110596   5.861   3.583   3.071
 3544TIP3    H210597   5.759   3.652   2.983
 3545TIP3   OH210598   2.576   0.792   1.546
 3545TIP3    H110599   2.670   0.811   1.540
 3545TIP3    H210600   2.559   0.784   1.639
 3546TIP3   OH210601   2.517   4.383   4.864
 3546TIP3    H110602   2.510   4.478   4.865
 3546TIP3    H210603   2.473   4.356   4.784
 3547TIP3   OH210604   5.109   4.851   2.689
 3547TIP3    H110605   5.081   4.761   2.678
 3547TIP3    H210606   5.121   4.883   2.599
 3548TIP3   OH210607   4.446   2.822   5.378
 3548TIP3    H110608   4.351   2.810   5.375
 3548TIP3    H210609   4.476   2.798   5.290
 3549TIP3   OH210610   4.043   3.597   2.748
 3549TIP3    H110611   4.129   3.632   2.725
 3549TIP3    H210612   4.022   3.638   2.832
 3550TIP3   OH210613   6.393   6.065   2.398
 3550TIP3    H110614   6.361   6.016   2.322
 3550TIP3    H210615   6.447   6.003   2.446
 3551TIP3   OH210616   3.025   3.281   0.217
 3551TIP3    H110617   2.949   3.227   0.195
 3551TIP3    H210618   2.999   3.370   0.193
 3552TIP3   OH210619   5.397   3.693   0.497
 3552TIP3    H110620   5.360   3.631   0.560
 3552TIP3    H210621   5.371   3.779   0.530
 3553TIP3   OH210622   5.737   2.309   3.229
 3553TIP3    H110623   5.778   2.278   3.149
 3553TIP3    H210624   5.772   2.397   3.242
 3554TIP3   OH210625   3.666   1.276   5.233
 3554TIP3    H110626   3.723   1.211   5.190
 3554TIP3    H210627   3.727   1.341   5.268
 3555TIP3   OH210628   3.804   4.259   5.194
 3555TIP3    H110629   3.710   4.255   5.180
 3555TIP3    H210630   3.815   4.312   5.273
 3556TIP3   OH210631   7.118   1.770   4.618
 3556TIP3    H110632   7.157   1.712   4.684
 3556TIP3    H210633   7.132   1.858   4.653
 3557TIP3   OH210634   3.910   6.457   5.047
 3557TIP3    H110635   4.003   6.446   5.027
 3557TIP3    H210636   3.865   6.391   4.994
 3558TIP3   OH210637   5.355   3.583   3.860
 3558TIP3    H110638   5.413   3.551   3.929
 3558TIP3    H210639   5.413   3.600   3.786
 3559TIP3   OH210640   2.028   5.788   5.379
 3559TIP3    H110641   2.107   5.746   5.412
 3559TIP3    H210642   2.019   5.866   5.434
 3560TIP3   OH210643   6.137   0.123   1.758
 3560TIP3    H110644   6.073   0.123   1.828
 3560TIP3    H210645   6.221   0.135   1.802
 3561TIP3   OH210646   2.471   0.451   0.961
 3561TIP3    H110647   2.446   0.370   1.005
 3561TIP3    H210648   2.542   0.424   0.902
 3562TIP3   OH210649   4.285   6.674   0.637
 3562TIP3    H110650   4.380   6.663   0.640
 3562TIP3    H210651   4.254   6.602   0.582
 3563TIP3   OH210652   0.141   5.023   4.312
 3563TIP3    H110653   0.083   5.026   4.388
 3563TIP3    H210654   0.227   5.000   4.348
 3564TIP3   OH210655   1.272   0.830   3.010
 3564TIP3    H110656   1.264   0.805   2.918
 3564TIP3    H210657   1.340   0.897   3.011
 3565TIP3   OH210658   4.550   3.277   1.885
 3565TIP3    H110659   4.582   3.332   1.956
 3565TIP3    H210660   4.574   3.188   1.910
 3566TIP3   OH210661   4.106   3.516   1.430
 3566TIP3    H110662   4.194   3.552   1.441
 3566TIP3    H210663   4.054   3.589   1.399
 3567TIP3   OH210664   1.815   2.170   0.846
 3567TIP3    H110665   1.881   2.240   0.851
 3567TIP3    H210666   1.756   2.188   0.919
 3568TIP3   OH210667   4.517   4.197   4.968
 3568TIP3    H110668   4.519   4.104   4.945
 3568TIP3    H210669   4.430   4.212   5.004
 3569TIP3   OH210670   6.828   3.378   5.211
 3569TIP3    H110671   6.762   3.428   5.164
 3569TIP3    H210672   6.911   3.405   5.172
 3570TIP3   OH210673   3.095   2.815   0.441
 3570TIP3    H110674   3.062   2.737   0.488
 3570TIP3    H210675   3.064   2.889   0.493
 3571TIP3   OH210676   3.587   5.464   4.378
 3571TIP3    H110677   3.638   5.542   4.354
 3571TIP3    H210678   3.653   5.399   4.401
 3572TIP3   OH210679   3.142   4.617   0.220
 3572TIP3    H110680   3.093   4.619   0.303
 3572TIP3    H210681   3.170   4.708   0.208
 3573TIP3   OH210682   4.168   4.274   4.757
 3573TIP3    H110683   4.135   4.305   4.673
 3573TIP3    H210684   4.196   4.353   4.803
 3574TIP3   OH210685   6.806   3.620   4.808
 3574TIP3    H110686   6.747   3.673   4.753
 3574TIP3    H210687   6.759   3.612   4.891
 3575TIP3   OH210688   2.346   6.061   1.720
 3575TIP3    H110689   2.400   6.046   1.798
 3575TIP3    H210690   2.389   6.011   1.651
 3576TIP3   OH210691   4.462   0.758   1.149
 3576TIP3    H110692   4.535   0.717   1.196
 3576TIP3    H210693   4.386   0.746   1.205
 3577TIP3   OH210694   1.242   2.273   2.804
 3577TIP3    H110695   1.282   2.352   2.839
 3577TIP3    H210696   1.252   2.208   2.874
 3578TIP3   OH210697   6.803   4.766   5.040
 3578TIP3    H110698   6.880   4.819   5.057
 3578TIP3    H210699   6.834   4.693   4.986
 3579TIP3   OH210700   1.344   2.208  -0.015
 3579TIP3    H110701   1.278   2.148   0.022
 3579TIP3    H210702   1.293   2.269  -0.069
 3580TIP3   OH210703   2.930   3.009   3.875
 3580TIP3    H110704   2.842   3.024   3.838
 3580TIP3    H210705   2.914   2.960   3.956
 3581TIP3   OH210706   6.636   1.690   5.591
 3581TIP3    H110707   6.637   1.599   5.620
 3581TIP3    H210708   6.610   1.741   5.668
 3582TIP3   OH210709   0.285   4.596   2.245
 3582TIP3    H110710   0.378   4.615   2.239
 3582TIP3    H210711   0.243   4.663   2.190
 3583TIP3   OH210712   4.820   4.271   4.015
 3583TIP3    H110713   4.745   4.227   3.976
 3583TIP3    H210714   4.861   4.319   3.943
 3584TIP3   OH210715   0.774   4.618   3.587
 3584TIP3    H110716   0.747   4.650   3.673
 3584TIP3    H210717   0.869   4.608   3.594
 3585TIP3   OH210718   0.047   3.681   4.400
 3585TIP3    H110719   0.088   3.637   4.327
 3585TIP3    H210720  -0.021   3.621   4.429
 3586TIP3   OH210721   5.387   2.974   3.649
 3586TIP3    H110722   5.373   2.921   3.728
 3586TIP3    H210723   5.480   2.998   3.653
 3587TIP3   OH210724   5.685   0.888   2.253
 3587TIP3    H110725   5.623   0.818   2.230
 3587TIP3    H210726   5.655   0.919   2.338
 3588TIP3   OH210727   3.227   0.525   3.640
 3588TIP3    H110728   3.232   0.605   3.693
 3588TIP3    H210729   3.175   0.551   3.563
 3589TIP3   OH210730   2.005   1.020   2.007
 3589TIP3    H110731   2.027   1.105   1.970
 3589TIP3    H210732   2.072   0.961   1.971
 3590TIP3   OH210733   4.033   6.514   0.329
 3590TIP3    H110734   4.051   6.590   0.275
 3590TIP3    H210735   3.980   6.547   0.401
 3591TIP3   OH210736   0.900   1.919   3.602
 3591TIP3    H110737   0.836   1.988   3.586
 3591TIP3    H210738   0.867   1.872   3.679
 3592TIP3   OH210739   1.411   3.412   4.944
 3592TIP3    H110740   1.483   3.452   4.895
 3592TIP3    H210741   1.349   3.483   4.958
 3593TIP3   OH210742   3.533   6.439   5.403
 3593TIP3    H110743   3.481   6.508   5.444
 3593TIP3    H210744   3.518   6.362   5.457
 3594TIP3   OH210745   5.813   3.650   5.710
 3594TIP3    H110746   5.806   3.724   5.770
 3594TIP3    H210747   5.904   3.621   5.717
 3595TIP3   OH210748   3.241   1.202   4.023
 3595TIP3    H110749   3.201   1.215   3.937
 3595TIP3    H210750   3.182   1.142   4.069
 3596TIP3   OH210751   4.822   5.184   3.802
 3596TIP3    H110752   4.842   5.219   3.888
 3596TIP3    H210753   4.888   5.221   3.744
 3597TIP3   OH210754   4.223   1.140   4.137
 3597TIP3    H110755   4.148   1.114   4.082
 3597TIP3    H210756   4.232   1.234   4.124
 3598TIP3   OH210757   7.085   6.314   5.592
 3598TIP3    H110758   7.136   6.383   5.549
 3598TIP3    H210759   7.132   6.296   5.673
 3599TIP3   OH210760   0.327   2.351   2.575
 3599TIP3    H110761   0.413   2.310   2.586
 3599TIP3    H210762   0.330   2.392   2.489
 3600TIP3   OH210763   4.180   1.499   0.116
 3600TIP3    H110764   4.122   1.574   0.109
 3600TIP3    H210765   4.269   1.536   0.114
 3601TIP3   OH210766   2.144   1.840   1.991
 3601TIP3    H110767   2.092   1.766   2.023
 3601TIP3    H210768   2.152   1.824   1.897
 3602TIP3   OH210769   7.033   4.658   1.987
 3602TIP3    H110770   6.965   4.600   2.021
 3602TIP3    H210771   7.093   4.671   2.060
 3603TIP3   OH210772   4.048   4.010   2.654
 3603TIP3    H110773   4.032   4.099   2.623
 3603TIP3    H210774   4.129   3.983   2.610
 3604TIP3   OH210775   2.737   0.855   2.606
 3604TIP3    H110776   2.783   0.905   2.539
 3604TIP3    H210777   2.646   0.853   2.576
 3605TIP3   OH210778   6.773   4.605   4.230
 3605TIP3    H110779   6.737   4.590   4.317
 3605TIP3    H210780   6.726   4.543   4.173
 3606TIP3   OH210781   6.001   5.347   0.050
 3606TIP3    H110782   5.915   5.383   0.027
 3606TIP3    H210783   6.045   5.334  -0.033
 3607TIP3   OH210784   2.546   5.796   5.036
 3607TIP3    H110785   2.526   5.777   5.128
 3607TIP3    H210786   2.631   5.840   5.038
 3608TIP3   OH210787   0.059   0.132   3.019
 3608TIP3    H110788   0.132   0.075   3.041
 3608TIP3    H210789   0.016   0.150   3.103
 3609TIP3   OH210790   3.422   2.390   2.278
 3609TIP3    H110791   3.390   2.470   2.319
 3609TIP3    H210792   3.351   2.327   2.290
 3610TIP3   OH210793   5.398   2.819   4.183
 3610TIP3    H110794   5.491   2.811   4.205
 3610TIP3    H210795   5.358   2.856   4.261
 3611TIP3   OH210796   0.738   5.880   2.789
 3611TIP3    H110797   0.648   5.873   2.756
 3611TIP3    H210798   0.759   5.973   2.783
 3612TIP3   OH210799   4.025   3.120   3.592
 3612TIP3    H110800   3.986   3.207   3.600
 3612TIP3    H210801   4.100   3.133   3.534
 3613TIP3   OH210802   5.751   6.292   3.813
 3613TIP3    H110803   5.814   6.362   3.830
 3613TIP3    H210804   5.732   6.256   3.900
 3614TIP3   OH210805   4.256   0.577   3.084
 3614TIP3    H110806   4.283   0.643   3.148
 3614TIP3    H210807   4.180   0.535   3.123
 3615TIP3   OH210808   0.883   3.835   1.939
 3615TIP3    H110809   0.863   3.927   1.927
 3615TIP3    H210810   0.977   3.833   1.959
 3616TIP3   OH210811   5.211   3.101   1.931
 3616TIP3    H110812   5.130   3.087   1.882
 3616TIP3    H210813   5.235   3.014   1.963
 3617TIP3   OH210814   4.538   0.069   3.392
 3617TIP3    H110815   4.509  -0.015   3.427
 3617TIP3    H210816   4.470   0.095   3.330
 3618TIP3   OH210817   1.888   0.846   2.172
 3618TIP3    H110818   1.922   0.909   2.109
 3618TIP3    H210819   1.951   0.846   2.243
 3619TIP3   OH210820   5.943   3.265   3.193
 3619TIP3    H110821   6.027   3.219   3.199
 3619TIP3    H210822   5.891   3.229   3.265
 3620TIP3   OH210823   1.539   5.218   3.473
 3620TIP3    H110824   1.626   5.252   3.451
 3620TIP3    H210825   1.525   5.146   3.411
 3621TIP3   OH210826   5.365   0.636   0.800
 3621TIP3    H110827   5.400   0.633   0.889
 3621TIP3    H210828   5.399   0.718   0.763
 3622TIP3   OH210829   5.303   5.611   3.645
 3622TIP3    H110830   5.363   5.584   3.576
 3622TIP3    H210831   5.318   5.705   3.655
 3623TIP3   OH210832   4.607   4.531   2.760
 3623TIP3    H110833   4.583   4.545   2.852
 3623TIP3    H210834   4.657   4.610   2.737
 3624TIP3   OH210835   3.113   0.991   2.888
 3624TIP3    H110836   3.115   0.971   2.795
 3624TIP3    H210837   3.178   1.060   2.899
 3625TIP3   OH210838   5.983   1.283   2.868
 3625TIP3    H110839   5.972   1.263   2.961
 3625TIP3    H210840   5.923   1.224   2.823
 3626TIP3   OH210841   1.476   1.408   5.676
 3626TIP3    H110842   1.430   1.485   5.642
 3626TIP3    H210843   1.543   1.390   5.609
 3627TIP3   OH210844   3.460   2.545   5.708
 3627TIP3    H110845   3.472   2.543   5.802
 3627TIP3    H210846   3.541   2.510   5.672
 3628TIP3   OH210847   3.679  -0.034   1.706
 3628TIP3    H110848   3.618   0.038   1.690
 3628TIP3    H210849   3.758   0.009   1.739
 3629TIP3   OH210850   5.113   0.401   5.862
 3629TIP3    H110851   5.126   0.391   5.768
 3629TIP3    H210852   5.180   0.464   5.888
 3630TIP3   OH210853   6.558   5.860   4.153
 3630TIP3    H110854   6.484   5.823   4.201
 3630TIP3    H210855   6.563   5.951   4.182
 3631TIP3   OH210856   3.929   4.481   3.747
 3631TIP3    H110857   3.959   4.446   3.831
 3631TIP3    H210858   4.005   4.472   3.689
 3632TIP3   OH210859   6.667   4.953   2.483
 3632TIP3    H110860   6.664   4.958   2.579
 3632TIP3    H210861   6.608   4.881   2.461
 3633TIP3   OH210862   4.361   4.712   5.730
 3633TIP3    H110863   4.337   4.631   5.776
 3633TIP3    H210864   4.456   4.708   5.722
 3634TIP3   OH210865   2.161   4.745   1.131
 3634TIP3    H110866   2.078   4.770   1.170
 3634TIP3    H210867   2.193   4.672   1.185
 3635TIP3   OH210868   3.328   1.258   4.970
 3635TIP3    H110869   3.377   1.177   4.978
 3635TIP3    H210870   3.259   1.239   4.906
 3636TIP3   OH210871   6.308   2.266   3.154
 3636TIP3    H110872   6.365   2.243   3.227
 3636TIP3    H210873   6.220   2.247   3.186
 3637TIP3   OH210874   6.893   1.198   0.647
 3637TIP3    H110875   6.798   1.183   0.640
 3637TIP3    H210876   6.908   1.208   0.741
 3638TIP3   OH210877   3.439   0.451   1.400
 3638TIP3    H110878   3.460   0.424   1.490
 3638TIP3    H210879   3.474   0.540   1.393
 3639TIP3   OH210880   2.320   1.924   0.705
 3639TIP3    H110881   2.227   1.926   0.729
 3639TIP3    H210882   2.358   1.998   0.753
 3640TIP3   OH210883   1.830   1.505   1.145
 3640TIP3    H110884   1.884   1.538   1.072
 3640TIP3    H210885   1.865   1.418   1.163
 3641TIP3   OH210886   1.959   3.655   1.413
 3641TIP3    H110887   1.870   3.684   1.396
 3641TIP3    H210888   1.965   3.649   1.508
 3642TIP3   OH210889   6.289   1.718   5.659
 3642TIP3    H110890   6.335   1.682   5.735
 3642TIP3    H210891   6.263   1.641   5.608
 3643TIP3   OH210892   4.449   2.809   2.628
 3643TIP3    H110893   4.375   2.749   2.620
 3643TIP3    H210894   4.521   2.755   2.660
 3644TIP3   OH210895   2.049   3.480   4.361
 3644TIP3    H110896   2.140   3.493   4.332
 3644TIP3    H210897   2.051   3.500   4.454
 3645TIP3   OH210898   6.630   6.445   1.764
 3645TIP3    H110899   6.680   6.424   1.843
 3645TIP3    H210900   6.692   6.496   1.711
 3646TIP3   OH210901   0.910   4.879   3.608
 3646TIP3    H110902   0.973   4.808   3.591
 3646TIP3    H210903   0.841   4.838   3.661
 3647TIP3   OH210904   5.113   0.947   1.072
 3647TIP3    H110905   5.116   0.873   1.133
 3647TIP3    H210906   5.205   0.975   1.065
 3648TIP3   OH210907   4.901   6.456   2.576
 3648TIP3    H110908   4.872   6.366   2.583
 3648TIP3    H210909   4.930   6.465   2.485
 3649TIP3   OH210910   1.817   4.351   2.429
 3649TIP3    H110911   1.895   4.403   2.408
 3649TIP3    H210912   1.787   4.384   2.514
 3650TIP3   OH210913   4.829   0.318   4.228
 3650TIP3    H110914   4.915   0.356   4.245
 3650TIP3    H210915   4.805   0.349   4.141
 3651TIP3   OH210916   0.694   1.972   0.070
 3651TIP3    H110917   0.715   1.918   0.146
 3651TIP3    H210918   0.650   2.048   0.107
 3652TIP3   OH210919   0.105   1.041   3.838
 3652TIP3    H110920   0.128   0.980   3.908
 3652TIP3    H210921   0.018   1.073   3.861
 3653TIP3   OH210922   1.192   5.237   5.902
 3653TIP3    H110923   1.146   5.172   5.850
 3653TIP3    H210924   1.126   5.303   5.924
 3654TIP3   OH210925   0.311   6.198   1.588
 3654TIP3    H110926   0.362   6.169   1.512
 3654TIP3    H210927   0.348   6.284   1.610
 3655TIP3   OH210928   3.569   5.984   1.824
 3655TIP3    H110929   3.611   6.051   1.878
 3655TIP3    H210930   3.613   5.991   1.739
 3656TIP3   OH210931   2.979   1.622   5.627
 3656TIP3    H110932   2.911   1.639   5.562
 3656TIP3    H210933   2.930   1.604   5.708
 3657TIP3   OH210934   1.725   3.284   1.271
 3657TIP3    H110935   1.814   3.294   1.306
 3657TIP3    H210936   1.680   3.364   1.296
 3658TIP3   OH210937   5.701   0.944   0.026
 3658TIP3    H110938   5.631   0.943   0.092
 3658TIP3    H210939   5.779   0.972   0.074
 3659TIP3   OH210940   3.630   1.983   3.516
 3659TIP3    H110941   3.628   2.009   3.424
 3659TIP3    H210942   3.692   2.044   3.556
 3660TIP3   OH210943   4.652  -0.014   3.926
 3660TIP3    H110944   4.605   0.008   4.006
 3660TIP3    H210945   4.612   0.041   3.858
 3661TIP3   OH210946   4.156   3.174   4.112
 3661TIP3    H110947   4.136   3.153   4.021
 3661TIP3    H210948   4.116   3.260   4.126
 3662TIP3   OH210949   2.771   5.920   0.268
 3662TIP3    H110950   2.835   5.908   0.338
 3662TIP3    H210951   2.688   5.892   0.307
 3663TIP3   OH210952   1.974   4.570   1.675
 3663TIP3    H110953   1.903   4.534   1.728
 3663TIP3    H210954   2.045   4.506   1.685
 3664TIP3   OH210955   4.315   5.269   5.276
 3664TIP3    H110956   4.285   5.339   5.334
 3664TIP3    H210957   4.316   5.308   5.189
 3665TIP3   OH210958   3.238   6.125   0.934
 3665TIP3    H110959   3.291   6.130   0.854
 3665TIP3    H210960   3.273   6.195   0.990
 3666TIP3   OH210961   2.982   5.579   4.284
 3666TIP3    H110962   2.930   5.631   4.222
 3666TIP3    H210963   2.926   5.506   4.308
 3667TIP3   OH210964   6.526   1.812   3.278
 3667TIP3    H110965   6.601   1.795   3.221
 3667TIP3    H210966   6.562   1.861   3.352
 3668TIP3   OH210967   3.378   5.171   0.431
 3668TIP3    H110968   3.454   5.228   0.425
 3668TIP3    H210969   3.414   5.085   0.452
 3669TIP3   OH210970   6.225   2.444   1.398
 3669TIP3    H110971   6.250   2.509   1.464
 3669TIP3    H210972   6.297   2.445   1.335
 3670TIP3   OH210973   0.429   0.480   5.009
 3670TIP3    H110974   0.361   0.534   4.969
 3670TIP3    H210975   0.501   0.540   5.026
 3671TIP3   OH210976   6.797   5.171   0.736
 3671TIP3    H110977   6.844   5.186   0.654
 3671TIP3    H210978   6.845   5.100   0.778
 3672TIP3   OH210979   7.173   1.901   3.582
 3672TIP3    H110980   7.233   1.827   3.581
 3672TIP3    H210981   7.107   1.879   3.517
 3673TIP3   OH210982   5.673   2.724   4.928
 3673TIP3    H110983   5.637   2.697   5.013
 3673TIP3    H210984   5.701   2.643   4.887
 3674TIP3   OH210985   5.437   6.479   1.850
 3674TIP3    H110986   5.514   6.454   1.901
 3674TIP3    H210987   5.378   6.519   1.913
 3675TIP3   OH210988   5.945   5.613   1.274
 3675TIP3    H110989   5.987   5.649   1.196
 3675TIP3    H210990   5.962   5.678   1.342
 3676TIP3   OH210991   2.519   6.140   2.111
 3676TIP3    H110992   2.607   6.158   2.146
 3676TIP3    H210993   2.504   6.211   2.048
 3677TIP3   OH210994   3.631   4.399   2.587
 3677TIP3    H110995   3.595   4.486   2.604
 3677TIP3    H210996   3.706   4.392   2.646
 3678TIP3   OH210997   5.181   6.000   2.295
 3678TIP3    H110998   5.098   5.996   2.247
 3678TIP3    H210999   5.246   5.969   2.232
 3679TIP3   OH211000   6.667   1.948   1.201
 3679TIP3    H111001   6.726   1.873   1.197
 3679TIP3    H211002   6.724   2.024   1.188
 3680TIP3   OH211003   0.315   3.104   1.275
 3680TIP3    H111004   0.225   3.079   1.254
 3680TIP3    H211005   0.314   3.121   1.369
 3681TIP3   OH211006   0.975   0.511   4.424
 3681TIP3    H111007   0.904   0.505   4.360
 3681TIP3    H211008   0.952   0.446   4.491
 3682TIP3   OH211009   4.909   5.090   5.029
 3682TIP3    H111010   4.928   5.014   5.085
 3682TIP3    H211011   4.821   5.072   4.994
 3683TIP3   OH211012   6.265   3.595   1.938
 3683TIP3    H111013   6.178   3.623   1.910
 3683TIP3    H211014   6.264   3.499   1.929
 3684TIP3   OH211015   3.950   0.295   4.287
 3684TIP3    H111016   3.898   0.358   4.237
 3684TIP3    H211017   4.031   0.285   4.237
 3685TIP3   OH211018   7.237   3.087   1.186
 3685TIP3    H111019   7.229   3.174   1.148
 3685TIP3    H211020   7.147   3.055   1.191
 3686TIP3   OH211021   6.680   5.203   3.342
 3686TIP3    H111022   6.746   5.182   3.408
 3686TIP3    H211023   6.701   5.292   3.315
 3687TIP3   OH211024   6.229   2.117   4.926
 3687TIP3    H111025   6.160   2.052   4.937
 3687TIP3    H211026   6.195   2.179   4.862
 3688TIP3   OH211027   1.630   5.204   1.375
 3688TIP3    H111028   1.600   5.123   1.334
 3688TIP3    H211029   1.697   5.237   1.315
 3689TIP3   OH211030   4.397   6.651   0.353
 3689TIP3    H111031   4.347   6.592   0.297
 3689TIP3    H211032   4.448   6.592   0.410
 3690TIP3   OH211033   4.537   3.592   0.642
 3690TIP3    H111034   4.566   3.629   0.558
 3690TIP3    H211035   4.517   3.500   0.622
 3691TIP3   OH211036   6.088   2.857   4.805
 3691TIP3    H111037   6.091   2.828   4.896
 3691TIP3    H211038   6.178   2.879   4.784
 3692TIP3   OH211039   2.576   5.465   0.456
 3692TIP3    H111040   2.529   5.481   0.538
 3692TIP3    H211041   2.526   5.396   0.413
 3693TIP3   OH211042   6.194   2.073   3.643
 3693TIP3    H111043   6.193   2.149   3.701
 3693TIP3    H211044   6.118   2.021   3.672
 3694TIP3   OH211045   1.018   5.801   5.635
 3694TIP3    H111046   0.993   5.727   5.690
 3694TIP3    H211047   1.111   5.814   5.653
 3695TIP3   OH211048   4.115   1.986   4.376
 3695TIP3    H111049   4.200   2.016   4.345
 3695TIP3    H211050   4.106   2.024   4.463
 3696TIP3   OH211051   3.584   0.820   3.693
 3696TIP3    H111052   3.586   0.740   3.640
 3696TIP3    H211053   3.502   0.813   3.743
 3697TIP3   OH211054   3.201   5.411   0.999
 3697TIP3    H111055   3.123   5.459   0.971
 3697TIP3    H211056   3.228   5.361   0.923
 3698TIP3   OH211057   1.458   6.596   0.241
 3698TIP3    H111058   1.534   6.629   0.289
 3698TIP3    H211059   1.482   6.607   0.149
 3699TIP3   OH211060   5.621   6.519   5.579
 3699TIP3    H111061   5.677   6.550   5.650
 3699TIP3    H211062   5.553   6.467   5.621
 3700TIP3   OH211063   6.609   4.948   1.354
 3700TIP3    H111064   6.586   4.905   1.436
 3700TIP3    H211065   6.530   4.942   1.301
 3701TIP3   OH211066   6.319   6.460   1.917
 3701TIP3    H111067   6.351   6.371   1.906
 3701TIP3    H211068   6.388   6.505   1.964
 3702TIP3   OH211069   1.767   0.547   1.532
 3702TIP3    H111070   1.843   0.585   1.576
 3702TIP3    H211071   1.773   0.453   1.551
 3703TIP3   OH211072   5.675   1.821   1.014
 3703TIP3    H111073   5.616   1.856   0.947
 3703TIP3    H211074   5.620   1.814   1.093
 3704TIP3   OH211075   5.662   4.670   0.260
 3704TIP3    H111076   5.574   4.665   0.221
 3704TIP3    H211077   5.701   4.585   0.240
 3705TIP3   OH211078   1.891   5.105   4.504
 3705TIP3    H111079   1.802   5.094   4.469
 3705TIP3    H211080   1.942   5.138   4.431
 3706TIP3   OH211081   6.568   5.997   1.549
 3706TIP3    H111082   6.652   5.991   1.596
 3706TIP3    H211083   6.584   5.951   1.467
 3707TIP3   OH211084   2.810   2.170   2.150
 3707TIP3    H111085   2.716   2.154   2.157
 3707TIP3    H211086   2.823   2.198   2.059
 3708TIP3   OH211087   0.270   0.710   4.600
 3708TIP3    H111088   0.355   0.696   4.558
 3708TIP3    H211089   0.208   0.719   4.527
 3709TIP3   OH211090   3.496   1.057   0.917
 3709TIP3    H111091   3.418   1.091   0.960
 3709TIP3    H211092   3.468   1.040   0.827
 3710TIP3   OH211093   2.945   4.144   0.839
 3710TIP3    H111094   2.910   4.227   0.873
 3710TIP3    H211095   2.988   4.169   0.758
 3711TIP3   OH211096   0.293   0.538   4.312
 3711TIP3    H111097   0.381   0.560   4.342
 3711TIP3    H211098   0.285   0.582   4.227
 3712TIP3   OH211099   4.734   6.319   3.545
 3712TIP3    H111100   4.731   6.313   3.640
 3712TIP3    H211101   4.679   6.247   3.515
 3713TIP3   OH211102   6.194   4.213   4.102
 3713TIP3    H111103   6.168   4.132   4.059
 3713TIP3    H211104   6.122   4.273   4.085
 3714TIP3   OH211105   3.158   1.935   2.105
 3714TIP3    H111106   3.132   1.865   2.045
 3714TIP3    H211107   3.148   2.015   2.054
 3715TIP3   OH211108   5.334   1.820   2.173
 3715TIP3    H111109   5.245   1.853   2.159
 3715TIP3    H211110   5.354   1.770   2.094
 3716TIP3   OH211111   3.681   2.927   1.137
 3716TIP3    H111112   3.691   3.003   1.194
 3716TIP3    H211113   3.705   2.959   1.050
 3717TIP3   OH211114   3.163   2.791   4.586
 3717TIP3    H111115   3.083   2.748   4.557
 3717TIP3    H211116   3.201   2.732   4.651
 3718TIP3   OH211117   3.034   1.723   3.824
 3718TIP3    H111118   3.060   1.655   3.762
 3718TIP3    H211119   2.938   1.718   3.825
 3719TIP3   OH211120   5.473   2.835   4.583
 3719TIP3    H111121   5.541   2.891   4.545
 3719TIP3    H211122   5.473   2.856   4.676
 3720TIP3   OH211123   2.196   2.175   5.146
 3720TIP3    H111124   2.178   2.129   5.228
 3720TIP3    H211125   2.130   2.141   5.085
 3721TIP3   OH211126   6.455   1.234   2.643
 3721TIP3    H111127   6.366   1.213   2.673
 3721TIP3    H211128   6.512   1.202   2.713
 3722TIP3   OH211129   4.004   0.036   3.366
 3722TIP3    H111130   4.009   0.044   3.461
 3722TIP3    H211131   4.038   0.120   3.333
 3723TIP3   OH211132   5.759   6.655   1.391
 3723TIP3    H111133   5.720   6.575   1.426
 3723TIP3    H211134   5.684   6.706   1.361
 3724TIP3   OH211135   6.024   5.649   3.385
 3724TIP3    H111136   6.065   5.588   3.446
 3724TIP3    H211137   6.020   5.601   3.302
 3725TIP3   OH211138   7.110   4.950   0.671
 3725TIP3    H111139   7.053   4.873   0.681
 3725TIP3    H211140   7.102   4.973   0.578
 3726TIP3   OH211141   1.145   4.737   2.979
 3726TIP3    H111142   1.193   4.795   2.921
 3726TIP3    H211143   1.056   4.773   2.982
 3727TIP3   OH211144   1.674   1.714   1.437
 3727TIP3    H111145   1.645   1.780   1.374
 3727TIP3    H211146   1.728   1.761   1.499
 3728TIP3   OH211147   3.965   2.581   5.662
 3728TIP3    H111148   4.039   2.542   5.709
 3728TIP3    H211149   4.005   2.643   5.601
 3729TIP3   OH211150   4.277   2.619   3.320
 3729TIP3    H111151   4.324   2.639   3.239
 3729TIP3    H211152   4.339   2.567   3.371
 3730TIP3   OH211153   0.615   2.901   3.555
 3730TIP3    H111154   0.530   2.890   3.512
 3730TIP3    H211155   0.676   2.923   3.484
 3731TIP3   OH211156   4.314   4.464   0.823
 3731TIP3    H111157   4.386   4.446   0.763
 3731TIP3    H211158   4.348   4.534   0.879
 3732TIP3   OH211159   5.676   5.010   4.168
 3732TIP3    H111160   5.619   5.046   4.100
 3732TIP3    H211161   5.763   5.012   4.129
 3733TIP3   OH211162   4.298   2.619   4.352
 3733TIP3    H111163   4.228   2.655   4.407
 3733TIP3    H211164   4.270   2.530   4.332
 3734TIP3   OH211165   2.268   6.532   5.842
 3734TIP3    H111166   2.342   6.592   5.853
 3734TIP3    H211167   2.298   6.449   5.878
 3735TIP3   OH211168   2.023   2.445   1.586
 3735TIP3    H111169   2.041   2.532   1.622
 3735TIP3    H211170   1.931   2.429   1.608
 3736TIP3   OH211171   1.559   5.294   5.388
 3736TIP3    H111172   1.605   5.239   5.451
 3736TIP3    H211173   1.467   5.273   5.400
 3737TIP3   OH211174   2.111   0.026   4.329
 3737TIP3    H111175   2.091  -0.052   4.381
 3737TIP3    H211176   2.080   0.099   4.382
 3738TIP3   OH211177   1.560   2.276   4.682
 3738TIP3    H111178   1.622   2.220   4.728
 3738TIP3    H211179   1.587   2.365   4.704
 3739TIP3   OH211180   0.319   4.490   5.831
 3739TIP3    H111181   0.291   4.476   5.922
 3739TIP3    H211182   0.334   4.402   5.797
 3740TIP3   OH211183   5.975   5.711   0.812
 3740TIP3    H111184   6.038   5.762   0.762
 3740TIP3    H211185   5.918   5.672   0.746
 3741TIP3   OH211186   0.446   5.324   0.325
 3741TIP3    H111187   0.407   5.385   0.388
 3741TIP3    H211188   0.457   5.243   0.375
 3742TIP3   OH211189   4.556   5.037   2.540
 3742TIP3    H111190   4.581   5.078   2.457
 3742TIP3    H211191   4.464   5.013   2.527
 3743TIP3   OH211192   2.805   2.426   5.830
 3743TIP3    H111193   2.835   2.514   5.849
 3743TIP3    H211194   2.771   2.394   5.914
 3744TIP3   OH211195   5.073   6.176   0.985
 3744TIP3    H111196   5.141   6.143   0.926
 3744TIP3    H211197   4.998   6.193   0.928
 3745TIP3   OH211198   1.099   4.020   2.764
 3745TIP3    H111199   1.085   4.061   2.679
 3745TIP3    H211200   1.087   4.091   2.827
 3746TIP3   OH211201   2.443   5.140   5.326
 3746TIP3    H111202   2.421   5.095   5.407
 3746TIP3    H211203   2.427   5.075   5.257
 3747TIP3   OH211204   2.252   2.505   0.715
 3747TIP3    H111205   2.193   2.552   0.774
 3747TIP3    H211206   2.325   2.477   0.772
 3748TIP3   OH211207   1.065   6.232   3.765
 3748TIP3    H111208   1.020   6.279   3.835
 3748TIP3    H211209   1.079   6.144   3.800
 3749TIP3   OH211210   0.387   0.502   5.610
 3749TIP3    H111211   0.388   0.511   5.515
 3749TIP3    H211212   0.392   0.591   5.643
 3750TIP3   OH211213   4.602   1.851   2.039
 3750TIP3    H111214   4.536   1.794   1.998
 3750TIP3    H211215   4.631   1.908   1.968
 3751TIP3   OH211216   1.716   3.050   5.283
 3751TIP3    H111217   1.720   3.118   5.351
 3751TIP3    H211218   1.667   3.090   5.212
 3752TIP3   OH211219   7.148   2.479   0.876
 3752TIP3    H111220   7.071   2.522   0.839
 3752TIP3    H211221   7.112   2.407   0.928
 3753TIP3   OH211222   0.544   4.158   4.571
 3753TIP3    H111223   0.590   4.204   4.501
 3753TIP3    H211224   0.481   4.102   4.525
 3754TIP3   OH211225   5.347   5.970   5.459
 3754TIP3    H111226   5.407   6.035   5.421
 3754TIP3    H211227   5.260   6.003   5.438
 3755TIP3   OH211228   3.236   2.212   4.022
 3755TIP3    H111229   3.210   2.126   3.988
 3755TIP3    H211230   3.325   2.199   4.055
 3756TIP3   OH211231   6.328   5.883   5.427
 3756TIP3    H111232   6.292   5.954   5.480
 3756TIP3    H211233   6.260   5.865   5.362
 3757TIP3   OH211234   6.638   4.955   4.890
 3757TIP3    H111235   6.561   4.930   4.941
 3757TIP3    H211236   6.711   4.906   4.929
 3758TIP3   OH211237   1.122   3.180   4.764
 3758TIP3    H111238   1.038   3.213   4.797
 3758TIP3    H211239   1.103   3.153   4.674
 3759TIP3   OH211240   4.553   4.428   0.206
 3759TIP3    H111241   4.630   4.416   0.150
 3759TIP3    H211242   4.493   4.482   0.154
 3760TIP3   OH211243   4.277   1.909   4.687
 3760TIP3    H111244   4.207   1.974   4.689
 3760TIP3    H211245   4.286   1.880   4.778
 3761TIP3   OH211246   1.195   5.360   0.857
 3761TIP3    H111247   1.162   5.427   0.797
 3761TIP3    H211248   1.231   5.292   0.800
 3762TIP3   OH211249   1.700   4.462   3.552
 3762TIP3    H111250   1.739   4.549   3.544
 3762TIP3    H211251   1.606   4.477   3.553
 3763TIP3   OH211252   1.797   3.945   4.073
 3763TIP3    H111253   1.800   4.034   4.109
 3763TIP3    H211254   1.885   3.911   4.088
 3764TIP3   OH211255   6.255   0.207   5.857
 3764TIP3    H111256   6.273   0.301   5.857
 3764TIP3    H211257   6.201   0.193   5.779
 3765TIP3   OH211258   2.773   6.388   0.779
 3765TIP3    H111259   2.750   6.334   0.703
 3765TIP3    H211260   2.868   6.382   0.785
 3766TIP3   OH211261   4.294   0.448   2.633
 3766TIP3    H111262   4.314   0.527   2.683
 3766TIP3    H211263   4.377   0.403   2.625
 3767TIP3   OH211264   7.200   0.494   3.915
 3767TIP3    H111265   7.266   0.424   3.921
 3767TIP3    H211266   7.118   0.448   3.896
 3768TIP3   OH211267   2.911   4.354   2.367
 3768TIP3    H111268   2.986   4.323   2.417
 3768TIP3    H211269   2.920   4.450   2.366
 3769TIP3   OH211270   2.462   3.027   3.713
 3769TIP3    H111271   2.437   2.955   3.654
 3769TIP3    H211272   2.435   3.106   3.667
 3770TIP3   OH211273   3.114   0.383   4.879
 3770TIP3    H111274   3.022   0.372   4.901
 3770TIP3    H211275   3.161   0.356   4.958
 3771TIP3   OH211276   2.848   1.552   1.755
 3771TIP3    H111277   2.932   1.509   1.743
 3771TIP3    H211278   2.841   1.565   1.850
 3772TIP3   OH211279   3.037   6.309   0.573
 3772TIP3    H111280   3.086   6.315   0.491
 3772TIP3    H211281   3.086   6.363   0.634
 3773TIP3   OH211282   2.778   3.592   1.636
 3773TIP3    H111283   2.728   3.543   1.701
 3773TIP3    H211284   2.719   3.662   1.608
 3774TIP3   OH211285   2.367   4.354   1.140
 3774TIP3    H111286   2.275   4.347   1.113
 3774TIP3    H211287   2.411   4.390   1.064
 3775TIP3   OH211288   5.771   0.081   1.064
 3775TIP3    H111289   5.790   0.144   0.994
 3775TIP3    H211290   5.690   0.038   1.036
 3776TIP3   OH211291   6.402   1.402   5.115
 3776TIP3    H111292   6.490   1.364   5.114
 3776TIP3    H211293   6.351   1.343   5.170
 3777TIP3   OH211294   2.695   3.162   0.471
 3777TIP3    H111295   2.747   3.167   0.551
 3777TIP3    H211296   2.616   3.115   0.496
 3778TIP3   OH211297   4.037   2.752   4.391
 3778TIP3    H111298   4.007   2.842   4.394
 3778TIP3    H211299   3.957   2.699   4.398
 3779TIP3   OH211300   0.271   5.851   0.171
 3779TIP3    H111301   0.303   5.898   0.248
 3779TIP3    H211302   0.229   5.773   0.207
 3780TIP3   OH211303   5.671   1.859   5.499
 3780TIP3    H111304   5.639   1.908   5.422
 3780TIP3    H211305   5.724   1.789   5.462
 3781TIP3   OH211306   0.674   2.559   2.795
 3781TIP3    H111307   0.634   2.646   2.790
 3781TIP3    H211308   0.675   2.538   2.889
 3782TIP3   OH211309   5.123   1.103   5.466
 3782TIP3    H111310   5.074   1.107   5.548
 3782TIP3    H211311   5.090   1.177   5.415
 3783TIP3   OH211312   2.606   3.221   0.114
 3783TIP3    H111313   2.524   3.175   0.133
 3783TIP3    H211314   2.649   3.228   0.199
 3784TIP3   OH211315   0.818   5.467   2.071
 3784TIP3    H111316   0.786   5.515   2.147
 3784TIP3    H211317   0.740   5.432   2.029
 3785TIP3   OH211318   6.794   5.287   1.623
 3785TIP3    H111319   6.769   5.266   1.533
 3785TIP3    H211320   6.882   5.325   1.616
 3786TIP3   OH211321   2.158   0.566   5.491
 3786TIP3    H111322   2.251   0.546   5.499
 3786TIP3    H211323   2.132   0.526   5.408
 3787TIP3   OH211324   6.401   6.024   5.056
 3787TIP3    H111325   6.426   6.105   5.102
 3787TIP3    H211326   6.485   5.988   5.026
 3788TIP3   OH211327   0.220   3.353   0.457
 3788TIP3    H111328   0.172   3.283   0.412
 3788TIP3    H211329   0.308   3.317   0.469
 3789TIP3   OH211330   6.700   2.342   5.136
 3789TIP3    H111331   6.605   2.346   5.148
 3789TIP3    H211332   6.726   2.261   5.181
 3790TIP3   OH211333   6.840   5.227   3.617
 3790TIP3    H111334   6.763   5.173   3.635
 3790TIP3    H211335   6.901   5.207   3.688
 3791TIP3   OH211336   3.487   5.861   3.764
 3791TIP3    H111337   3.563   5.824   3.719
 3791TIP3    H211338   3.414   5.847   3.704
 3792TIP3   OH211339   4.285   2.156   3.177
 3792TIP3    H111340   4.322   2.093   3.114
 3792TIP3    H211341   4.325   2.239   3.153
 3793TIP3   OH211342   1.224   3.185   0.633
 3793TIP3    H111343   1.258   3.134   0.707
 3793TIP3    H211344   1.302   3.206   0.580
 3794TIP3   OH211345   6.047   1.324   1.146
 3794TIP3    H111346   6.113   1.392   1.132
 3794TIP3    H211347   6.032   1.287   1.059
 3795TIP3   OH211348   2.153   6.654   4.821
 3795TIP3    H111349   2.101   6.652   4.741
 3795TIP3    H211350   2.200   6.737   4.818
 3796TIP3   OH211351   3.122   2.245   3.518
 3796TIP3    H111352   3.207   2.204   3.531
 3796TIP3    H211353   3.116   2.260   3.424
 3797TIP3   OH211354   0.123   3.107   3.607
 3797TIP3    H111355   0.170   3.024   3.593
 3797TIP3    H211356   0.042   3.082   3.649
 3798TIP3   OH211357   6.256   2.784   4.102
 3798TIP3    H111358   6.202   2.795   4.181
 3798TIP3    H211359   6.308   2.706   4.119
 3799TIP3   OH211360   2.220   2.415   2.486
 3799TIP3    H111361   2.133   2.431   2.521
 3799TIP3    H211362   2.271   2.491   2.514
 3800TIP3   OH211363   2.333   5.323   0.430
 3800TIP3    H111364   2.261   5.292   0.376
 3800TIP3    H211365   2.323   5.276   0.513
 3801TIP3   OH211366   5.732   2.906   1.111
 3801TIP3    H111367   5.775   2.937   1.192
 3801TIP3    H211368   5.641   2.931   1.121
 3802TIP3   OH211369   5.898   4.377   4.087
 3802TIP3    H111370   5.828   4.313   4.081
 3802TIP3    H211371   5.871   4.449   4.030
 3803TIP3   OH211372   1.038   2.977   5.546
 3803TIP3    H111373   1.123   2.943   5.576
 3803TIP3    H211374   1.056   3.067   5.520
 3804TIP3   OH211375   4.953   3.562   5.313
 3804TIP3    H111376   4.960   3.637   5.371
 3804TIP3    H211377   4.891   3.590   5.245
 3805TIP3   OH211378   2.748   1.826   2.736
 3805TIP3    H111379   2.803   1.748   2.739
 3805TIP3    H211380   2.801   1.891   2.689
 3806TIP3   OH211381   6.194   3.217   3.881
 3806TIP3    H111382   6.125   3.281   3.860
 3806TIP3    H211383   6.228   3.246   3.966
 3807TIP3   OH211384   1.497   1.186   2.740
 3807TIP3    H111385   1.454   1.266   2.711
 3807TIP3    H211386   1.587   1.211   2.758
 3808TIP3   OH211387   5.235   0.687   1.516
 3808TIP3    H111388   5.178   0.666   1.589
 3808TIP3    H211389   5.283   0.606   1.498
 3809TIP3   OH211390   1.250   0.545   1.707
 3809TIP3    H111391   1.196   0.490   1.650
 3809TIP3    H211392   1.340   0.527   1.679
 3810TIP3   OH211393   1.472   5.828   4.714
 3810TIP3    H111394   1.440   5.738   4.721
 3810TIP3    H211395   1.446   5.869   4.796
 3811TIP3   OH211396   0.934   4.836   4.834
 3811TIP3    H111397   0.936   4.777   4.758
 3811TIP3    H211398   0.891   4.786   4.903
 3812TIP3   OH211399   1.884   0.373   2.440
 3812TIP3    H111400   1.801   0.371   2.393
 3812TIP3    H211401   1.926   0.454   2.412
 3813TIP3   OH211402   6.217   4.760   4.711
 3813TIP3    H111403   6.179   4.845   4.732
 3813TIP3    H211404   6.181   4.739   4.625
 3814TIP3   OH211405   5.174   3.225   1.594
 3814TIP3    H111406   5.211   3.290   1.653
 3814TIP3    H211407   5.162   3.272   1.511
 3815TIP3   OH211408   5.792   1.158   4.215
 3815TIP3    H111409   5.802   1.178   4.122
 3815TIP3    H211410   5.709   1.199   4.239
 3816TIP3   OH211411   1.503   5.088   5.786
 3816TIP3    H111412   1.527   5.105   5.694
 3816TIP3    H211413   1.579   5.118   5.836
 3817TIP3   OH211414   4.234   3.871   5.144
 3817TIP3    H111415   4.141   3.892   5.136
 3817TIP3    H211416   4.263   3.917   5.222
 3818TIP3   OH211417   0.833   5.084   5.015
 3818TIP3    H111418   0.873   5.063   5.099
 3818TIP3    H211419   0.756   5.027   5.010
 3819TIP3   OH211420   2.619   6.208   0.633
 3819TIP3    H111421   2.557   6.258   0.685
 3819TIP3    H211422   2.589   6.118   0.638
 3820TIP3   OH211423   3.097   0.898   1.671
 3820TIP3    H111424   3.176   0.944   1.700
 3820TIP3    H211425   3.066   0.851   1.749
 3821TIP3   OH211426   0.882   6.126   3.527
 3821TIP3    H111427   0.805   6.164   3.569
 3821TIP3    H211428   0.952   6.136   3.592
 3822TIP3   OH211429   1.910   5.832   3.042
 3822TIP3    H111430   1.823   5.801   3.068
 3822TIP3    H211431   1.908   5.831   2.946
 3823TIP3   OH211432   3.240   3.290   0.639
 3823TIP3    H111433   3.213   3.274   0.729
 3823TIP3    H211434   3.159   3.282   0.588
 3824TIP3   OH211435   3.333   4.623   1.933
 3824TIP3    H111436   3.345   4.717   1.945
 3824TIP3    H211437   3.264   4.616   1.866
 3825TIP3   OH211438   4.759   2.420   5.491
 3825TIP3    H111439   4.805   2.367   5.556
 3825TIP3    H211440   4.721   2.491   5.541
 3826TIP3   OH211441   5.387   5.089   0.510
 3826TIP3    H111442   5.328   5.014   0.502
 3826TIP3    H211443   5.353   5.138   0.585
 3827TIP3   OH211444   5.614   5.719   1.199
 3827TIP3    H111445   5.569   5.637   1.222
 3827TIP3    H211446   5.659   5.698   1.117
 3828TIP3   OH211447   6.741   2.228   0.995
 3828TIP3    H111448   6.734   2.254   1.086
 3828TIP3    H211449   6.720   2.307   0.945
 3829TIP3   OH211450   1.489   4.379   4.948
 3829TIP3    H111451   1.445   4.421   4.874
 3829TIP3    H211452   1.437   4.300   4.964
 3830TIP3   OH211453   6.906   1.807   5.381
 3830TIP3    H111454   6.859   1.745   5.325
 3830TIP3    H211455   6.903   1.766   5.468
 3831TIP3   OH211456   4.969   5.968   5.799
 3831TIP3    H111457   4.928   6.000   5.718
 3831TIP3    H211458   5.025   6.040   5.828
 3832TIP3   OH211459   2.113   3.085   5.088
 3832TIP3    H111460   2.200   3.046   5.075
 3832TIP3    H211461   2.066   3.065   5.007
 3833TIP3   OH211462   4.437   6.600   4.467
 3833TIP3    H111463   4.352   6.636   4.442
 3833TIP3    H211464   4.421   6.506   4.478
 3834TIP3   OH211465   6.033   1.907   5.303
 3834TIP3    H111466   6.036   1.920   5.208
 3834TIP3    H211467   6.071   1.821   5.317
 3835TIP3   OH211468   3.790   6.809   1.392
 3835TIP3    H111469   3.828   6.771   1.312
 3835TIP3    H211470   3.766   6.734   1.445
 3836TIP3   OH211471   3.838   4.387   4.841
 3836TIP3    H111472   3.789   4.407   4.920
 3836TIP3    H211473   3.904   4.457   4.836
 3837TIP3   OH211474   6.458   4.621   3.525
 3837TIP3    H111475   6.470   4.654   3.614
 3837TIP3    H211476   6.453   4.526   3.535
 3838TIP3   OH211477   4.483   2.935   1.672
 3838TIP3    H111478   4.399   2.941   1.717
 3838TIP3    H211479   4.501   2.841   1.666
 3839TIP3   OH211480   6.058   6.206   2.865
 3839TIP3    H111481   6.036   6.162   2.948
 3839TIP3    H211482   6.081   6.295   2.891
 3840TIP3   OH211483   3.981   5.822   0.531
 3840TIP3    H111484   4.021   5.909   0.527
 3840TIP3    H211485   3.887   5.839   0.529
 3841TIP3   OH211486   7.257   6.159   5.775
 3841TIP3    H111487   7.218   6.088   5.725
 3841TIP3    H211488   7.205   6.163   5.856
 3842TIP3   OH211489   4.202   0.486   1.654
 3842TIP3    H111490   4.287   0.528   1.637
 3842TIP3    H211491   4.157   0.487   1.570
 3843TIP3   OH211492   3.927   0.858   2.001
 3843TIP3    H111493   3.910   0.835   1.909
 3843TIP3    H211494   4.020   0.842   2.013
 3844TIP3   OH211495   0.867   5.547   3.693
 3844TIP3    H111496   0.922   5.470   3.675
 3844TIP3    H211497   0.778   5.513   3.690
 3845TIP3   OH211498   5.844   3.008   3.874
 3845TIP3    H111499   5.786   3.030   3.947
 3845TIP3    H211500   5.862   2.915   3.886
 3846TIP3   OH211501   5.324   1.702   3.243
 3846TIP3    H111502   5.356   1.778   3.291
 3846TIP3    H211503   5.238   1.728   3.210
 3847TIP3   OH211504   4.795   1.270   5.244
 3847TIP3    H111505   4.773   1.177   5.252
 3847TIP3    H211506   4.730   1.315   5.298
 3848TIP3   OH211507   4.832   3.832   3.822
 3848TIP3    H111508   4.857   3.858   3.911
 3848TIP3    H211509   4.873   3.899   3.766
 3849TIP3   OH211510   6.835   0.324   2.655
 3849TIP3    H111511   6.758   0.352   2.706
 3849TIP3    H211512   6.906   0.380   2.686
 3850TIP3   OH211513   3.483   6.564   2.490
 3850TIP3    H111514   3.405   6.581   2.437
 3850TIP3    H211515   3.484   6.635   2.554
 3851TIP3   OH211516   6.352   1.867   3.721
 3851TIP3    H111517   6.424   1.845   3.662
 3851TIP3    H211518   6.314   1.947   3.684
 3852TIP3   OH211519   7.106   5.731   3.068
 3852TIP3    H111520   7.046   5.733   3.143
 3852TIP3    H211521   7.049   5.715   2.992
 3853TIP3   OH211522   0.964   4.957   1.169
 3853TIP3    H111523   0.885   4.988   1.125
 3853TIP3    H211524   1.030   5.024   1.151
 3854TIP3   OH211525   6.413   2.330   1.709
 3854TIP3    H111526   6.404   2.278   1.789
 3854TIP3    H211527   6.357   2.287   1.645
 3855TIP3   OH211528   6.624   5.692   1.462
 3855TIP3    H111529   6.660   5.670   1.549
 3855TIP3    H211530   6.682   5.647   1.401
 3856TIP3   OH211531   1.956   5.884   0.164
 3856TIP3    H111532   1.922   5.883   0.075
 3856TIP3    H211533   2.041   5.927   0.157
 3857TIP3   OH211534   4.638   3.307   0.124
 3857TIP3    H111535   4.551   3.301   0.163
 3857TIP3    H211536   4.691   3.351   0.191
 3858TIP3   OH211537   0.830   3.438   1.756
 3858TIP3    H111538   0.911   3.441   1.706
 3858TIP3    H211539   0.837   3.358   1.808
 3859TIP3   OH211540   3.517   3.051   5.541
 3859TIP3    H111541   3.528   3.021   5.632
 3859TIP3    H211542   3.520   2.971   5.489
 3860TIP3   OH211543   5.479   5.957   2.519
 3860TIP3    H111544   5.405   5.897   2.524
 3860TIP3    H211545   5.475   6.006   2.602
 3861TIP3   OH211546   6.249   6.608   4.138
 3861TIP3    H111547   6.299   6.616   4.219
 3861TIP3    H211548   6.163   6.576   4.166
 3862TIP3   OH211549   0.374   3.241   4.320
 3862TIP3    H111550   0.338   3.305   4.381
 3862TIP3    H211551   0.458   3.216   4.359
 3863TIP3   OH211552   2.510   0.958   2.922
 3863TIP3    H111553   2.446   1.028   2.911
 3863TIP3    H211554   2.593   0.996   2.895
 3864TIP3   OH211555   4.302   4.659   4.618
 3864TIP3    H111556   4.243   4.584   4.624
 3864TIP3    H211557   4.257   4.721   4.560
 3865TIP3   OH211558   3.487   6.502   1.716
 3865TIP3    H111559   3.534   6.539   1.791
 3865TIP3    H211560   3.545   6.433   1.683
 3866TIP3   OH211561   7.007   3.204   4.409
 3866TIP3    H111562   6.991   3.110   4.416
 3866TIP3    H211563   6.974   3.228   4.323
 3867TIP3   OH211564   1.639   3.374   0.341
 3867TIP3    H111565   1.602   3.439   0.282
 3867TIP3    H211566   1.688   3.315   0.284
 3868TIP3   OH211567   5.599   3.456   3.401
 3868TIP3    H111568   5.612   3.526   3.337
 3868TIP3    H211569   5.510   3.425   3.383
 3869TIP3   OH211570   3.491   5.932   0.159
 3869TIP3    H111571   3.487   6.005   0.099
 3869TIP3    H211572   3.579   5.896   0.146
 3870TIP3   OH211573   2.317   5.345   2.540
 3870TIP3    H111574   2.290   5.338   2.632
 3870TIP3    H211575   2.297   5.259   2.503
 3871TIP3   OH211576   5.905   1.907   3.661
 3871TIP3    H111577   5.922   1.936   3.571
 3871TIP3    H211578   5.879   1.815   3.651
 3872TIP3   OH211579   0.423   0.954   2.236
 3872TIP3    H111580   0.339   0.995   2.216
 3872TIP3    H211581   0.450   0.914   2.153
 3873TIP3   OH211582   0.997   2.672   3.864
 3873TIP3    H111583   0.954   2.666   3.778
 3873TIP3    H211584   1.090   2.665   3.845
 3874TIP3   OH211585   0.813   2.142   2.523
 3874TIP3    H111586   0.830   2.095   2.441
 3874TIP3    H211587   0.888   2.201   2.532
 3875TIP3   OH211588   0.305   4.496   3.032
 3875TIP3    H111589   0.391   4.534   3.048
 3875TIP3    H211590   0.321   4.422   2.974
 3876TIP3   OH211591   3.642   1.026   5.708
 3876TIP3    H111592   3.590   0.984   5.639
 3876TIP3    H211593   3.723   1.051   5.664
 3877TIP3   OH211594   1.087   5.534   1.801
 3877TIP3    H111595   1.118   5.535   1.892
 3877TIP3    H211596   1.003   5.579   1.805
 3878TIP3   OH211597   2.330   2.639   3.076
 3878TIP3    H111598   2.355   2.707   3.137
 3878TIP3    H211599   2.244   2.609   3.107
 3879TIP3   OH211600   5.018   1.200   0.543
 3879TIP3    H111601   5.107   1.164   0.537
 3879TIP3    H211602   5.006   1.218   0.636
 3880TIP3   OH211603   6.347   6.468   0.770
 3880TIP3    H111604   6.369   6.390   0.822
 3880TIP3    H211605   6.352   6.541   0.832
 3881TIP3   OH211606   1.183   3.566   3.855
 3881TIP3    H111607   1.276   3.562   3.876
 3881TIP3    H211608   1.180   3.592   3.763
 3882TIP3   OH211609   6.687   6.672   1.435
 3882TIP3    H111610   6.595   6.649   1.426
 3882TIP3    H211611   6.711   6.707   1.349
 3883TIP3   OH211612   0.593   0.461   3.667
 3883TIP3    H111613   0.661   0.404   3.704
 3883TIP3    H211614   0.535   0.401   3.619
 3884TIP3   OH211615   3.663   2.079   2.165
 3884TIP3    H111616   3.681   2.071   2.259
 3884TIP3    H211617   3.703   2.002   2.126
 3885TIP3   OH211618   1.391   1.432   2.664
 3885TIP3    H111619   1.419   1.519   2.692
 3885TIP3    H211620   1.379   1.439   2.570
 3886TIP3   OH211621   6.092   1.599   0.688
 3886TIP3    H111622   6.055   1.526   0.638
 3886TIP3    H211623   6.017   1.649   0.719
 3887TIP3   OH211624   3.210   3.532   3.184
 3887TIP3    H111625   3.208   3.625   3.207
 3887TIP3    H211626   3.277   3.525   3.117
 3888TIP3   OH211627   2.778   4.362   0.385
 3888TIP3    H111628   2.765   4.397   0.297
 3888TIP3    H211629   2.818   4.434   0.434
 3889TIP3   OH211630   6.291   0.009   3.721
 3889TIP3    H111631   6.287   0.076   3.790
 3889TIP3    H211632   6.315  -0.071   3.767
 3890TIP3   OH211633   4.368   6.557   5.058
 3890TIP3    H111634   4.453   6.601   5.063
 3890TIP3    H211635   4.318   6.594   5.131
 3891TIP3   OH211636   6.015   1.011   4.749
 3891TIP3    H111637   5.931   1.047   4.720
 3891TIP3    H211638   6.074   1.086   4.748
 3892TIP3   OH211639   0.690   6.800   1.977
 3892TIP3    H111640   0.629   6.759   2.037
 3892TIP3    H211641   0.771   6.810   2.027
 3893TIP3   OH211642   0.121   5.986   4.543
 3893TIP3    H111643   0.057   5.991   4.472
 3893TIP3    H211644   0.124   6.075   4.579
 3894TIP3   OH211645   1.513   4.096   0.449
 3894TIP3    H111646   1.471   4.063   0.529
 3894TIP3    H211647   1.455   4.166   0.419
 3895TIP3   OH211648   4.010   0.629   4.464
 3895TIP3    H111649   4.021   0.536   4.485
 3895TIP3    H211650   4.079   0.648   4.401
 3896TIP3   OH211651   1.714   6.599   4.579
 3896TIP3    H111652   1.669   6.542   4.518
 3896TIP3    H211653   1.644   6.647   4.623
 3897TIP3   OH211654   4.767   0.745   0.230
 3897TIP3    H111655   4.841   0.761   0.288
 3897TIP3    H211656   4.696   0.796   0.267
 3898TIP3   OH211657   3.647   4.869   3.728
 3898TIP3    H111658   3.625   4.900   3.640
 3898TIP3    H211659   3.630   4.775   3.725
 3899TIP3   OH211660   0.563   2.208   4.889
 3899TIP3    H111661   0.652   2.194   4.858
 3899TIP3    H211662   0.559   2.160   4.972
 3900TIP3   OH211663   0.240   0.480   4.786
 3900TIP3    H111664   0.189   0.524   4.718
 3900TIP3    H211665   0.327   0.469   4.747
 3901TIP3   OH211666   0.254   1.202   0.785
 3901TIP3    H111667   0.177   1.177   0.733
 3901TIP3    H211668   0.320   1.226   0.720
 3902TIP3   OH211669   1.841   3.579   2.021
 3902TIP3    H111670   1.846   3.534   1.937
 3902TIP3    H211671   1.748   3.583   2.041
 3903TIP3   OH211672   6.892   5.780   4.475
 3903TIP3    H111673   6.841   5.733   4.409
 3903TIP3    H211674   6.827   5.830   4.524
 3904TIP3   OH211675   0.744   2.049   3.926
 3904TIP3    H111676   0.675   2.112   3.907
 3904TIP3    H211677   0.701   1.964   3.925
 3905TIP3   OH211678   2.519   0.275   5.466
 3905TIP3    H111679   2.549   0.204   5.410
 3905TIP3    H211680   2.500   0.234   5.550
 3906TIP3   OH211681   5.128   6.335   4.445
 3906TIP3    H111682   5.069   6.275   4.400
 3906TIP3    H211683   5.180   6.375   4.375
 3907TIP3   OH211684   0.594   2.257   5.513
 3907TIP3    H111685   0.525   2.261   5.446
 3907TIP3    H211686   0.652   2.331   5.492
 3908TIP3   OH211687   1.623   4.388   3.096
 3908TIP3    H111688   1.688   4.337   3.048
 3908TIP3    H211689   1.674   4.455   3.143
 3909TIP3   OH211690   4.122   6.017   1.836
 3909TIP3    H111691   4.212   6.041   1.855
 3909TIP3    H211692   4.092   5.972   1.915
 3910TIP3   OH211693   0.261   5.415   5.045
 3910TIP3    H111694   0.209   5.340   5.016
 3910TIP3    H211695   0.294   5.389   5.131
 3911TIP3   OH211696   6.835   2.691   5.604
 3911TIP3    H111697   6.929   2.700   5.592
 3911TIP3    H211698   6.804   2.779   5.622
 3912TIP3   OH211699   2.715   0.187   2.209
 3912TIP3    H111700   2.765   0.148   2.137
 3912TIP3    H211701   2.680   0.112   2.257
 3913TIP3   OH211702   2.055   5.039   0.725
 3913TIP3    H111703   2.005   5.042   0.807
 3913TIP3    H211704   2.146   5.036   0.753
 3914TIP3   OH211705   0.658   6.791   0.908
 3914TIP3    H111706   0.648   6.826   0.997
 3914TIP3    H211707   0.596   6.718   0.904
 3915TIP3   OH211708   0.566   0.903   0.278
 3915TIP3    H111709   0.603   0.991   0.266
 3915TIP3    H211710   0.472   0.915   0.262
 3916TIP3   OH211711   2.494   1.321   1.829
 3916TIP3    H111712   2.434   1.366   1.888
 3916TIP3    H211713   2.536   1.391   1.779
 3917TIP3   OH211714   0.779   0.130   3.911
 3917TIP3    H111715   0.709   0.068   3.930
 3917TIP3    H211716   0.800   0.170   3.996
 3918TIP3   OH211717   6.179   2.088   1.135
 3918TIP3    H111718   6.123   2.087   1.058
 3918TIP3    H211719   6.117   2.094   1.209
 3919TIP3   OH211720   1.764   6.717   2.543
 3919TIP3    H111721   1.827   6.763   2.599
 3919TIP3    H211722   1.804   6.719   2.456
 3920TIP3   OH211723   4.949   5.998   0.101
 3920TIP3    H111724   4.884   5.990   0.032
 3920TIP3    H211725   5.022   5.943   0.072
 3921TIP3   OH211726   2.379   3.330   2.816
 3921TIP3    H111727   2.310   3.268   2.839
 3921TIP3    H211728   2.397   3.313   2.723
 3922TIP3   OH211729   0.838   4.572   1.747
 3922TIP3    H111730   0.862   4.640   1.811
 3922TIP3    H211731   0.914   4.566   1.689
 3923TIP3   OH211732   2.033   2.354   0.907
 3923TIP3    H111733   2.116   2.312   0.887
 3923TIP3    H211734   2.037   2.372   1.001
 3924TIP3   OH211735   1.418   0.801   0.323
 3924TIP3    H111736   1.371   0.780   0.243
 3924TIP3    H211737   1.502   0.837   0.293
 3925TIP3   OH211738   0.503   5.916   1.398
 3925TIP3    H111739   0.506   5.830   1.355
 3925TIP3    H211740   0.572   5.966   1.354
 3926TIP3   OH211741   3.589   5.320   5.537
 3926TIP3    H111742   3.506   5.336   5.582
 3926TIP3    H211743   3.613   5.231   5.563
 3927TIP3   OH211744   3.718   4.541   1.537
 3927TIP3    H111745   3.775   4.474   1.499
 3927TIP3    H211746   3.650   4.491   1.583
 3928TIP3   OH211747   7.111   4.605   3.767
 3928TIP3    H111748   7.148   4.649   3.843
 3928TIP3    H211749   7.023   4.577   3.795
 3929TIP3   OH211750   4.768   3.586   0.784
 3929TIP3    H111751   4.752   3.542   0.867
 3929TIP3    H211752   4.684   3.586   0.739
 3930TIP3   OH211753   4.464   0.994   2.029
 3930TIP3    H111754   4.442   1.050   2.104
 3930TIP3    H211755   4.544   0.949   2.056
 3931TIP3   OH211756   2.579   6.523   0.913
 3931TIP3    H111757   2.642   6.473   0.860
 3931TIP3    H211758   2.634   6.567   0.978
 3932TIP3   OH211759   4.666   6.533   2.812
 3932TIP3    H111760   4.759   6.556   2.820
 3932TIP3    H211761   4.625   6.613   2.779
 3933TIP3   OH211762   6.868   0.760   3.075
 3933TIP3    H111763   6.938   0.721   3.024
 3933TIP3    H211764   6.912   0.799   3.151
 3934TIP3   OH211765   2.886   4.141   5.463
 3934TIP3    H111766   2.936   4.200   5.406
 3934TIP3    H211767   2.886   4.185   5.548
 3935TIP3   OH211768   2.984   3.510   5.602
 3935TIP3    H111769   3.040   3.437   5.574
 3935TIP3    H211770   2.982   3.570   5.528
 3936TIP3   OH211771   3.673   3.896   4.555
 3936TIP3    H111772   3.585   3.929   4.539
 3936TIP3    H211773   3.668   3.802   4.536
 3937TIP3   OH211774   6.303   5.125   5.356
 3937TIP3    H111775   6.368   5.121   5.426
 3937TIP3    H211776   6.279   5.218   5.351
 3938TIP3   OH211777   3.127   2.430   4.285
 3938TIP3    H111778   3.199   2.455   4.343
 3938TIP3    H211779   3.137   2.336   4.274
 3939TIP3   OH211780   2.997   0.262   2.369
 3939TIP3    H111781   2.941   0.195   2.409
 3939TIP3    H211782   3.078   0.215   2.347
 3940TIP3   OH211783   2.277   4.361   4.376
 3940TIP3    H111784   2.287   4.441   4.429
 3940TIP3    H211785   2.281   4.392   4.286
 3941TIP3   OH211786   5.736   6.726   1.693
 3941TIP3    H111787   5.817   6.761   1.655
 3941TIP3    H211788   5.766   6.662   1.758
 3942TIP3   OH211789   7.079   0.767   3.274
 3942TIP3    H111790   7.144   0.803   3.335
 3942TIP3    H211791   7.123   0.693   3.232
 3943TIP3   OH211792   3.911   3.500   3.848
 3943TIP3    H111793   3.833   3.533   3.804
 3943TIP3    H211794   3.934   3.568   3.912
 3944TIP3   OH211795   1.312   1.361   0.225
 3944TIP3    H111796   1.269   1.434   0.270
 3944TIP3    H211797   1.404   1.387   0.218
 3945TIP3   OH211798   7.085   3.632   0.841
 3945TIP3    H111799   7.063   3.683   0.919
 3945TIP3    H211800   7.004   3.628   0.791
 3946TIP3   OH211801   5.167   0.752   4.139
 3946TIP3    H111802   5.238   0.811   4.164
 3946TIP3    H211803   5.177   0.740   4.045
 3947TIP3   OH211804   5.391   3.434   2.682
 3947TIP3    H111805   5.342   3.353   2.696
 3947TIP3    H211806   5.459   3.432   2.749
 3948TIP3   OH211807   1.918   2.626   3.974
 3948TIP3    H111808   1.991   2.658   4.028
 3948TIP3    H211809   1.958   2.602   3.891
 3949TIP3   OH211810   3.047   0.307   1.494
 3949TIP3    H111811   2.994   0.234   1.525
 3949TIP3    H211812   2.997   0.343   1.421
 3950TIP3   OH211813   0.264   6.711   2.320
 3950TIP3    H111814   0.208   6.678   2.390
 3950TIP3    H211815   0.325   6.640   2.302
 3951TIP3   OH211816   3.119   0.929   0.163
 3951TIP3    H111817   3.176   0.984   0.216
 3951TIP3    H211818   3.121   0.843   0.205
 3952TIP3   OH211819   3.612   4.726   3.431
 3952TIP3    H111820   3.605   4.641   3.389
 3952TIP3    H211821   3.522   4.759   3.434
 3953TIP3   OH211822   6.766   0.684   1.201
 3953TIP3    H111823   6.782   0.628   1.125
 3953TIP3    H211824   6.773   0.773   1.167
 3954TIP3   OH211825   6.090   3.737   3.898
 3954TIP3    H111826   6.024   3.756   3.831
 3954TIP3    H211827   6.151   3.811   3.894
 3955TIP3   OH211828   6.661   6.288   5.605
 3955TIP3    H111829   6.631   6.336   5.683
 3955TIP3    H211830   6.745   6.251   5.631
 3956TIP3   OH211831   3.485   4.915   0.479
 3956TIP3    H111832   3.532   4.874   0.406
 3956TIP3    H211833   3.543   4.903   0.554
 3957TIP3   OH211834  -0.024   1.583   1.701
 3957TIP3    H111835   0.011   1.593   1.789
 3957TIP3    H211836   0.052   1.565   1.646
 3958TIP3   OH211837   2.621   1.452   2.681
 3958TIP3    H111838   2.568   1.511   2.628
 3958TIP3    H211839   2.604   1.365   2.644
 3959TIP3   OH211840   5.478   1.911   0.842
 3959TIP3    H111841   5.520   1.996   0.827
 3959TIP3    H211842   5.384   1.930   0.838
 3960TIP3   OH211843   3.682   0.006   5.881
 3960TIP3    H111844   3.714   0.076   5.938
 3960TIP3    H211845   3.692   0.041   5.793
 3961TIP3   OH211846   7.070   4.570   2.375
 3961TIP3    H111847   7.043   4.543   2.462
 3961TIP3    H211848   7.154   4.525   2.361
 3962TIP3   OH211849   0.472   4.840   2.995
 3962TIP3    H111850   0.488   4.804   3.083
 3962TIP3    H211851   0.503   4.772   2.935
 3963TIP3   OH211852   1.004   2.467   0.932
 3963TIP3    H111853   1.080   2.480   0.875
 3963TIP3    H211854   0.956   2.550   0.928
 3964TIP3   OH211855   3.767   2.436   4.244
 3964TIP3    H111856   3.697   2.467   4.301
 3964TIP3    H211857   3.827   2.390   4.302
 3965TIP3   OH211858   4.290   6.016   3.344
 3965TIP3    H111859   4.286   5.957   3.419
 3965TIP3    H211860   4.355   5.977   3.286
 3966TIP3   OH211861   0.016   3.629   5.219
 3966TIP3    H111862   0.035   3.592   5.305
 3966TIP3    H211863  -0.024   3.714   5.237
 3967TIP3   OH211864   3.433   0.258   3.103
 3967TIP3    H111865   3.340   0.277   3.091
 3967TIP3    H211866   3.478   0.321   3.047
 3968TIP3   OH211867   1.474   0.086   0.038
 3968TIP3    H111868   1.415   0.096   0.112
 3968TIP3    H211869   1.514   0.173   0.027
 3969TIP3   OH211870   1.967   0.878   0.708
 3969TIP3    H111871   2.043   0.934   0.725
 3969TIP3    H211872   1.891   0.933   0.728
 3970TIP3   OH211873   1.009   4.913   0.226
 3970TIP3    H111874   0.919   4.917   0.195
 3970TIP3    H211875   1.030   4.820   0.230
 3971TIP3   OH211876   6.002   4.943   3.586
 3971TIP3    H111877   6.014   5.017   3.527
 3971TIP3    H211878   6.046   4.870   3.543
 3972TIP3   OH211879   6.173   3.051   0.574
 3972TIP3    H111880   6.183   3.140   0.539
 3972TIP3    H211881   6.132   3.063   0.659
 3973TIP3   OH211882   4.147   5.468   2.030
 3973TIP3    H111883   4.175   5.542   1.976
 3973TIP3    H211884   4.107   5.509   2.107
 3974TIP3   OH211885   3.943   5.878   3.669
 3974TIP3    H111886   3.910   5.967   3.685
 3974TIP3    H211887   4.038   5.886   3.674
 3975TIP3   OH211888   6.026   0.868   3.729
 3975TIP3    H111889   6.036   0.804   3.799
 3975TIP3    H211890   5.967   0.934   3.765
 3976TIP3   OH211891   4.400   2.661   1.521
 3976TIP3    H111892   4.307   2.683   1.523
 3976TIP3    H211893   4.413   2.622   1.435
 3977TIP3   OH211894   3.881   4.771   5.781
 3977TIP3    H111895   3.949   4.809   5.725
 3977TIP3    H211896   3.927   4.747   5.861
 3978TIP3   OH211897   0.069   2.027   3.333
 3978TIP3    H111898   0.056   2.088   3.261
 3978TIP3    H211899   0.061   1.940   3.292
 3979TIP3   OH211900   1.483   5.643   0.196
 3979TIP3    H111901   1.539   5.707   0.151
 3979TIP3    H211902   1.439   5.694   0.264
 3980TIP3   OH211903   4.188   2.982   0.138
 3980TIP3    H111904   4.178   2.995   0.044
 3980TIP3    H211905   4.212   3.069   0.172
 3981TIP3   OH211906   4.981   4.128   5.863
 3981TIP3    H111907   5.038   4.057   5.835
 3981TIP3    H211908   5.024   4.163   5.942
 3982TIP3   OH211909   7.182   5.272   4.261
 3982TIP3    H111910   7.258   5.306   4.308
 3982TIP3    H211911   7.180   5.179   4.282
 3983TIP3   OH211912   2.325   3.854   5.202
 3983TIP3    H111913   2.230   3.869   5.196
 3983TIP3    H211914   2.336   3.801   5.280
 3984TIP3   OH211915   5.080   1.826   3.229
 3984TIP3    H111916   5.031   1.878   3.293
 3984TIP3    H211917   5.113   1.890   3.166
 3985TIP3   OH211918   3.733   4.438   5.365
 3985TIP3    H111919   3.647   4.474   5.386
 3985TIP3    H211920   3.792   4.481   5.427
 3986TIP3   OH211921   0.911   5.763   1.632
 3986TIP3    H111922   0.987   5.781   1.686
 3986TIP3    H211923   0.846   5.727   1.693
 3987TIP3   OH211924   5.168   1.438   3.969
 3987TIP3    H111925   5.078   1.426   3.937
 3987TIP3    H211926   5.162   1.510   4.031
 3988TIP3   OH211927   5.532   2.255   4.525
 3988TIP3    H111928   5.570   2.230   4.440
 3988TIP3    H211929   5.540   2.350   4.528
 3989TIP3   OH211930   2.370   6.636   1.252
 3989TIP3    H111931   2.326   6.574   1.311
 3989TIP3    H211932   2.405   6.703   1.311
 3990TIP3   OH211933   3.256   1.620   3.443
 3990TIP3    H111934   3.343   1.590   3.419
 3990TIP3    H211935   3.265   1.652   3.533
 3991TIP3   OH211936   1.140   6.740   3.900
 3991TIP3    H111937   1.153   6.820   3.951
 3991TIP3    H211938   1.153   6.767   3.809
 3992TIP3   OH211939   1.344   6.273   4.876
 3992TIP3    H111940   1.270   6.321   4.839
 3992TIP3    H211941   1.351   6.306   4.966
 3993TIP3   OH211942   4.850   4.043   4.425
 3993TIP3    H111943   4.804   3.972   4.381
 3993TIP3    H211944   4.913   4.075   4.361
 3994TIP3   OH211945   5.306   1.051   5.676
 3994TIP3    H111946   5.275   0.964   5.701
 3994TIP3    H211947   5.257   1.071   5.595
 3995TIP3   OH211948   1.469   6.694   5.386
 3995TIP3    H111949   1.509   6.608   5.396
 3995TIP3    H211950   1.536   6.756   5.412
 3996TIP3   OH211951   0.275   5.009   3.094
 3996TIP3    H111952   0.355   4.990   3.045
 3996TIP3    H211953   0.270   4.939   3.159
 3997TIP3   OH211954   6.942   3.364   0.100
 3997TIP3    H111955   6.872   3.319   0.147
 3997TIP3    H211956   6.984   3.294   0.049
 3998TIP3   OH211957   1.730   5.694   1.837
 3998TIP3    H111958   1.754   5.616   1.788
 3998TIP3    H211959   1.694   5.754   1.772
 3999TIP3   OH211960   3.330   2.301   2.647
 3999TIP3    H111961   3.296   2.251   2.722
 3999TIP3    H211962   3.303   2.391   2.664
 4000TIP3   OH211963   4.993   3.449   0.627
 4000TIP3    H111964   5.032   3.362   0.616
 4000TIP3    H211965   4.921   3.434   0.689
 4001TIP3   OH211966   6.805   4.805   4.588
 4001TIP3    H111967   6.741   4.758   4.642
 4001TIP3    H211968   6.796   4.896   4.614
 4002TIP3   OH211969   0.837   6.759   0.412
 4002TIP3    H111970   0.819   6.755   0.506
 4002TIP3    H211971   0.916   6.705   0.401
 4003TIP3   OH211972   3.866   3.929   3.175
 4003TIP3    H111973   3.893   4.000   3.117
 4003TIP3    H211974   3.827   3.864   3.117
 4004TIP3   OH211975   6.397   5.482   4.730
 4004TIP3    H111976   6.471   5.503   4.787
 4004TIP3    H211977   6.434   5.482   4.641
 4005TIP3   OH211978   1.814   0.405   2.733
 4005TIP3    H111979   1.734   0.451   2.705
 4005TIP3    H211980   1.837   0.349   2.659
 4006TIP3   OH211981   2.281   0.005   0.107
 4006TIP3    H111982   2.290  -0.032   0.195
 4006TIP3    H211983   2.222  -0.055   0.062
 4007TIP3   OH211984   4.291   2.356   5.579
 4007TIP3    H111985   4.199   2.355   5.605
 4007TIP3    H211986   4.328   2.432   5.625
 4008TIP3   OH211987   7.043   0.250   3.860
 4008TIP3    H111988   7.036   0.171   3.808
 4008TIP3    H211989   6.985   0.235   3.935
 4009TIP3   OH211990   3.599   4.332   0.362
 4009TIP3    H111991   3.661   4.345   0.291
 4009TIP3    H211992   3.567   4.242   0.351
 4010TIP3   OH211993   0.904   2.861   4.826
 4010TIP3    H111994   0.861   2.940   4.858
 4010TIP3    H211995   0.900   2.869   4.730
 4011TIP3   OH211996   2.093   3.256   0.846
 4011TIP3    H111997   2.102   3.326   0.781
 4011TIP3    H211998   1.999   3.241   0.852
 4012TIP3   OH211999   2.375   6.695   3.248
 4012TIP3    H112000   2.291   6.735   3.225
 4012TIP3    H212001   2.356   6.601   3.253
 4013TIP3   OH212002   0.041   5.273   3.257
 4013TIP3    H112003   0.046   5.255   3.163
 4013TIP3    H212004   0.112   5.334   3.273
 4014TIP3   OH212005   7.193   1.622   2.247
 4014TIP3    H112006   7.103   1.639   2.217
 4014TIP3    H212007   7.218   1.702   2.292
 4015TIP3   OH212008   1.530   1.816   4.453
 4015TIP3    H112009   1.450   1.860   4.479
 4015TIP3    H212010   1.598   1.882   4.462
 4016TIP3   OH212011   5.495   1.718   5.083
 4016TIP3    H112012   5.532   1.803   5.060
 4016TIP3    H212013   5.515   1.707   5.176
 4017TIP3   OH212014   5.636   5.323   0.217
 4017TIP3    H112015   5.591   5.364   0.143
 4017TIP3    H212016   5.675   5.243   0.180
 4018TIP3   OH212017   5.713   5.220   0.997
 4018TIP3    H112018   5.713   5.126   1.013
 4018TIP3    H212019   5.655   5.232   0.921
 4019TIP3   OH212020   6.422   1.842   4.908
 4019TIP3    H112021   6.468   1.918   4.942
 4019TIP3    H212022   6.371   1.810   4.982
 4020TIP3   OH212023   2.739   1.072   2.786
 4020TIP3    H112024   2.798   1.063   2.861
 4020TIP3    H212025   2.758   0.995   2.732
 4021TIP3   OH212026   6.691   2.845   1.845
 4021TIP3    H112027   6.757   2.894   1.894
 4021TIP3    H212028   6.692   2.884   1.757
 4022TIP3   OH212029   4.543   4.891   5.305
 4022TIP3    H112030   4.584   4.821   5.253
 4022TIP3    H212031   4.520   4.958   5.241
 4023TIP3   OH212032   4.118   1.720   4.232
 4023TIP3    H112033   4.179   1.658   4.272
 4023TIP3    H212034   4.092   1.778   4.303
 4024TIP3   OH212035   4.873   2.240   0.197
 4024TIP3    H112036   4.792   2.223   0.150
 4024TIP3    H212037   4.938   2.186   0.153
 4025TIP3   OH212038   5.632   0.633   4.761
 4025TIP3    H112039   5.630   0.539   4.775
 4025TIP3    H212040   5.599   0.670   4.843
 4026TIP3   OH212041   4.848   5.099   3.062
 4026TIP3    H112042   4.933   5.143   3.062
 4026TIP3    H212043   4.866   5.011   3.028
 4027TIP3   OH212044   1.832   3.419   1.796
 4027TIP3    H112045   1.917   3.386   1.766
 4027TIP3    H212046   1.769   3.353   1.767
 4028TIP3   OH212047   3.881   1.887   2.942
 4028TIP3    H112048   3.932   1.965   2.922
 4028TIP3    H212049   3.790   1.917   2.937
 4029TIP3   OH212050   0.319   4.078   0.141
 4029TIP3    H112051   0.319   4.013   0.211
 4029TIP3    H212052   0.324   4.162   0.187
 4030TIP3   OH212053   1.919   0.476   3.568
 4030TIP3    H112054   1.887   0.397   3.612
 4030TIP3    H212055   1.855   0.544   3.591
 4031TIP3   OH212056   5.956   1.945   3.390
 4031TIP3    H112057   6.051   1.941   3.381
 4031TIP3    H212058   5.928   2.007   3.322
 4032TIP3   OH212059   5.353   6.798   0.162
 4032TIP3    H112060   5.346   6.876   0.107
 4032TIP3    H212061   5.427   6.817   0.221
 4033TIP3   OH212062   1.061   0.139   3.479
 4033TIP3    H112063   1.110   0.178   3.406
 4033TIP3    H212064   1.126   0.128   3.548
 4034TIP3   OH212065   5.976   2.526   0.402
 4034TIP3    H112066   5.975   2.513   0.307
 4034TIP3    H212067   5.896   2.484   0.433
 4035TIP3   OH212068   5.574   4.197   2.426
 4035TIP3    H112069   5.670   4.200   2.428
 4035TIP3    H212070   5.553   4.106   2.450
 4036TIP3   OH212071   0.597   4.224   5.048
 4036TIP3    H112072   0.562   4.267   4.970
 4036TIP3    H212073   0.531   4.159   5.071
 4037TIP3   OH212074   1.699   5.639   3.910
 4037TIP3    H112075   1.790   5.613   3.926
 4037TIP3    H212076   1.654   5.557   3.888
 4038TIP3   OH212077   3.529   1.725   0.981
 4038TIP3    H112078   3.473   1.667   0.930
 4038TIP3    H212079   3.611   1.677   0.990
 4039TIP3   OH212080   6.744   5.808   1.974
 4039TIP3    H112081   6.681   5.743   1.945
 4039TIP3    H212082   6.718   5.829   2.064
 4040TIP3   OH212083   2.785   0.434   2.942
 4040TIP3    H112084   2.845   0.508   2.932
 4040TIP3    H212085   2.734   0.433   2.862
 4041TIP3   OH212086   6.727   3.067   3.183
 4041TIP3    H112087   6.773   3.120   3.117
 4041TIP3    H212088   6.756   2.977   3.165
 4042TIP3   OH212089   0.037   1.905   2.002
 4042TIP3    H112090   0.106   1.933   2.062
 4042TIP3    H212091   0.020   1.981   1.947
 4043TIP3   OH212092   5.203   6.145   1.930
 4043TIP3    H112093   5.208   6.204   2.005
 4043TIP3    H212094   5.109   6.139   1.911
 4044TIP3   OH212095   4.121   0.884   1.124
 4044TIP3    H112096   4.145   0.834   1.046
 4044TIP3    H212097   4.198   0.936   1.144
 4045TIP3   OH212098   5.411   3.423   4.386
 4045TIP3    H112099   5.342   3.468   4.433
 4045TIP3    H212100   5.470   3.391   4.454
 4046TIP3   OH212101   1.475   4.899   0.967
 4046TIP3    H112102   1.402   4.952   0.935
 4046TIP3    H212103   1.462   4.813   0.927
 4047TIP3   OH212104   0.181   3.534   3.557
 4047TIP3    H112105   0.177   3.570   3.645
 4047TIP3    H212106   0.132   3.597   3.503
 4048TIP3   OH212107   3.358   2.613   4.737
 4048TIP3    H112108   3.416   2.680   4.775
 4048TIP3    H212109   3.310   2.578   4.813
 4049TIP3   OH212110   4.085   4.608   2.145
 4049TIP3    H112111   4.055   4.558   2.220
 4049TIP3    H212112   4.132   4.682   2.182
 4050TIP3   OH212113   3.747   4.921   3.306
 4050TIP3    H112114   3.691   4.858   3.352
 4050TIP3    H212115   3.836   4.888   3.320
 4051TIP3   OH212116   3.802   5.695   2.272
 4051TIP3    H112117   3.733   5.629   2.283
 4051TIP3    H212118   3.799   5.718   2.180
 4052TIP3   OH212119   1.255   5.054   2.110
 4052TIP3    H112120   1.190   5.013   2.053
 4052TIP3    H212121   1.205   5.082   2.187
 4053TIP3   OH212122   6.751   3.551   2.352
 4053TIP3    H112123   6.656   3.560   2.360
 4053TIP3    H212124   6.767   3.457   2.359
 4054TIP3   OH212125   2.206   6.595   0.695
 4054TIP3    H112126   2.187   6.638   0.779
 4054TIP3    H212127   2.144   6.634   0.634
 4055TIP3   OH212128   4.672   1.292   3.125
 4055TIP3    H112129   4.632   1.253   3.047
 4055TIP3    H212130   4.663   1.386   3.111
 4056TIP3   OH212131   6.146   4.106   2.624
 4056TIP3    H112132   6.190   4.037   2.673
 4056TIP3    H212133   6.146   4.181   2.683
 4057TIP3   OH212134   7.063   2.694   4.995
 4057TIP3    H112135   6.985   2.641   5.015
 4057TIP3    H212136   7.136   2.632   5.003
 4058TIP3   OH212137   1.941   5.826   2.262
 4058TIP3    H112138   2.031   5.797   2.273
 4058TIP3    H212139   1.945   5.922   2.268
 4059TIP3   OH212140   4.276   2.704   1.910
 4059TIP3    H112141   4.339   2.721   1.980
 4059TIP3    H212142   4.276   2.609   1.900
 4060TIP3   OH212143   6.974   5.855   1.567
 4060TIP3    H112144   7.067   5.843   1.586
 4060TIP3    H212145   6.929   5.798   1.630
 4061TIP3   OH212146   7.035   5.083   3.002
 4061TIP3    H112147   7.028   5.078   3.098
 4061TIP3    H212148   7.116   5.131   2.986
 4062TIP3   OH212149   0.697   3.436   0.777
 4062TIP3    H112150   0.707   3.360   0.720
 4062TIP3    H212151   0.767   3.428   0.841
 4063TIP3   OH212152   3.029   3.219   1.217
 4063TIP3    H112153   2.936   3.214   1.241
 4063TIP3    H212154   3.032   3.188   1.127
 4064TIP3   OH212155   2.445   0.292   3.627
 4064TIP3    H112156   2.396   0.213   3.606
 4064TIP3    H212157   2.401   0.327   3.705
 4065TIP3   OH212158   3.332   5.815   4.972
 4065TIP3    H112159   3.338   5.728   4.933
 4065TIP3    H212160   3.358   5.803   5.063
 4066TIP3   OH212161   0.832   0.698   2.876
 4066TIP3    H112162   0.917   0.693   2.832
 4066TIP3    H212163   0.848   0.757   2.950
 4067TIP3   OH212164   5.412   1.230   0.166
 4067TIP3    H112165   5.501   1.251   0.193
 4067TIP3    H212166   5.419   1.209   0.073
 4068TIP3   OH212167   1.752   6.833   0.720
 4068TIP3    H112168   1.742   6.762   0.783
 4068TIP3    H212169   1.680   6.893   0.740
 4069TIP3   OH212170   1.351   2.505   0.152
 4069TIP3    H112171   1.386   2.593   0.166
 4069TIP3    H212172   1.305   2.510   0.069
 4070TIP3   OH212173   5.966   6.101   2.625
 4070TIP3    H112174   5.971   6.009   2.601
 4070TIP3    H212175   6.018   6.108   2.706
 4071TIP3   OH212176   0.431   3.515   0.762
 4071TIP3    H112177   0.522   3.485   0.766
 4071TIP3    H212178   0.426   3.588   0.824
 4072TIP3   OH212179   3.991   2.386   1.521
 4072TIP3    H112180   3.976   2.349   1.607
 4072TIP3    H212181   3.936   2.334   1.462
 4073TIP3   OH212182   3.646   4.300   1.318
 4073TIP3    H112183   3.720   4.244   1.342
 4073TIP3    H212184   3.688   4.380   1.285
 4074TIP3   OH212185   3.951   4.909   1.620
 4074TIP3    H112186   3.886   4.912   1.690
 4074TIP3    H212187   4.035   4.909   1.666
 4075TIP3   OH212188   6.789   1.595   2.383
 4075TIP3    H112189   6.803   1.535   2.457
 4075TIP3    H212190   6.825   1.549   2.308
 4076TIP3   OH212191   5.799   1.871   2.878
 4076TIP3    H112192   5.809   1.904   2.788
 4076TIP3    H212193   5.704   1.864   2.890
 4077TIP3   OH212194   1.034   0.865   1.418
 4077TIP3    H112195   1.112   0.814   1.440
 4077TIP3    H212196   1.069   0.940   1.369
 4078TIP3   OH212197   4.848   2.158   2.121
 4078TIP3    H112198   4.881   2.241   2.155
 4078TIP3    H212199   4.907   2.137   2.049
 4079TIP3   OH212200   6.312   5.185   4.795
 4079TIP3    H112201   6.390   5.216   4.749
 4079TIP3    H212202   6.251   5.258   4.791
 4080TIP3   OH212203   0.125   4.528   1.949
 4080TIP3    H112204   0.141   4.551   1.858
 4080TIP3    H212205   0.102   4.611   1.992
 4081TIP3   OH212206   5.456   2.230   0.116
 4081TIP3    H112207   5.442   2.182   0.035
 4081TIP3    H212208   5.531   2.188   0.158
 4082TIP3   OH212209   5.956   0.675   0.505
 4082TIP3    H112210   5.963   0.581   0.487
 4082TIP3    H212211   5.890   0.707   0.443
 4083TIP3   OH212212   3.545   3.996   3.145
 4083TIP3    H112213   3.518   3.905   3.130
 4083TIP3    H212214   3.531   4.040   3.061
 4084TIP3   OH212215   6.171   4.092   0.036
 4084TIP3    H112216   6.145   4.165   0.092
 4084TIP3    H212217   6.151   4.014   0.087
 4085TIP3   OH212218   1.226   0.369   5.719
 4085TIP3    H112219   1.163   0.340   5.653
 4085TIP3    H212220   1.299   0.405   5.667
 4086TIP3   OH212221   5.671   2.293   1.061
 4086TIP3    H112222   5.698   2.324   1.147
 4086TIP3    H212223   5.735   2.331   1.001
 4087TIP3   OH212224   6.538   1.282   2.213
 4087TIP3    H112225   6.533   1.351   2.147
 4087TIP3    H212226   6.464   1.299   2.271
 4088TIP3   OH212227   1.844   4.366   1.515
 4088TIP3    H112228   1.855   4.420   1.593
 4088TIP3    H212229   1.751   4.371   1.494
 4089TIP3   OH212230   5.925   6.345   0.833
 4089TIP3    H112231   5.992   6.359   0.900
 4089TIP3    H212232   5.973   6.349   0.750
 4090TIP3   OH212233   3.680   0.444   0.977
 4090TIP3    H112234   3.633   0.496   1.041
 4090TIP3    H212235   3.738   0.389   1.029
 4091TIP3   OH212236   6.723   0.809   0.391
 4091TIP3    H112237   6.675   0.726   0.387
 4091TIP3    H212238   6.760   0.811   0.479
 4092TIP3   OH212239   3.016   2.785   2.876
 4092TIP3    H112240   3.067   2.718   2.831
 4092TIP3    H212241   3.021   2.760   2.969
 4093TIP3   OH212242   0.673   6.008   3.828
 4093TIP3    H112243   0.695   6.074   3.762
 4093TIP3    H212244   0.730   5.934   3.809
 4094TIP3   OH212245   2.431   4.226   2.658
 4094TIP3    H112246   2.469   4.224   2.570
 4094TIP3    H212247   2.433   4.135   2.687
 4095TIP3   OH212248   2.240   3.903   0.672
 4095TIP3    H112249   2.283   3.834   0.724
 4095TIP3    H212250   2.166   3.858   0.631
 4096TIP3   OH212251   2.335   5.239   1.327
 4096TIP3    H112252   2.291   5.175   1.383
 4096TIP3    H212253   2.401   5.188   1.280
 4097TIP3   OH212254   2.406   1.357   3.134
 4097TIP3    H112255   2.473   1.424   3.121
 4097TIP3    H212256   2.410   1.336   3.228
 4098TIP3   OH212257   3.197   4.718   2.671
 4098TIP3    H112258   3.249   4.656   2.723
 4098TIP3    H212259   3.198   4.799   2.722
 4099TIP3   OH212260   2.799   3.926   5.582
 4099TIP3    H112261   2.864   3.903   5.648
 4099TIP3    H212262   2.833   4.005   5.542
 4100TIP3   OH212263   5.373   1.018   0.994
 4100TIP3    H112264   5.404   0.967   0.920
 4100TIP3    H212265   5.425   1.098   0.992
 4101TIP3   OH212266   4.039   6.791   2.092
 4101TIP3    H112267   3.996   6.857   2.147
 4101TIP3    H212268   3.993   6.709   2.112
 4102TIP3   OH212269   5.124   5.025   4.459
 4102TIP3    H112270   5.107   5.069   4.542
 4102TIP3    H212271   5.166   4.943   4.483
 4103TIP3   OH212272   5.076   4.339   1.619
 4103TIP3    H112273   5.111   4.348   1.708
 4103TIP3    H212274   5.014   4.267   1.624
 4104TIP3   OH212275   3.804   1.549   4.521
 4104TIP3    H112276   3.801   1.489   4.447
 4104TIP3    H212277   3.798   1.636   4.482
 4105TIP3   OH212278   3.874   3.796   3.412
 4105TIP3    H112279   3.938   3.843   3.465
 4105TIP3    H212280   3.881   3.836   3.325
 4106TIP3   OH212281   1.649   2.043   3.696
 4106TIP3    H112282   1.633   2.116   3.636
 4106TIP3    H212283   1.569   2.036   3.748
 4107TIP3   OH212284   3.366   3.919   2.187
 4107TIP3    H112285   3.324   3.915   2.273
 4107TIP3    H212286   3.339   3.839   2.143
 4108TIP3   OH212287   0.034   4.484   5.284
 4108TIP3    H112288   0.004   4.505   5.372
 4108TIP3    H212289   0.094   4.410   5.296
 4109TIP3   OH212290   0.748   0.458   3.312
 4109TIP3    H112291   0.656   0.464   3.287
 4109TIP3    H212292   0.757   0.369   3.345
 4110TIP3   OH212293   1.455   2.106   0.647
 4110TIP3    H112294   1.494   2.109   0.560
 4110TIP3    H212295   1.529   2.098   0.707
 4111TIP3   OH212296   2.469   6.667   3.704
 4111TIP3    H112297   2.559   6.695   3.721
 4111TIP3    H212298   2.432   6.735   3.648
 4112TIP3   OH212299   4.373   5.790   4.479
 4112TIP3    H112300   4.313   5.823   4.412
 4112TIP3    H212301   4.405   5.707   4.443
 4113TIP3   OH212302   3.791   3.148   1.632
 4113TIP3    H112303   3.804   3.239   1.659
 4113TIP3    H212304   3.860   3.131   1.569
 4114TIP3   OH212305   6.004   4.148   5.341
 4114TIP3    H112306   5.940   4.199   5.391
 4114TIP3    H212307   5.955   4.115   5.266
 4115TIP3   OH212308   1.568   2.656   4.319
 4115TIP3    H112309   1.611   2.571   4.328
 4115TIP3    H212310   1.612   2.697   4.244
 4116TIP3   OH212311   6.856   6.727   3.565
 4116TIP3    H112312   6.808   6.676   3.499
 4116TIP3    H212313   6.835   6.685   3.648
 4117TIP3   OH212314   3.080   5.701   5.057
 4117TIP3    H112315   3.135   5.627   5.031
 4117TIP3    H212316   3.081   5.699   5.153
 4118TIP3   OH212317   7.019   2.791   2.678
 4118TIP3    H112318   6.989   2.730   2.611
 4118TIP3    H212319   7.011   2.877   2.638
 4119TIP3   OH212320   1.029   0.271   1.921
 4119TIP3    H112321   1.110   0.312   1.951
 4119TIP3    H212322   0.986   0.240   2.000
 4120TIP3   OH212323   3.209   6.745   4.591
 4120TIP3    H112324   3.118   6.740   4.619
 4120TIP3    H212325   3.240   6.830   4.625
 4121TIP3   OH212326   3.566   6.815   3.807
 4121TIP3    H112327   3.484   6.768   3.826
 4121TIP3    H212328   3.613   6.756   3.748
 4122TIP3   OH212329   0.176   6.402   5.819
 4122TIP3    H112330   0.094   6.449   5.835
 4122TIP3    H212331   0.154   6.310   5.830
 4123TIP3   OH212332   5.099   5.539   4.002
 4123TIP3    H112333   5.121   5.604   4.068
 4123TIP3    H212334   5.182   5.517   3.960
 4124TIP3   OH212335   6.588   4.472   1.985
 4124TIP3    H112336   6.507   4.457   1.936
 4124TIP3    H212337   6.576   4.424   2.067
 4125TIP3   OH212338   4.307   5.984   1.148
 4125TIP3    H112339   4.262   5.960   1.067
 4125TIP3    H212340   4.267   6.068   1.173
 4126TIP3   OH212341   0.419   6.251   2.104
 4126TIP3    H112342   0.392   6.261   2.012
 4126TIP3    H212343   0.498   6.196   2.099
 4127TIP3   OH212344   2.751   2.730   3.003
 4127TIP3    H112345   2.791   2.747   2.917
 4127TIP3    H212346   2.739   2.635   3.005
 4128TIP3   OH212347   2.512   6.420   2.588
 4128TIP3    H112348   2.457   6.496   2.609
 4128TIP3    H212349   2.506   6.364   2.665
 4129TIP3   OH212350   3.741   4.522   5.660
 4129TIP3    H112351   3.727   4.602   5.710
 4129TIP3    H212352   3.747   4.453   5.727
 4130TIP3   OH212353   0.745   5.688   4.414
 4130TIP3    H112354   0.686   5.617   4.390
 4130TIP3    H212355   0.697   5.768   4.393
 4131TIP3   OH212356   3.108   0.641   4.779
 4131TIP3    H112357   3.045   0.630   4.708
 4131TIP3    H212358   3.114   0.554   4.820
 4132TIP3   OH212359   3.014   0.345   0.414
 4132TIP3    H112360   3.108   0.357   0.401
 4132TIP3    H212361   2.973   0.419   0.368
 4133TIP3   OH212362   3.658   5.128   5.268
 4133TIP3    H112363   3.729   5.065   5.267
 4133TIP3    H212364   3.610   5.110   5.349
 4134TIP3   OH212365   0.012   1.167   0.648
 4134TIP3    H112366   0.039   1.075   0.646
 4134TIP3    H212367  -0.082   1.164   0.626
 4135TIP3   OH212368   5.924   4.830   1.762
 4135TIP3    H112369   5.853   4.822   1.698
 4135TIP3    H212370   5.998   4.784   1.722
 4136TIP3   OH212371   0.809   0.306   3.695
 4136TIP3    H112372   0.807   0.258   3.612
 4136TIP3    H212373   0.815   0.237   3.761
 4137TIP3   OH212374   5.897   5.086   4.030
 4137TIP3    H112375   5.990   5.106   4.046
 4137TIP3    H212376   5.852   5.168   4.048
 4138TIP3   OH212377   3.740   2.937   0.418
 4138TIP3    H112378   3.691   2.956   0.339
 4138TIP3    H212379   3.826   2.977   0.404
 4139TIP3   OH212380   4.880   1.503   3.970
 4139TIP3    H112381   4.847   1.532   4.055
 4139TIP3    H212382   4.812   1.443   3.938
 4140TIP3   OH212383   2.576   3.410   5.093
 4140TIP3    H112384   2.662   3.454   5.096
 4140TIP3    H212385   2.528   3.458   5.026
 4141TIP3   OH212386   1.478   1.706   2.700
 4141TIP3    H112387   1.565   1.745   2.713
 4141TIP3    H212388   1.417   1.778   2.711
 4142TIP3   OH212389   4.532   5.941   2.450
 4142TIP3    H112390   4.456   5.995   2.473
 4142TIP3    H212391   4.602   6.005   2.435
 4143TIP3   OH212392   5.604   1.404   1.763
 4143TIP3    H112393   5.519   1.361   1.758
 4143TIP3    H212394   5.616   1.445   1.677
 4144TIP3   OH212395   2.127   4.133   0.885
 4144TIP3    H112396   2.171   4.070   0.942
 4144TIP3    H212397   2.148   4.104   0.796
 4145TIP3   OH212398   4.123   0.016   5.454
 4145TIP3    H112399   4.127   0.111   5.448
 4145TIP3    H212400   4.214  -0.011   5.468
 4146TIP3   OH212401   4.471   0.066   1.669
 4146TIP3    H112402   4.431   0.148   1.697
 4146TIP3    H212403   4.398   0.013   1.637
 4147TIP3   OH212404   6.603   2.877   1.181
 4147TIP3    H112405   6.663   2.862   1.254
 4147TIP3    H212406   6.521   2.835   1.208
 4148TIP3   OH212407   0.547   4.288   2.624
 4148TIP3    H112408   0.564   4.321   2.536
 4148TIP3    H212409   0.621   4.231   2.643
 4149TIP3   OH212410   5.029   3.872   1.700
 4149TIP3    H112411   4.964   3.809   1.670
 4149TIP3    H212412   5.044   3.929   1.625
 4150TIP3   OH212413   0.258   4.993   0.889
 4150TIP3    H112414   0.291   4.903   0.881
 4150TIP3    H212415   0.323   5.037   0.944
 4151TIP3   OH212416   5.649   5.204   2.175
 4151TIP3    H112417   5.612   5.183   2.090
 4151TIP3    H212418   5.684   5.293   2.165
 4152TIP3   OH212419   0.219   2.003   1.147
 4152TIP3    H112420   0.177   2.006   1.232
 4152TIP3    H212421   0.178   1.929   1.102
 4153TIP3   OH212422   3.773   3.742   3.019
 4153TIP3    H112423   3.711   3.671   3.002
 4153TIP3    H212424   3.788   3.781   2.932
 4154TIP3   OH212425   4.661   2.612   3.754
 4154TIP3    H112426   4.643   2.705   3.742
 4154TIP3    H212427   4.689   2.604   3.845
 4155TIP3   OH212428   3.733   0.755   4.091
 4155TIP3    H112429   3.652   0.713   4.062
 4155TIP3    H212430   3.770   0.792   4.011
 4156TIP3   OH212431   6.816   1.849   1.767
 4156TIP3    H112432   6.804   1.758   1.793
 4156TIP3    H212433   6.904   1.872   1.799
 4157TIP3   OH212434   6.658   3.549   5.086
 4157TIP3    H112435   6.625   3.627   5.130
 4157TIP3    H212436   6.582   3.514   5.039
 4158TIP3   OH212437   2.907   6.409   2.785
 4158TIP3    H112438   2.843   6.338   2.793
 4158TIP3    H212439   2.992   6.365   2.789
 4159TIP3   OH212440   1.723   0.694   2.767
 4159TIP3    H112441   1.677   0.778   2.772
 4159TIP3    H212442   1.750   0.687   2.676
 4160TIP3   OH212443   3.140   4.759   5.324
 4160TIP3    H112444   3.191   4.704   5.264
 4160TIP3    H212445   3.114   4.834   5.271
 4161TIP3   OH212446   4.700   4.826   1.805
 4161TIP3    H112447   4.769   4.892   1.816
 4161TIP3    H212448   4.747   4.742   1.810
 4162TIP3   OH212449   0.686   5.319   0.988
 4162TIP3    H112450   0.722   5.400   1.024
 4162TIP3    H212451   0.753   5.253   1.007
 4163TIP3   OH212452   5.479   2.437   5.411
 4163TIP3    H112453   5.544   2.372   5.384
 4163TIP3    H212454   5.406   2.423   5.351
 4164TIP3   OH212455   6.026   2.212   3.270
 4164TIP3    H112456   5.987   2.165   3.196
 4164TIP3    H212457   5.951   2.250   3.315
 4165TIP3   OH212458   5.127   1.387   4.932
 4165TIP3    H112459   5.162   1.426   5.012
 4165TIP3    H212460   5.054   1.332   4.962
 4166TIP3   OH212461   0.278   4.787   2.784
 4166TIP3    H112462   0.315   4.780   2.872
 4166TIP3    H212463   0.287   4.879   2.761
 4167TIP3   OH212464   1.328   5.357   3.582
 4167TIP3    H112465   1.355   5.445   3.606
 4167TIP3    H212466   1.403   5.321   3.534
 4168TIP3   OH212467   6.513   0.405   3.992
 4168TIP3    H112468   6.526   0.426   4.085
 4168TIP3    H212469   6.594   0.362   3.965
 4169TIP3   OH212470   0.672   3.082   4.648
 4169TIP3    H112471   0.603   3.030   4.689
 4169TIP3    H212472   0.731   3.017   4.609
 4170TIP3   OH212473   4.659   2.834   5.540
 4170TIP3    H112474   4.590   2.855   5.478
 4170TIP3    H212475   4.631   2.752   5.580
 4171TIP3   OH212476   4.585   6.095   1.064
 4171TIP3    H112477   4.521   6.030   1.094
 4171TIP3    H212478   4.532   6.171   1.039
 4172TIP3   OH212479   0.545   1.168   1.780
 4172TIP3    H112480   0.572   1.205   1.865
 4172TIP3    H212481   0.565   1.236   1.717
 4173TIP3   OH212482   2.074   2.377   0.546
 4173TIP3    H112483   2.132   2.416   0.612
 4173TIP3    H212484   2.134   2.339   0.481
 4174TIP3   OH212485   0.420   4.059   5.152
 4174TIP3    H112486   0.346   4.119   5.144
 4174TIP3    H212487   0.401   4.007   5.230
 4175TIP3   OH212488   6.820   1.710   1.159
 4175TIP3    H112489   6.785   1.636   1.109
 4175TIP3    H212490   6.864   1.764   1.094
 4176TIP3   OH212491   0.893   3.487   3.111
 4176TIP3    H112492   0.802   3.458   3.110
 4176TIP3    H212493   0.905   3.528   3.197
 4177TIP3   OH212494   3.129   4.324   5.352
 4177TIP3    H112495   3.159   4.283   5.434
 4177TIP3    H212496   3.209   4.357   5.312
 4178TIP3   OH212497   5.041   6.202   0.523
 4178TIP3    H112498   5.082   6.270   0.470
 4178TIP3    H212499   5.026   6.130   0.462
 4179TIP3   OH212500   7.093   2.003   4.736
 4179TIP3    H112501   7.097   2.096   4.714
 4179TIP3    H212502   7.164   1.991   4.800
 4180TIP3   OH212503   1.879   6.309  -0.012
 4180TIP3    H112504   1.817   6.341  -0.078
 4180TIP3    H212505   1.825   6.288   0.064
 4181TIP3   OH212506   2.004   5.135   3.172
 4181TIP3    H112507   1.957   5.159   3.252
 4181TIP3    H212508   1.934   5.115   3.109
 4182TIP3   OH212509   5.843   3.994   2.567
 4182TIP3    H112510   5.857   3.943   2.487
 4182TIP3    H212511   5.873   4.082   2.544
 4183TIP3   OH212512   5.992   1.838   1.829
 4183TIP3    H112513   5.908   1.884   1.835
 4183TIP3    H212514   6.057   1.907   1.821
 4184TIP3   OH212515   3.671   4.032   3.381
 4184TIP3    H112516   3.596   4.034   3.322
 4184TIP3    H212517   3.742   3.997   3.329
 4185TIP3   OH212518   6.526   6.125   0.750
 4185TIP3    H112519   6.470   6.055   0.718
 4185TIP3    H212520   6.528   6.189   0.679
 4186TIP3   OH212521   2.334   0.153   3.252
 4186TIP3    H112522   2.295   0.225   3.204
 4186TIP3    H212523   2.285   0.076   3.224
 4187TIP3   OH212524   4.685   1.572   0.659
 4187TIP3    H112525   4.652   1.642   0.715
 4187TIP3    H212526   4.639   1.494   0.690
 4188TIP3   OH212527   6.755   6.391   3.582
 4188TIP3    H112528   6.690   6.351   3.525
 4188TIP3    H212529   6.703   6.431   3.653
 4189TIP3   OH212530   4.363   0.857   5.329
 4189TIP3    H112531   4.350   0.940   5.282
 4189TIP3    H212532   4.277   0.836   5.365
 4190TIP3   OH212533   2.447   6.522   0.574
 4190TIP3    H112534   2.416   6.442   0.531
 4190TIP3    H212535   2.385   6.535   0.647
 4191TIP3   OH212536   3.478   3.408   0.677
 4191TIP3    H112537   3.386   3.380   0.680
 4191TIP3    H212538   3.528   3.328   0.692
 4192TIP3   OH212539   0.601   4.276   0.562
 4192TIP3    H112540   0.533   4.335   0.529
 4192TIP3    H212541   0.682   4.307   0.520
 4193TIP3   OH212542   3.315   4.196   5.546
 4193TIP3    H112543   3.336   4.234   5.631
 4193TIP3    H212544   3.399   4.163   5.514
 4194TIP3   OH212545   3.820   1.991   3.981
 4194TIP3    H112546   3.838   2.001   4.075
 4194TIP3    H212547   3.844   2.075   3.943
 4195TIP3   OH212548   2.182   4.681   3.825
 4195TIP3    H112549   2.274   4.703   3.811
 4195TIP3    H212550   2.137   4.766   3.828
 4196TIP3   OH212551   2.799   0.511   1.529
 4196TIP3    H112552   2.849   0.441   1.487
 4196TIP3    H212553   2.763   0.561   1.455
 4197TIP3   OH212554   0.639   4.322   3.392
 4197TIP3    H112555   0.627   4.416   3.408
 4197TIP3    H212556   0.572   4.300   3.328
 4198TIP3   OH212557   1.053   0.934   4.921
 4198TIP3    H112558   1.100   0.851   4.926
 4198TIP3    H212559   1.041   0.950   4.828
 4199TIP3   OH212560   7.216   0.284   2.448
 4199TIP3    H112561   7.237   0.335   2.526
 4199TIP3    H212562   7.220   0.346   2.376
 4200TIP3   OH212563   4.139   6.857   1.340
 4200TIP3    H112564   4.102   6.830   1.424
 4200TIP3    H212565   4.120   6.784   1.281
 4201TIP3   OH212566   3.492   5.357   2.685
 4201TIP3    H112567   3.585   5.342   2.665
 4201TIP3    H212568   3.455   5.389   2.603
 4202TIP3   OH212569   4.435   4.600   5.396
 4202TIP3    H112570   4.359   4.641   5.354
 4202TIP3    H212571   4.488   4.673   5.427
 4203TIP3   OH212572   4.887   2.694   2.186
 4203TIP3    H112573   4.926   2.609   2.207
 4203TIP3    H212574   4.828   2.676   2.113
 4204TIP3   OH212575   1.139   0.233   4.928
 4204TIP3    H112576   1.159   0.155   4.979
 4204TIP3    H212577   1.133   0.202   4.837
 4205TIP3   OH212578   3.500   1.586   1.624
 4205TIP3    H112579   3.518   1.675   1.594
 4205TIP3    H212580   3.554   1.576   1.702
 4206TIP3   OH212581   1.887   6.265   4.274
 4206TIP3    H112582   1.883   6.271   4.369
 4206TIP3    H212583   1.947   6.335   4.248
 4207TIP3   OH212584   4.945   1.484   0.191
 4207TIP3    H112585   5.028   1.525   0.169
 4207TIP3    H212586   4.969   1.400   0.229
 4208TIP3   OH212587   6.056   3.046   0.826
 4208TIP3    H112588   5.967   3.009   0.822
 4208TIP3    H212589   6.090   3.014   0.910
 4209TIP3   OH212590   1.756   2.168   1.622
 4209TIP3    H112591   1.755   2.145   1.715
 4209TIP3    H212592   1.737   2.262   1.620
 4210TIP3   OH212593   2.498   5.920   0.171
 4210TIP3    H112594   2.561   5.870   0.118
 4210TIP3    H212595   2.415   5.911   0.124
 4211TIP3   OH212596   1.736   1.030   1.814
 4211TIP3    H112597   1.802   0.962   1.795
 4211TIP3    H212598   1.660   0.981   1.846
 4212TIP3   OH212599   0.085   5.626   3.988
 4212TIP3    H112600   0.105   5.532   3.994
 4212TIP3    H212601   0.019   5.640   4.055
 4213TIP3   OH212602   4.154   3.391   3.021
 4213TIP3    H112603   4.249   3.381   3.025
 4213TIP3    H212604   4.130   3.360   2.934
 4214TIP3   OH212605   6.548   2.915   3.818
 4214TIP3    H112606   6.514   2.988   3.766
 4214TIP3    H212607   6.584   2.854   3.754
 4215TIP3   OH212608   0.729   0.630   5.734
 4215TIP3    H112609   0.642   0.651   5.768
 4215TIP3    H212610   0.784   0.624   5.812
 4216TIP3   OH212611   7.188   6.398   2.274
 4216TIP3    H112612   7.222   6.477   2.232
 4216TIP3    H212613   7.131   6.430   2.343
 4217TIP3   OH212614   1.653   1.876   1.841
 4217TIP3    H112615   1.603   1.955   1.862
 4217TIP3    H212616   1.711   1.903   1.770
 4218TIP3   OH212617   0.068   4.684   4.474
 4218TIP3    H112618  -0.017   4.700   4.433
 4218TIP3    H212619   0.058   4.600   4.519
 4219TIP3   OH212620   5.809   5.851   2.762
 4219TIP3    H112621   5.732   5.798   2.742
 4219TIP3    H212622   5.781   5.910   2.832
 4220TIP3   OH212623   4.445   2.185   0.671
 4220TIP3    H112624   4.372   2.194   0.732
 4220TIP3    H212625   4.507   2.252   0.698
 4221TIP3   OH212626   4.608   5.993   4.366
 4221TIP3    H112627   4.566   5.931   4.425
 4221TIP3    H212628   4.696   6.005   4.402
 4222TIP3   OH212629   5.730   6.050   2.975
 4222TIP3    H112630   5.801   6.084   3.029
 4222TIP3    H212631   5.682   5.991   3.033
 4223TIP3   OH212632   0.281   6.367   5.085
 4223TIP3    H112633   0.296   6.307   5.011
 4223TIP3    H212634   0.245   6.311   5.154
 4224TIP3   OH212635   1.302   0.082   2.336
 4224TIP3    H112636   1.392   0.062   2.309
 4224TIP3    H212637   1.310   0.162   2.388
 4225TIP3   OH212638   0.931   2.511   5.776
 4225TIP3    H112639   0.990   2.535   5.704
 4225TIP3    H212640   0.846   2.544   5.749
 4226TIP3   OH212641   0.251   2.982   5.824
 4226TIP3    H112642   0.293   2.896   5.819
 4226TIP3    H212643   0.235   2.996   5.917
 4227TIP3   OH212644   2.239   2.177   0.969
 4227TIP3    H112645   2.317   2.169   0.913
 4227TIP3    H212646   2.274   2.174   1.058
 4228TIP3   OH212647   4.044   3.636   3.025
 4228TIP3    H112648   3.968   3.624   3.082
 4228TIP3    H212649   4.106   3.568   3.054
 4229TIP3   OH212650   2.808   1.404   2.914
 4229TIP3    H112651   2.876   1.457   2.871
 4229TIP3    H212652   2.744   1.387   2.844
 4230TIP3   OH212653   2.536   0.750   3.119
 4230TIP3    H112654   2.544   0.654   3.118
 4230TIP3    H212655   2.521   0.774   3.028
 4231TIP3   OH212656   4.798   2.401   1.527
 4231TIP3    H112657   4.875   2.421   1.580
 4231TIP3    H212658   4.806   2.307   1.507
 4232TIP3   OH212659   4.008   1.145   1.073
 4232TIP3    H112660   4.034   1.210   1.138
 4232TIP3    H212661   4.055   1.066   1.098
 4233TIP3   OH212662   2.167   4.373   3.401
 4233TIP3    H112663   2.188   4.456   3.444
 4233TIP3    H212664   2.071   4.368   3.404
 4234TIP3   OH212665   5.528   6.763   0.868
 4234TIP3    H112666   5.534   6.734   0.959
 4234TIP3    H212667   5.571   6.695   0.818
 4235TIP3   OH212668   3.075   2.907   0.131
 4235TIP3    H112669   3.063   2.851   0.208
 4235TIP3    H212670   3.025   2.986   0.150
 4236TIP3   OH212671   5.457   0.246   5.739
 4236TIP3    H112672   5.435   0.232   5.647
 4236TIP3    H212673   5.376   0.228   5.786
 4237TIP3   OH212674   3.315   4.908   5.465
 4237TIP3    H112675   3.337   4.971   5.396
 4237TIP3    H212676   3.241   4.859   5.429
 4238TIP3   OH212677   2.856   5.500   3.984
 4238TIP3    H112678   2.937   5.550   3.968
 4238TIP3    H212679   2.791   5.542   3.929
 4239TIP3   OH212680   6.687   2.777   0.395
 4239TIP3    H112681   6.636   2.849   0.357
 4239TIP3    H212682   6.654   2.699   0.352
 4240TIP3   OH212683   6.974   4.413   2.919
 4240TIP3    H112684   6.914   4.404   2.993
 4240TIP3    H212685   6.967   4.504   2.893
 4241TIP3   OH212686   0.018   6.747   4.036
 4241TIP3    H112687   0.069   6.807   4.090
 4241TIP3    H212688   0.075   6.730   3.960
 4242TIP3   OH212689   3.494   5.550   1.926
 4242TIP3    H112690   3.563   5.577   1.865
 4242TIP3    H212691   3.482   5.624   1.984
 4243TIP3   OH212692   3.297   0.331   5.127
 4243TIP3    H112693   3.375   0.364   5.083
 4243TIP3    H212694   3.327   0.250   5.169
 4244TIP3   OH212695   2.084   3.372   0.580
 4244TIP3    H112696   2.029   3.347   0.505
 4244TIP3    H212697   2.151   3.429   0.542
 4245TIP3   OH212698   0.542   2.959   0.607
 4245TIP3    H112699   0.499   2.880   0.573
 4245TIP3    H212700   0.632   2.932   0.623
 4246TIP3   OH212701   6.366   1.274   1.799
 4246TIP3    H112702   6.387   1.187   1.763
 4246TIP3    H212703   6.450   1.310   1.824
 4247TIP3   OH212704   0.869   2.883   4.051
 4247TIP3    H112705   0.775   2.872   4.035
 4247TIP3    H212706   0.911   2.828   3.985
 4248TIP3   OH212707   5.430   2.339   1.243
 4248TIP3    H112708   5.393   2.378   1.164
 4248TIP3    H212709   5.523   2.328   1.222
 4249TIP3   OH212710   0.572   6.019   5.119
 4249TIP3    H112711   0.610   5.978   5.041
 4249TIP3    H212712   0.580   6.113   5.103
 4250TIP3   OH212713   4.478   4.512   1.487
 4250TIP3    H112714   4.439   4.585   1.439
 4250TIP3    H212715   4.573   4.525   1.477
 4251TIP3   OH212716   2.343   1.660   4.491
 4251TIP3    H112717   2.416   1.676   4.431
 4251TIP3    H212718   2.357   1.721   4.563
 4252TIP3   OH212719   1.659   1.131   0.545
 4252TIP3    H112720   1.616   1.056   0.587
 4252TIP3    H212721   1.642   1.204   0.605
 4253TIP3   OH212722   0.061   2.271   2.594
 4253TIP3    H112723   0.045   2.342   2.532
 4253TIP3    H212724   0.154   2.279   2.616
 4254TIP3   OH212725   5.040   3.313   2.092
 4254TIP3    H112726   5.102   3.247   2.060
 4254TIP3    H212727   4.988   3.336   2.016
 4255TIP3   OH212728   4.813   5.440   4.562
 4255TIP3    H112729   4.769   5.376   4.618
 4255TIP3    H212730   4.785   5.525   4.596
 4256TIP3   OH212731   2.118   5.251   1.811
 4256TIP3    H112732   2.132   5.321   1.748
 4256TIP3    H212733   2.036   5.209   1.783
 4257TIP3   OH212734   0.301   6.576   0.556
 4257TIP3    H112735   0.220   6.569   0.506
 4257TIP3    H212736   0.365   6.526   0.505
 4258TIP3   OH212737   3.251   5.651   4.350
 4258TIP3    H112738   3.252   5.739   4.312
 4258TIP3    H212739   3.164   5.617   4.330
 4259TIP3   OH212740   3.098   2.273   1.007
 4259TIP3    H112741   3.012   2.236   0.986
 4259TIP3    H212742   3.098   2.278   1.103
 4260TIP3   OH212743   1.048   4.617   0.060
 4260TIP3    H112744   1.011   4.529   0.062
 4260TIP3    H212745   1.011   4.657  -0.018
 4261TIP3   OH212746   3.824   1.851   5.209
 4261TIP3    H112747   3.900   1.815   5.164
 4261TIP3    H212748   3.820   1.803   5.292
 4262TIP3   OH212749   4.470   0.134   0.906
 4262TIP3    H112750   4.392   0.143   0.851
 4262TIP3    H212751   4.478   0.039   0.920
 4263TIP3   OH212752   6.110   5.233   2.955
 4263TIP3    H112753   6.078   5.143   2.951
 4263TIP3    H212754   6.174   5.239   2.884
 4264TIP3   OH212755   4.668   3.266   4.517
 4264TIP3    H112756   4.605   3.258   4.588
 4264TIP3    H212757   4.615   3.263   4.437
 4265TIP3   OH212758   6.660   5.554   2.146
 4265TIP3    H112759   6.590   5.566   2.210
 4265TIP3    H212760   6.726   5.502   2.192
 4266TIP3   OH212761   4.495   2.319   4.550
 4266TIP3    H112762   4.547   2.263   4.608
 4266TIP3    H212763   4.560   2.371   4.503
 4267TIP3   OH212764   6.653   4.364   5.077
 4267TIP3    H112765   6.569   4.399   5.049
 4267TIP3    H212766   6.634   4.319   5.159
 4268TIP3   OH212767   3.117   1.265   1.982
 4268TIP3    H112768   3.138   1.180   2.022
 4268TIP3    H212769   3.103   1.245   1.890
 4269TIP3   OH212770   0.103   2.160   3.100
 4269TIP3    H112771   0.122   2.227   3.034
 4269TIP3    H212772   0.116   2.077   3.054
 4270TIP3   OH212773   5.317   3.350   1.818
 4270TIP3    H112774   5.271   3.422   1.860
 4270TIP3    H212775   5.294   3.273   1.869
 4271TIP3   OH212776   4.129   2.408  -0.026
 4271TIP3    H112777   4.156   2.498  -0.013
 4271TIP3    H212778   4.033   2.410  -0.019
 4272TIP3   OH212779   0.108   3.755   3.722
 4272TIP3    H112780   0.138   3.846   3.734
 4272TIP3    H212781   0.013   3.760   3.731
 4273TIP3   OH212782   0.102   1.918   2.969
 4273TIP3    H112783   0.097   1.867   2.888
 4273TIP3    H212784   0.195   1.920   2.991
 4274TIP3   OH212785   1.728   2.573   4.850
 4274TIP3    H112786   1.713   2.565   4.756
 4274TIP3    H212787   1.775   2.494   4.874
 4275TIP3   OH212788   4.710   4.250   3.188
 4275TIP3    H112789   4.802   4.275   3.186
 4275TIP3    H212790   4.704   4.175   3.129
 4276TIP3   OH212791   5.630   4.007   3.800
 4276TIP3    H112792   5.562   4.073   3.785
 4276TIP3    H212793   5.586   3.938   3.850
 4277TIP3   OH212794   1.798   6.011   1.324
 4277TIP3    H112795   1.827   6.043   1.239
 4277TIP3    H212796   1.827   6.078   1.386
 4278TIP3   OH212797   0.529   5.709   0.566
 4278TIP3    H112798   0.449   5.729   0.518
 4278TIP3    H212799   0.509   5.627   0.612
 4279TIP3   OH212800   2.169   4.633   4.410
 4279TIP3    H112801   2.256   4.646   4.373
 4279TIP3    H212802   2.135   4.721   4.424
 4280TIP3   OH212803   0.773   3.975   2.336
 4280TIP3    H112804   0.728   3.970   2.251
 4280TIP3    H212805   0.702   3.974   2.400
 4281TIP3   OH212806   2.389   0.855   4.597
 4281TIP3    H112807   2.310   0.880   4.646
 4281TIP3    H212808   2.451   0.925   4.614
 4282TIP3   OH212809   4.942   2.315   4.523
 4282TIP3    H112810   5.022   2.331   4.572
 4282TIP3    H212811   4.933   2.220   4.521
 4283TIP3   OH212812   7.142   1.717   3.867
 4283TIP3    H112813   7.174   1.643   3.920
 4283TIP3    H212814   7.211   1.783   3.874
 4284TIP3   OH212815   3.304   4.984   0.800
 4284TIP3    H112816   3.272   4.999   0.711
 4284TIP3    H212817   3.234   5.016   0.856
 4285TIP3   OH212818   3.165   1.512   4.466
 4285TIP3    H112819   3.215   1.594   4.474
 4285TIP3    H212820   3.183   1.465   4.546
 4286TIP3   OH212821   5.146   4.686   1.734
 4286TIP3    H112822   5.186   4.765   1.698
 4286TIP3    H212823   5.131   4.630   1.657
 4287TIP3   OH212824   4.850   5.579   2.154
 4287TIP3    H112825   4.846   5.597   2.060
 4287TIP3    H212826   4.811   5.656   2.195
 4288TIP3   OH212827   4.655   6.655   4.950
 4288TIP3    H112828   4.703   6.640   5.031
 4288TIP3    H212829   4.643   6.750   4.947
 4289TIP3   OH212830   4.262   4.263   0.160
 4289TIP3    H112831   4.230   4.222   0.240
 4289TIP3    H212832   4.312   4.194   0.116
 4290TIP3   OH212833   1.230   4.084   3.429
 4290TIP3    H112834   1.285   4.080   3.507
 4290TIP3    H212835   1.214   3.992   3.407
 4291TIP3   OH212836   5.424   0.683   1.069
 4291TIP3    H112837   5.346   0.732   1.097
 4291TIP3    H212838   5.497   0.728   1.110
 4292TIP3   OH212839   3.166   3.947   5.631
 4292TIP3    H112840   3.094   3.994   5.673
 4292TIP3    H212841   3.201   4.008   5.567
 4293TIP3   OH212842   2.734   2.800   0.192
 4293TIP3    H112843   2.674   2.746   0.244
 4293TIP3    H212844   2.787   2.737   0.144
 4294TIP3   OH212845   3.647   2.043   2.910
 4294TIP3    H112846   3.607   2.033   2.824
 4294TIP3    H212847   3.658   2.138   2.921
 4295TIP3   OH212848   2.027   1.219   4.451
 4295TIP3    H112849   2.036   1.311   4.477
 4295TIP3    H212850   2.098   1.174   4.496
 4296TIP3   OH212851   4.686   6.659   4.612
 4296TIP3    H112852   4.595   6.637   4.592
 4296TIP3    H212853   4.719   6.581   4.657
 4297TIP3   OH212854   0.155   6.287   0.496
 4297TIP3    H112855   0.177   6.224   0.564
 4297TIP3    H212856   0.148   6.371   0.542
 4298TIP3   OH212857   4.534   4.167   0.190
 4298TIP3    H112858   4.591   4.154   0.114
 4298TIP3    H212859   4.518   4.262   0.191
 4299TIP3   OH212860   6.217   4.580   2.978
 4299TIP3    H112861   6.293   4.557   3.031
 4299TIP3    H212862   6.191   4.667   3.008
 4300TIP3   OH212863   1.468   0.640   5.063
 4300TIP3    H112864   1.396   0.578   5.053
 4300TIP3    H212865   1.454   0.679   5.149
 4301TIP3   OH212866   6.431   2.775   3.216
 4301TIP3    H112867   6.469   2.832   3.150
 4301TIP3    H212868   6.473   2.690   3.202
 4302TIP3   OH212869   0.403   6.348   4.105
 4302TIP3    H112870   0.486   6.382   4.073
 4302TIP3    H212871   0.405   6.363   4.199
 4303TIP3   OH212872   0.854   2.391   0.297
 4303TIP3    H112873   0.844   2.420   0.388
 4303TIP3    H212874   0.767   2.403   0.259
 4304TIP3   OH212875   3.960   1.658   2.689
 4304TIP3    H112876   3.899   1.692   2.754
 4304TIP3    H212877   3.991   1.736   2.642
 4305TIP3   OH212878   6.698   5.233   1.364
 4305TIP3    H112879   6.696   5.235   1.268
 4305TIP3    H212880   6.682   5.141   1.386
 4306TIP3   OH212881   3.919   1.312   1.774
 4306TIP3    H112882   3.953   1.395   1.806
 4306TIP3    H212883   3.997   1.263   1.747
 4307TIP3   OH212884   1.833   2.937   5.854
 4307TIP3    H112885   1.831   2.970   5.944
 4307TIP3    H212886   1.926   2.938   5.830
 4308TIP3   OH212887   3.066   6.353   3.663
 4308TIP3    H112888   2.982   6.382   3.627
 4308TIP3    H212889   3.057   6.366   3.758
 4309TIP3   OH212890   3.363   6.114   4.130
 4309TIP3    H112891   3.282   6.162   4.113
 4309TIP3    H212892   3.408   6.166   4.197
 4310TIP3   OH212893   0.776   3.328   5.023
 4310TIP3    H112894   0.817   3.316   4.937
 4310TIP3    H212895   0.845   3.309   5.086
 4311TIP3   OH212896   0.075   0.596   3.202
 4311TIP3    H112897   0.094   0.553   3.286
 4311TIP3    H212898   0.152   0.650   3.185
 4312TIP3   OH212899   6.284   6.796   5.758
 4312TIP3    H112900   6.278   6.822   5.666
 4312TIP3    H212901   6.195   6.772   5.783
 4313TIP3   OH212902   1.598   2.716   5.034
 4313TIP3    H112903   1.616   2.666   4.954
 4313TIP3    H212904   1.565   2.800   5.003
 4314TIP3   OH212905   0.993   2.556   5.248
 4314TIP3    H112906   0.977   2.632   5.192
 4314TIP3    H212907   1.084   2.534   5.233
 4315TIP3   OH212908   3.561   2.082   2.653
 4315TIP3    H112909   3.628   2.149   2.645
 4315TIP3    H212910   3.479   2.131   2.663
 4316TIP3   OH212911   1.001   4.155   2.309
 4316TIP3    H112912   1.058   4.080   2.291
 4316TIP3    H212913   0.914   4.118   2.315
 4317TIP3   OH212914   6.918   4.762   1.014
 4317TIP3    H112915   6.876   4.809   1.086
 4317TIP3    H212916   6.858   4.773   0.940
 4318TIP3   OH212917   0.463   2.263   4.319
 4318TIP3    H112918   0.547   2.231   4.351
 4318TIP3    H212919   0.451   2.348   4.360
 4319TIP3   OH212920   1.857   5.593   4.695
 4319TIP3    H112921   1.913   5.561   4.766
 4319TIP3    H212922   1.918   5.615   4.625
 4320TIP3   OH212923   6.563   0.393   1.542
 4320TIP3    H112924   6.597   0.448   1.471
 4320TIP3    H212925   6.537   0.312   1.498
 4321TIP3   OH212926   2.863   2.864   2.584
 4321TIP3    H112927   2.822   2.920   2.517
 4321TIP3    H212928   2.869   2.921   2.661
 4322TIP3   OH212929   4.041   3.432   1.004
 4322TIP3    H112930   4.053   3.518   1.042
 4322TIP3    H212931   4.074   3.440   0.914
 4323TIP3   OH212932   6.663   6.269   2.451
 4323TIP3    H112933   6.668   6.365   2.445
 4323TIP3    H212934   6.570   6.249   2.442
 4324TIP3   OH212935   4.924   6.415   0.660
 4324TIP3    H112936   4.905   6.479   0.591
 4324TIP3    H212937   4.951   6.336   0.613
 4325TIP3   OH212938   4.679   5.250   2.397
 4325TIP3    H112939   4.764   5.288   2.374
 4325TIP3    H212940   4.679   5.249   2.493
 4326TIP3   OH212941   0.794   1.425   4.291
 4326TIP3    H112942   0.829   1.350   4.339
 4326TIP3    H212943   0.725   1.387   4.236
 4327TIP3   OH212944   2.572   5.007   2.297
 4327TIP3    H112945   2.595   4.916   2.315
 4327TIP3    H212946   2.484   5.002   2.260
 4328TIP3   OH212947   6.175   4.935   3.309
 4328TIP3    H112948   6.089   4.905   3.279
 4328TIP3    H212949   6.194   4.883   3.386
 4329TIP3   OH212950   0.762   1.134   3.999
 4329TIP3    H112951   0.672   1.145   3.966
 4329TIP3    H212952   0.817   1.145   3.921
 4330TIP3   OH212953   7.189   4.814   2.320
 4330TIP3    H112954   7.238   4.850   2.394
 4330TIP3    H212955   7.151   4.733   2.355
 4331TIP3   OH212956   1.173   5.489   4.635
 4331TIP3    H112957   1.132   5.403   4.645
 4331TIP3    H212958   1.132   5.543   4.702
 4332TIP3   OH212959   3.675   2.970   3.930
 4332TIP3    H112960   3.700   3.050   3.883
 4332TIP3    H212961   3.617   3.001   4.000
 4333TIP3   OH212962   4.118   2.502   5.055
 4333TIP3    H112963   4.037   2.463   5.085
 4333TIP3    H212964   4.183   2.433   5.064
 4334TIP3   OH212965   1.350   4.534   4.753
 4334TIP3    H112966   1.261   4.519   4.786
 4334TIP3    H212967   1.338   4.550   4.660
 4335TIP3   OH212968   1.114   4.709   3.964
 4335TIP3    H112969   1.085   4.795   3.993
 4335TIP3    H212970   1.201   4.724   3.926
 4336TIP3   OH212971   0.292   6.495   0.836
 4336TIP3    H112972   0.308   6.510   0.743
 4336TIP3    H212973   0.377   6.472   0.873
 4337TIP3   OH212974   6.795   5.630   0.268
 4337TIP3    H112975   6.719   5.571   0.269
 4337TIP3    H212976   6.776   5.691   0.197
 4338TIP3   OH212977   3.983   0.501   0.579
 4338TIP3    H112978   3.893   0.487   0.608
 4338TIP3    H212979   4.034   0.507   0.660
 4339TIP3   OH212980   5.010   4.881   2.065
 4339TIP3    H112981   4.994   4.895   1.971
 4339TIP3    H212982   4.924   4.857   2.100
 4340TIP3   OH212983   0.760   6.284   4.467
 4340TIP3    H112984   0.744   6.351   4.401
 4340TIP3    H212985   0.752   6.201   4.419
 4341TIP3   OH212986   4.251   1.592   3.175
 4341TIP3    H112987   4.300   1.653   3.230
 4341TIP3    H212988   4.311   1.570   3.104
 4342TIP3   OH212989   7.129   5.681   3.569
 4342TIP3    H112990   7.057   5.637   3.614
 4342TIP3    H212991   7.142   5.763   3.617
 4343TIP3   OH212992   0.737   0.415   1.083
 4343TIP3    H112993   0.759   0.414   1.176
 4343TIP3    H212994   0.664   0.477   1.077
 4344TIP3   OH212995   4.416   2.264   5.004
 4344TIP3    H112996   4.500   2.304   4.980
 4344TIP3    H212997   4.392   2.305   5.087
 4345TIP3   OH212998   5.593   2.509   2.563
 4345TIP3    H112999   5.537   2.529   2.488
 4345TIP3    H213000   5.532   2.499   2.636
 4346TIP3   OH213001   1.664   1.368   5.270
 4346TIP3    H113002   1.580   1.325   5.252
 4346TIP3    H213003   1.730   1.301   5.251
 4347TIP3   OH213004   6.498   1.598   4.662
 4347TIP3    H113005   6.422   1.653   4.642
 4347TIP3    H213006   6.465   1.508   4.656
 4348TIP3   OH213007   7.116   4.354   2.029
 4348TIP3    H113008   7.191   4.408   2.054
 4348TIP3    H213009   7.100   4.299   2.106
 4349TIP3   OH213010   5.374   1.677   1.077
 4349TIP3    H113011   5.407   1.705   1.163
 4349TIP3    H213012   5.398   1.747   1.018
 4350TIP3   OH213013   1.106   5.962   4.108
 4350TIP3    H113014   1.124   6.031   4.171
 4350TIP3    H213015   1.188   5.913   4.102
 4351TIP3   OH213016   3.204   3.143   4.321
 4351TIP3    H113017   3.286   3.175   4.285
 4351TIP3    H213018   3.222   3.131   4.414
 4352TIP3   OH213019   5.061   5.176   0.993
 4352TIP3    H113020   5.042   5.100   0.938
 4352TIP3    H213021   5.038   5.251   0.939
 4353TIP3   OH213022   4.125   0.049   4.879
 4353TIP3    H113023   4.116   0.064   4.785
 4353TIP3    H213024   4.176   0.124   4.910
 4354TIP3   OH213025   5.659   0.123   2.227
 4354TIP3    H113026   5.646   0.045   2.282
 4354TIP3    H213027   5.597   0.112   2.155
 4355TIP3   OH213028   0.166   4.147   0.789
 4355TIP3    H113029   0.127   4.157   0.702
 4355TIP3    H213030   0.138   4.060   0.818
 4356TIP3   OH213031   5.538   3.587   1.897
 4356TIP3    H113032   5.443   3.589   1.885
 4356TIP3    H213033   5.557   3.496   1.919
 4357TIP3   OH213034   5.472   1.377   4.984
 4357TIP3    H113035   5.551   1.430   4.977
 4357TIP3    H213036   5.402   1.434   4.950
 4358TIP3   OH213037   1.003   0.736   5.675
 4358TIP3    H113038   0.954   0.718   5.756
 4358TIP3    H213039   0.973   0.823   5.648
 4359TIP3   OH213040   0.691   3.489   4.363
 4359TIP3    H113041   0.622   3.526   4.308
 4359TIP3    H213042   0.671   3.395   4.368
 4360TIP3   OH213043   2.114   4.504   1.304
 4360TIP3    H113044   2.052   4.462   1.364
 4360TIP3    H213045   2.106   4.454   1.223
 4361TIP3   OH213046   4.309   1.088   1.144
 4361TIP3    H113047   4.274   1.167   1.103
 4361TIP3    H213048   4.380   1.061   1.086
 4362TIP3   OH213049   3.995   3.433   1.705
 4362TIP3    H113050   4.025   3.453   1.616
 4362TIP3    H213051   4.075   3.431   1.757
 4363TIP3   OH213052   2.261   1.111   1.658
 4363TIP3    H113053   2.179   1.159   1.674
 4363TIP3    H213054   2.239   1.050   1.587
 4364TIP3   OH213055   4.157   3.071   4.705
 4364TIP3    H113056   4.175   3.049   4.796
 4364TIP3    H213057   4.113   2.994   4.670
 4365TIP3   OH213058   6.156   6.020   3.806
 4365TIP3    H113059   6.108   5.942   3.778
 4365TIP3    H213060   6.175   6.067   3.725
 4366TIP3   OH213061   0.420   0.881   5.307
 4366TIP3    H113062   0.376   0.924   5.381
 4366TIP3    H213063   0.502   0.929   5.297
 4367TIP3   OH213064   1.161   3.525   2.911
 4367TIP3    H113065   1.200   3.447   2.948
 4367TIP3    H213066   1.224   3.595   2.929
 4368TIP3   OH213067   4.094   0.665   0.390
 4368TIP3    H113068   4.182   0.692   0.417
 4368TIP3    H213069   4.054   0.629   0.469
 4369TIP3   OH213070   2.542   4.928   0.528
 4369TIP3    H113071   2.562   4.990   0.458
 4369TIP3    H213072   2.570   4.843   0.493
 4370TIP3   OH213073   4.836   5.496   4.980
 4370TIP3    H113074   4.911   5.472   4.926
 4370TIP3    H213075   4.874   5.541   5.056
 4371TIP3   OH213076   3.741   0.405   0.686
 4371TIP3    H113077   3.668   0.347   0.665
 4371TIP3    H213078   3.727   0.429   0.778
 4372TIP3   OH213079   5.679   0.680   2.929
 4372TIP3    H113080   5.729   0.625   2.989
 4372TIP3    H213081   5.741   0.700   2.858
 4373TIP3   OH213082   1.610   0.855   4.932
 4373TIP3    H113083   1.538   0.917   4.919
 4373TIP3    H213084   1.566   0.771   4.944
 4374TIP3   OH213085   5.765   1.451   3.040
 4374TIP3    H113086   5.757   1.493   3.125
 4374TIP3    H213087   5.721   1.367   3.050
 4375TIP3   OH213088   0.312   4.121   3.291
 4375TIP3    H113089   0.333   4.213   3.275
 4375TIP3    H213090   0.397   4.077   3.292
 4376TIP3   OH213091   5.363   1.314   1.694
 4376TIP3    H113092   5.270   1.334   1.701
 4376TIP3    H213093   5.371   1.222   1.719
 4377TIP3   OH213094   1.557   4.452   4.491
 4377TIP3    H113095   1.482   4.506   4.518
 4377TIP3    H213096   1.519   4.388   4.430
 4378TIP3   OH213097   4.793   2.991   4.178
 4378TIP3    H113098   4.751   3.076   4.164
 4378TIP3    H213099   4.723   2.927   4.163
 4379TIP3   OH213100   5.420   2.920   5.444
 4379TIP3    H113101   5.340   2.869   5.455
 4379TIP3    H213102   5.426   2.972   5.524
 4380TIP3   OH213103   5.741   3.004   2.925
 4380TIP3    H113104   5.688   2.996   2.846
 4380TIP3    H213105   5.831   3.013   2.894
 4381TIP3   OH213106   3.471   2.520   3.363
 4381TIP3    H113107   3.554   2.564   3.347
 4381TIP3    H213108   3.406   2.590   3.370
 4382TIP3   OH213109   6.762   4.834   3.621
 4382TIP3    H113110   6.792   4.914   3.663
 4382TIP3    H213111   6.793   4.841   3.530
 4383TIP3   OH213112   4.009   4.339   1.520
 4383TIP3    H113113   4.085   4.301   1.564
 4383TIP3    H213114   3.994   4.422   1.566
 4384TIP3   OH213115   5.200   2.221   2.866
 4384TIP3    H113116   5.170   2.267   2.787
 4384TIP3    H213117   5.208   2.129   2.839
 4385TIP3   OH213118   2.124   3.506   4.615
 4385TIP3    H113119   2.204   3.558   4.607
 4385TIP3    H213120   2.149   3.419   4.583
 4386TIP3   OH213121   5.174   0.990   5.040
 4386TIP3    H113122   5.085   1.025   5.042
 4386TIP3    H213123   5.229   1.059   5.077
 4387TIP3   OH213124   0.625   4.668   2.826
 4387TIP3    H113125   0.678   4.596   2.793
 4387TIP3    H213126   0.650   4.743   2.772
 4388TIP3   OH213127   0.358   5.390   5.342
 4388TIP3    H113128   0.282   5.339   5.368
 4388TIP3    H213129   0.424   5.369   5.408
 4389TIP3   OH213130   5.929   2.642   0.809
 4389TIP3    H113131   5.890   2.727   0.827
 4389TIP3    H213132   6.015   2.646   0.851
 4390TIP3   OH213133   5.202   2.997   0.494
 4390TIP3    H113134   5.297   3.000   0.497
 4390TIP3    H213135   5.177   3.073   0.442
 4391TIP3   OH213136   5.486   0.562   3.764
 4391TIP3    H113137   5.577   0.586   3.748
 4391TIP3    H213138   5.448   0.638   3.808
 4392TIP3   OH213139   1.841   0.761   0.475
 4392TIP3    H113140   1.925   0.713   0.473
 4392TIP3    H213141   1.846   0.813   0.555
 4393TIP3   OH213142   5.668   3.562   0.674
 4393TIP3    H113143   5.614   3.640   0.681
 4393TIP3    H213144   5.634   3.503   0.741
 4394TIP3   OH213145   5.264   4.391   5.402
 4394TIP3    H113146   5.244   4.482   5.381
 4394TIP3    H213147   5.355   4.393   5.431
 4395TIP3   OH213148   7.036   5.094   3.781
 4395TIP3    H113149   7.109   5.050   3.824
 4395TIP3    H213150   6.990   5.138   3.853
 4396TIP3   OH213151   1.584   4.687   1.449
 4396TIP3    H113152   1.678   4.707   1.450
 4396TIP3    H213153   1.547   4.747   1.384
 4397TIP3   OH213154   2.517   4.997   1.129
 4397TIP3    H113155   2.485   4.941   1.059
 4397TIP3    H213156   2.500   4.948   1.209
 4398TIP3   OH213157   1.122   5.603   4.099
 4398TIP3    H113158   1.114   5.544   4.174
 4398TIP3    H213159   1.117   5.545   4.023
 4399TIP3   OH213160   0.211   3.442   2.799
 4399TIP3    H113161   0.175   3.371   2.746
 4399TIP3    H213162   0.262   3.398   2.866
 4400TIP3   OH213163   2.596   4.089   5.474
 4400TIP3    H113164   2.683   4.049   5.485
 4400TIP3    H213165   2.613   4.183   5.473
 4401TIP3   OH213166   4.571   4.927   2.798
 4401TIP3    H113167   4.667   4.925   2.805
 4401TIP3    H213168   4.554   4.964   2.711
 4402TIP3   OH213169   3.590   0.469   3.003
 4402TIP3    H113170   3.664   0.461   3.063
 4402TIP3    H213171   3.611   0.545   2.950
 4403TIP3   OH213172   1.231   5.409   5.088
 4403TIP3    H113173   1.156   5.370   5.132
 4403TIP3    H213174   1.270   5.467   5.152
 4404TIP3   OH213175   5.046   0.291   4.998
 4404TIP3    H113176   4.976   0.312   5.059
 4404TIP3    H213177   5.106   0.235   5.047
 4405TIP3   OH213178   2.920   4.013   1.453
 4405TIP3    H113179   3.000   4.045   1.495
 4405TIP3    H213180   2.922   3.919   1.467
 4406TIP3   OH213181   2.230   0.461   1.560
 4406TIP3    H113182   2.171   0.396   1.597
 4406TIP3    H213183   2.300   0.411   1.520
 4407TIP3   OH213184   6.400   2.311   2.252
 4407TIP3    H113185   6.319   2.340   2.295
 4407TIP3    H213186   6.431   2.388   2.205
 4408TIP3   OH213187   5.485   4.589   5.061
 4408TIP3    H113188   5.571   4.548   5.053
 4408TIP3    H213189   5.423   4.517   5.048
 4409TIP3   OH213190   5.998   4.602   3.918
 4409TIP3    H113191   6.055   4.617   3.993
 4409TIP3    H213192   5.968   4.690   3.893
 4410TIP3   OH213193   0.619   1.247   4.214
 4410TIP3    H113194   0.580   1.190   4.281
 4410TIP3    H213195   0.659   1.187   4.151
 4411TIP3   OH213196   3.522   1.283   0.741
 4411TIP3    H113197   3.572   1.270   0.661
 4411TIP3    H213198   3.572   1.239   0.810
 4412TIP3   OH213199   0.470   4.384   4.823
 4412TIP3    H113200   0.470   4.479   4.827
 4412TIP3    H213201   0.436   4.363   4.736
 4413TIP3   OH213202   3.991   4.814   2.658
 4413TIP3    H113203   4.024   4.798   2.746
 4413TIP3    H213204   3.925   4.882   2.669
 4414TIP3   OH213205   5.072   1.286   5.256
 4414TIP3    H113206   5.097   1.355   5.194
 4414TIP3    H213207   4.984   1.310   5.284
 4415TIP3   OH213208   3.221   3.928   3.256
 4415TIP3    H113209   3.143   3.875   3.270
 4415TIP3    H213210   3.291   3.865   3.241
 4416TIP3   OH213211   0.220   3.466   5.102
 4416TIP3    H113212   0.213   3.377   5.068
 4416TIP3    H213213   0.129   3.495   5.112
 4417TIP3   OH213214   5.947   4.133   3.860
 4417TIP3    H113215   5.855   4.140   3.887
 4417TIP3    H213216   5.956   4.041   3.831
 4418TIP3   OH213217   1.723   5.112   3.276
 4418TIP3    H113218   1.642   5.065   3.295
 4418TIP3    H213219   1.744   5.089   3.186
 4419TIP3   OH213220   0.936   4.923   4.288
 4419TIP3    H113221   0.940   4.854   4.355
 4419TIP3    H213222   0.843   4.948   4.286
 4420TIP3   OH213223   4.933   4.345   0.255
 4420TIP3    H113224   4.937   4.436   0.225
 4420TIP3    H213225   4.940   4.294   0.174
 4421TIP3   OH213226   1.416   2.731   4.694
 4421TIP3    H113227   1.405   2.764   4.605
 4421TIP3    H213228   1.365   2.650   4.696
 4422TIP3   OH213229   3.399   2.226   1.726
 4422TIP3    H113230   3.390   2.199   1.817
 4422TIP3    H213231   3.406   2.321   1.730
 4423TIP3   OH213232   6.732   3.755   3.550
 4423TIP3    H113233   6.743   3.847   3.576
 4423TIP3    H213234   6.752   3.755   3.457
 4424TIP3   OH213235   6.925   1.577   1.385
 4424TIP3    H113236   6.945   1.525   1.308
 4424TIP3    H213237   6.870   1.648   1.352
 4425TIP3   OH213238   4.526   2.035   3.317
 4425TIP3    H113239   4.501   2.123   3.291
 4425TIP3    H213240   4.546   1.990   3.235
 4426TIP3   OH213241   0.440   3.438   2.280
 4426TIP3    H113242   0.358   3.398   2.252
 4426TIP3    H213243   0.428   3.456   2.373
 4427TIP3   OH213244   2.152   2.108   1.971
 4427TIP3    H113245   2.216   2.111   1.899
 4427TIP3    H213246   2.132   2.015   1.981
 4428TIP3   OH213247   5.434   5.675   1.522
 4428TIP3    H113248   5.344   5.709   1.519
 4428TIP3    H213249   5.488   5.749   1.493
 4429TIP3   OH213250   2.398   5.519   4.665
 4429TIP3    H113251   2.451   5.599   4.671
 4429TIP3    H213252   2.462   5.448   4.675
 4430TIP3   OH213253   0.184   3.518   2.423
 4430TIP3    H113254   0.141   3.559   2.498
 4430TIP3    H213255   0.113   3.472   2.378
 4431TIP3   OH213256   4.726   6.275   4.504
 4431TIP3    H113257   4.691   6.237   4.585
 4431TIP3    H213258   4.763   6.201   4.456
 4432TIP3   OH213259   1.535   0.544   2.881
 4432TIP3    H113260   1.610   0.589   2.843
 4432TIP3    H213261   1.518   0.589   2.964
 4433TIP3   OH213262   1.307   5.839   4.314
 4433TIP3    H113263   1.231   5.809   4.364
 4433TIP3    H213264   1.343   5.911   4.366
 4434TIP3   OH213265   6.591   0.784   4.293
 4434TIP3    H113266   6.608   0.817   4.381
 4434TIP3    H213267   6.496   0.784   4.285
 4435TIP3   OH213268   0.177   5.860   4.173
 4435TIP3    H113269   0.101   5.820   4.216
 4435TIP3    H213270   0.205   5.795   4.109
 4436TIP3   OH213271   3.537   0.236   0.598
 4436TIP3    H113272   3.450   0.265   0.626
 4436TIP3    H213273   3.533   0.141   0.605
 4437TIP3   OH213274   2.564   1.144   4.359
 4437TIP3    H113275   2.540   1.085   4.288
 4437TIP3    H213276   2.609   1.089   4.423
 4438TIP3   OH213277   6.570   1.429   4.130
 4438TIP3    H113278   6.661   1.405   4.113
 4438TIP3    H213279   6.547   1.489   4.059
 4439TIP3   OH213280   6.936   2.984   1.966
 4439TIP3    H113281   6.991   3.001   1.890
 4439TIP3    H213282   6.954   3.057   2.025
 4440TIP3   OH213283   5.371   4.852   5.041
 4440TIP3    H113284   5.446   4.911   5.047
 4440TIP3    H213285   5.404   4.768   5.073
 4441TIP3   OH213286   5.325   4.026   0.965
 4441TIP3    H113287   5.381   4.099   0.937
 4441TIP3    H213288   5.236   4.057   0.948
 4442TIP3   OH213289   5.314   6.712   3.060
 4442TIP3    H113290   5.280   6.626   3.037
 4442TIP3    H213291   5.348   6.747   2.978
 4443TIP3   OH213292   3.415   6.198   2.819
 4443TIP3    H113293   3.458   6.140   2.881
 4443TIP3    H213294   3.485   6.252   2.783
 4444TIP3   OH213295   5.289   3.376   4.140
 4444TIP3    H113296   5.259   3.286   4.152
 4444TIP3    H213297   5.334   3.398   4.222
 4445TIP3   OH213298   3.152   6.086   2.444
 4445TIP3    H113299   3.092   6.075   2.518
 4445TIP3    H213300   3.239   6.084   2.483
 4446TIP3   OH213301   4.961   4.513   1.226
 4446TIP3    H113302   4.991   4.441   1.171
 4446TIP3    H213303   4.952   4.587   1.165
 4447TIP3   OH213304   0.639   2.953   1.777
 4447TIP3    H113305   0.544   2.940   1.785
 4447TIP3    H213306   0.654   2.961   1.683
 4448TIP3   OH213307   2.426   3.124   1.751
 4448TIP3    H113308   2.483   3.138   1.827
 4448TIP3    H213309   2.338   3.123   1.787
 4449TIP3   OH213310   0.264   2.265   3.559
 4449TIP3    H113311   0.266   2.344   3.614
 4449TIP3    H213312   0.251   2.193   3.621
 4450TIP3   OH213313   1.879   4.973   2.080
 4450TIP3    H113314   1.822   4.896   2.082
 4450TIP3    H213315   1.968   4.937   2.086
 4451TIP3   OH213316   4.858   1.626   2.203
 4451TIP3    H113317   4.790   1.611   2.136
 4451TIP3    H213318   4.865   1.721   2.208
 4452TIP3   OH213319   6.671   3.049   2.187
 4452TIP3    H113320   6.750   3.103   2.195
 4452TIP3    H213321   6.603   3.111   2.161
 4453TIP3   OH213322   4.956   2.579   1.005
 4453TIP3    H113323   4.961   2.658   1.057
 4453TIP3    H213324   4.929   2.609   0.918
 4454TIP3   OH213325   6.589   4.612   0.806
 4454TIP3    H113326   6.543   4.658   0.876
 4454TIP3    H213327   6.620   4.682   0.748
 4455TIP3   OH213328   7.126   4.778   2.628
 4455TIP3    H113329   7.086   4.865   2.635
 4455TIP3    H213330   7.214   4.794   2.595
 4456TIP3   OH213331   2.348   3.377   0.191
 4456TIP3    H113332   2.416   3.432   0.152
 4456TIP3    H213333   2.267   3.405   0.148
 4457TIP3   OH213334   5.731   6.583   2.758
 4457TIP3    H113335   5.723   6.668   2.713
 4457TIP3    H213336   5.646   6.541   2.746
 4458TIP3   OH213337   6.519   2.926   2.998
 4458TIP3    H113338   6.525   3.020   3.018
 4458TIP3    H213339   6.435   2.916   2.955
 4459TIP3   OH213340   2.844   4.899   5.360
 4459TIP3    H113341   2.790   4.826   5.329
 4459TIP3    H213342   2.927   4.889   5.313
 4460TIP3   OH213343   6.746   3.765   5.742
 4460TIP3    H113344   6.823   3.796   5.694
 4460TIP3    H213345   6.779   3.746   5.830
 4461TIP3   OH213346   1.256   2.920   0.191
 4461TIP3    H113347   1.175   2.871   0.180
 4461TIP3    H213348   1.301   2.910   0.107
 4462TIP3   OH213349   6.140   5.439   5.749
 4462TIP3    H113350   6.057   5.429   5.795
 4462TIP3    H213351   6.139   5.529   5.717
 4463TIP3   OH213352   6.267   3.546   0.399
 4463TIP3    H113353   6.303   3.536   0.311
 4463TIP3    H213354   6.344   3.560   0.454
 4464TIP3   OH213355   6.604   2.247   2.745
 4464TIP3    H113356   6.605   2.168   2.799
 4464TIP3    H213357   6.530   2.235   2.685
 4465TIP3   OH213358   3.787   4.401   4.003
 4465TIP3    H113359   3.775   4.367   4.092
 4465TIP3    H213360   3.878   4.379   3.981
 4466TIP3   OH213361   4.412   0.177   5.612
 4466TIP3    H113362   4.411   0.213   5.701
 4466TIP3    H213363   4.337   0.218   5.569
 4467TIP3   OH213364   0.320   2.017   2.041
 4467TIP3    H113365   0.382   1.960   2.087
 4467TIP3    H213366   0.305   2.089   2.102
 4468TIP3   OH213367   3.884   4.675   3.520
 4468TIP3    H113368   3.796   4.709   3.502
 4468TIP3    H213369   3.870   4.607   3.586
 4469TIP3   OH213370   2.158   2.054   5.386
 4469TIP3    H113371   2.108   1.987   5.432
 4469TIP3    H213372   2.250   2.031   5.402
 4470TIP3   OH213373   3.383   2.126   4.788
 4470TIP3    H113374   3.448   2.184   4.829
 4470TIP3    H213375   3.435   2.062   4.740
 4471TIP3   OH213376   1.050   1.767   2.387
 4471TIP3    H113377   1.145   1.779   2.386
 4471TIP3    H213378   1.034   1.693   2.329
 4472TIP3   OH213379   6.474   2.031   2.174
 4472TIP3    H113380   6.458   2.111   2.225
 4472TIP3    H213381   6.441   1.961   2.230
 4473TIP3   OH213382   4.266   0.026   1.496
 4473TIP3    H113383   4.185   0.017   1.546
 4473TIP3    H213384   4.255   0.106   1.445
 4474TIP3   OH213385   1.575   1.236   3.409
 4474TIP3    H113386   1.549   1.188   3.488
 4474TIP3    H213387   1.633   1.305   3.441
 4475TIP3   OH213388   1.021   5.098   1.400
 4475TIP3    H113389   0.979   5.086   1.485
 4475TIP3    H213390   1.011   5.014   1.356
 4476TIP3   OH213391   6.464   0.195   0.723
 4476TIP3    H113392   6.542   0.153   0.759
 4476TIP3    H213393   6.492   0.228   0.637
 4477TIP3   OH213394   4.449   5.581   5.033
 4477TIP3    H113395   4.388   5.652   5.010
 4477TIP3    H213396   4.484   5.607   5.118
 4478TIP3   OH213397   5.069   2.860   3.089
 4478TIP3    H113398   5.003   2.902   3.144
 4478TIP3    H213399   5.069   2.769   3.117
 4479TIP3   OH213400   6.652   5.437   5.077
 4479TIP3    H113401   6.697   5.377   5.017
 4479TIP3    H213402   6.716   5.453   5.146
 4480TIP3   OH213403   5.380   2.270   5.840
 4480TIP3    H113404   5.406   2.209   5.909
 4480TIP3    H213405   5.339   2.215   5.773
 4481TIP3   OH213406   0.442   6.207   2.958
 4481TIP3    H113407   0.405   6.146   3.022
 4481TIP3    H213408   0.534   6.215   2.983
 4482TIP3   OH213409   0.496   2.186   1.240
 4482TIP3    H113410   0.550   2.264   1.250
 4482TIP3    H213411   0.455   2.196   1.154
 4483TIP3   OH213412   0.094   2.127   5.098
 4483TIP3    H113413   0.167   2.169   5.052
 4483TIP3    H213414   0.136   2.076   5.167
 4484TIP3   OH213415   6.452   3.557   0.594
 4484TIP3    H113416   6.533   3.506   0.588
 4484TIP3    H213417   6.435   3.565   0.688
 4485TIP3   OH213418   3.905   3.268   5.691
 4485TIP3    H113419   3.826   3.215   5.683
 4485TIP3    H213420   3.936   3.252   5.780
 4486TIP3   OH213421   1.817   1.870   2.060
 4486TIP3    H113422   1.723   1.886   2.069
 4486TIP3    H213423   1.834   1.879   1.967
 4487TIP3   OH213424   2.505   0.334   3.031
 4487TIP3    H113425   2.417   0.317   3.065
 4487TIP3    H213426   2.512   0.275   2.955
 4488TIP3   OH213427   5.714   0.041   0.654
 4488TIP3    H113428   5.785   0.095   0.691
 4488TIP3    H213429   5.759  -0.019   0.594
 4489TIP3   OH213430   3.659   3.206   1.005
 4489TIP3    H113431   3.702   3.193   1.089
 4489TIP3    H213432   3.645   3.301   0.999
 4490TIP3   OH213433   6.800   2.380   2.379
 4490TIP3    H113434   6.759   2.294   2.368
 4490TIP3    H213435   6.819   2.409   2.290
 4491TIP3   OH213436   2.951   3.900   4.546
 4491TIP3    H113437   2.977   3.812   4.519
 4491TIP3    H213438   2.869   3.887   4.594
 4492TIP3   OH213439   3.796   0.460   4.097
 4492TIP3    H113440   3.765   0.551   4.096
 4492TIP3    H213441   3.738   0.415   4.158
 4493TIP3   OH213442   3.695   2.947   3.217
 4493TIP3    H113443   3.774   2.938   3.270
 4493TIP3    H213444   3.625   2.912   3.271
 4494TIP3   OH213445   2.940   4.322   4.793
 4494TIP3    H113446   2.964   4.285   4.708
 4494TIP3    H213447   2.894   4.251   4.837
 4495TIP3   OH213448   6.134   1.105   3.293
 4495TIP3    H113449   6.186   1.046   3.238
 4495TIP3    H213450   6.091   1.164   3.232
 4496TIP3   OH213451   3.289   6.561   2.294
 4496TIP3    H113452   3.204   6.528   2.322
 4496TIP3    H213453   3.290   6.551   2.199
 4497TIP3   OH213454   5.112   4.140   4.541
 4497TIP3    H113455   5.077   4.186   4.617
 4497TIP3    H213456   5.046   4.073   4.520
 4498TIP3   OH213457   2.370   5.647   5.748
 4498TIP3    H113458   2.369   5.669   5.841
 4498TIP3    H213459   2.339   5.557   5.744
 4499TIP3   OH213460   2.739   1.326  -0.012
 4499TIP3    H113461   2.678   1.258   0.016
 4499TIP3    H213462   2.702   1.407   0.022
 4500TIP3   OH213463   6.505   5.132   5.540
 4500TIP3    H113464   6.478   5.187   5.614
 4500TIP3    H213465   6.575   5.078   5.575
 4501TIP3   OH213466   3.935   5.212   1.612
 4501TIP3    H113467   3.886   5.210   1.694
 4501TIP3    H213468   3.967   5.123   1.601
 4502TIP3   OH213469   3.673   3.522   2.883
 4502TIP3    H113470   3.757   3.480   2.867
 4502TIP3    H213471   3.613   3.450   2.900
 4503TIP3   OH213472   1.358   2.712   0.699
 4503TIP3    H113473   1.330   2.623   0.720
 4503TIP3    H213474   1.276   2.759   0.682
 4504TIP3   OH213475   7.094   5.481   2.828
 4504TIP3    H113476   7.080   5.387   2.828
 4504TIP3    H213477   7.169   5.494   2.769
 4505TIP3   OH213478   4.553   3.375   4.987
 4505TIP3    H113479   4.496   3.418   5.051
 4505TIP3    H213480   4.611   3.445   4.956
 4506TIP3   OH213481   2.962   3.747   1.491
 4506TIP3    H113482   2.932   3.657   1.505
 4506TIP3    H213483   3.038   3.738   1.433
 4507TIP3   OH213484   3.370   5.842   4.048
 4507TIP3    H113485   3.427   5.829   3.971
 4507TIP3    H213486   3.378   5.935   4.068
 4508TIP3   OH213487   6.324   1.530   2.219
 4508TIP3    H113488   6.384   1.531   2.293
 4508TIP3    H213489   6.250   1.477   2.250
 4509TIP3   OH213490   1.677   2.627   5.468
 4509TIP3    H113491   1.654   2.715   5.438
 4509TIP3    H213492   1.640   2.568   5.402
 4510TIP3   OH213493   0.905   1.250   1.265
 4510TIP3    H113494   0.840   1.270   1.197
 4510TIP3    H213495   0.859   1.268   1.347
 4511TIP3   OH213496   3.059   2.741   3.702
 4511TIP3    H113497   3.017   2.741   3.788
 4511TIP3    H213498   3.097   2.653   3.694
 4512TIP3   OH213499   7.038   4.230   2.282
 4512TIP3    H113500   7.087   4.249   2.362
 4512TIP3    H213501   7.084   4.156   2.243
 4513TIP3   OH213502   4.505   6.569   1.238
 4513TIP3    H113503   4.434   6.565   1.302
 4513TIP3    H213504   4.585   6.560   1.290
 4514TIP3   OH213505   0.009   6.152   1.300
 4514TIP3    H113506   0.083   6.200   1.336
 4514TIP3    H213507  -0.034   6.114   1.377
 4515TIP3   OH213508   7.194  -0.004   4.000
 4515TIP3    H113509   7.252   0.001   4.075
 4515TIP3    H213510   7.117   0.046   4.026
 4516TIP3   OH213511   4.243   6.441   5.812
 4516TIP3    H113512   4.167   6.404   5.768
 4516TIP3    H213513   4.273   6.371   5.870
 4517TIP3   OH213514   6.555   1.772   0.025
 4517TIP3    H113515   6.632   1.821  -0.005
 4517TIP3    H213516   6.578   1.743   0.113
 4518TIP3   OH213517   2.320   3.558   2.958
 4518TIP3    H113518   2.356   3.474   2.930
 4518TIP3    H213519   2.227   3.539   2.974
 4519TIP3   OH213520   2.938   3.651   4.815
 4519TIP3    H113521   2.926   3.739   4.850
 4519TIP3    H213522   2.909   3.593   4.885
 4520TIP3   OH213523   1.674   1.842   5.521
 4520TIP3    H113524   1.756   1.793   5.525
 4520TIP3    H213525   1.622   1.797   5.453
 4521TIP3   OH213526   1.726   1.646   2.274
 4521TIP3    H113527   1.683   1.623   2.192
 4521TIP3    H213528   1.698   1.580   2.336
 4522TIP3   OH213529   5.549   0.767   5.010
 4522TIP3    H113530   5.628   0.761   5.064
 4522TIP3    H213531   5.537   0.861   4.995
 4523TIP3   OH213532   0.194   3.592   3.920
 4523TIP3    H113533   0.154   3.511   3.890
 4523TIP3    H213534   0.183   3.653   3.847
 4524TIP3   OH213535   7.191   2.926   4.986
 4524TIP3    H113536   7.130   2.851   4.988
 4524TIP3    H213537   7.134   3.002   5.000
 4525TIP3   OH213538   1.853   5.469   2.585
 4525TIP3    H113539   1.891   5.406   2.524
 4525TIP3    H213540   1.829   5.544   2.529
 4526TIP3   OH213541   0.922   4.715   1.967
 4526TIP3    H113542   0.858   4.786   1.957
 4526TIP3    H213543   0.887   4.661   2.037
 4527TIP3   OH213544   6.570   2.321   3.662
 4527TIP3    H113545   6.604   2.319   3.751
 4527TIP3    H213546   6.620   2.253   3.616
 4528TIP3   OH213547   3.131   6.587   3.016
 4528TIP3    H113548   3.201   6.556   3.073
 4528TIP3    H213549   3.083   6.508   2.991
 4529TIP3   OH213550   1.582   6.042   4.220
 4529TIP3    H113551   1.527   6.061   4.143
 4529TIP3    H213552   1.526   6.063   4.295
 4530TIP3   OH213553   1.845   0.078   5.471
 4530TIP3    H113554   1.806  -0.008   5.455
 4530TIP3    H213555   1.778   0.126   5.518
 4531TIP3   OH213556  -0.034   0.653   5.481
 4531TIP3    H113557   0.030   0.584   5.465
 4531TIP3    H213558   0.003   0.703   5.554
 4532TIP3   OH213559   3.897   0.767   1.767
 4532TIP3    H113560   3.810   0.728   1.760
 4532TIP3    H213561   3.940   0.746   1.685
 4533TIP3   OH213562   0.666   6.633   1.545
 4533TIP3    H113563   0.714   6.655   1.625
 4533TIP3    H213564   0.576   6.619   1.574
 4534TIP3   OH213565   1.389   2.451   3.853
 4534TIP3    H113566   1.329   2.455   3.779
 4534TIP3    H213567   1.407   2.542   3.875
 4535TIP3   OH213568   6.953   4.265   4.001
 4535TIP3    H113569   7.049   4.263   4.005
 4535TIP3    H213570   6.926   4.279   4.092
 4536TIP3   OH213571   1.004   0.819   2.590
 4536TIP3    H113572   0.986   0.731   2.555
 4536TIP3    H213573   0.945   0.876   2.542
 4537TIP3   OH213574   1.768   5.265   0.602
 4537TIP3    H113575   1.860   5.253   0.581
 4537TIP3    H213576   1.731   5.309   0.525
 4538TIP3   OH213577   4.701   3.654   1.673
 4538TIP3    H113578   4.693   3.559   1.685
 4538TIP3    H213579   4.789   3.666   1.638
 4539TIP3   OH213580   6.928   5.796   3.279
 4539TIP3    H113581   6.837   5.799   3.249
 4539TIP3    H213582   6.924   5.826   3.370
 4540TIP3   OH213583   3.629   1.370   5.865
 4540TIP3    H113584   3.590   1.436   5.923
 4540TIP3    H213585   3.685   1.421   5.806
 4541TIP3   OH213586   4.714   3.796   4.493
 4541TIP3    H113587   4.795   3.841   4.517
 4541TIP3    H213588   4.651   3.824   4.559
 4542TIP3   OH213589   5.623   4.740   0.874
 4542TIP3    H113590   5.578   4.758   0.791
 4542TIP3    H213591   5.632   4.826   0.915
 4543TIP3   OH213592   1.293   3.921   0.540
 4543TIP3    H113593   1.272   3.829   0.555
 4543TIP3    H213594   1.212   3.958   0.504
 4544TIP3   OH213595   1.198   0.504   1.243
 4544TIP3    H113596   1.192   0.413   1.215
 4544TIP3    H213597   1.195   0.554   1.162
 4545TIP3   OH213598   5.806   6.544   1.902
 4545TIP3    H113599   5.886   6.505   1.867
 4545TIP3    H213600   5.837   6.619   1.954
 4546TIP3   OH213601   4.205   6.046   0.230
 4546TIP3    H113602   4.123   6.054   0.181
 4546TIP3    H213603   4.181   6.065   0.321
 4547TIP3   OH213604   3.738   1.589   1.789
 4547TIP3    H113605   3.686   1.535   1.850
 4547TIP3    H213606   3.806   1.628   1.845
 4548TIP3   OH213607   2.206   0.817   3.862
 4548TIP3    H113608   2.168   0.748   3.916
 4548TIP3    H213609   2.300   0.798   3.861
 4549TIP3   OH213610   3.026   4.885   0.018
 4549TIP3    H113611   3.080   4.893   0.096
 4549TIP3    H213612   3.079   4.835  -0.044
 4550TIP3   OH213613   4.276   4.566   1.102
 4550TIP3    H113614   4.269   4.561   1.198
 4550TIP3    H213615   4.191   4.535   1.071
 4551TIP3   OH213616   6.842   5.882   2.428
 4551TIP3    H113617   6.904   5.947   2.460
 4551TIP3    H213618   6.773   5.880   2.495
 4552TIP3   OH213619   6.716   6.536   2.375
 4552TIP3    H113620   6.779   6.568   2.310
 4552TIP3    H213621   6.631   6.546   2.332
 4553TIP3   OH213622   6.554   2.101   4.477
 4553TIP3    H113623   6.546   2.005   4.481
 4553TIP3    H213624   6.614   2.116   4.404
 4554TIP3   OH213625   1.552   1.554   2.991
 4554TIP3    H113626   1.584   1.476   2.946
 4554TIP3    H213627   1.613   1.624   2.966
 4555TIP3   OH213628   7.112   0.196   0.419
 4555TIP3    H113629   7.132   0.286   0.396
 4555TIP3    H213630   7.036   0.202   0.476
 4556TIP3   OH213631   5.709   5.086   0.108
 4556TIP3    H113632   5.768   5.118   0.039
 4556TIP3    H213633   5.672   5.006   0.073
 4557TIP3   OH213634   1.973   0.761   4.182
 4557TIP3    H113635   1.968   0.688   4.120
 4557TIP3    H213636   1.897   0.749   4.239
 4558TIP3   OH213637   0.354   4.694   3.619
 4558TIP3    H113638   0.355   4.722   3.710
 4558TIP3    H213639   0.384   4.771   3.570
 4559TIP3   OH213640   1.363  -0.008   3.047
 4559TIP3    H113641   1.339   0.082   3.022
 4559TIP3    H213642   1.282  -0.058   3.035
 4560TIP3   OH213643   1.068   0.012   5.565
 4560TIP3    H113644   1.009   0.035   5.493
 4560TIP3    H213645   1.038   0.065   5.639
 4561TIP3   OH213646   0.294   5.030   1.214
 4561TIP3    H113647   0.309   4.942   1.181
 4561TIP3    H213648   0.269   5.018   1.305
 4562TIP3   OH213649   4.754   0.594   2.827
 4562TIP3    H113650   4.673   0.644   2.837
 4562TIP3    H213651   4.820   0.660   2.804
 4563TIP3   OH213652   2.451   5.311   3.685
 4563TIP3    H113653   2.494   5.226   3.686
 4563TIP3    H213654   2.443   5.334   3.778
 4564TIP3   OH213655   0.440   5.483   2.412
 4564TIP3    H113656   0.373   5.532   2.364
 4564TIP3    H213657   0.397   5.456   2.493
 4565TIP3   OH213658   3.635   4.565   2.257
 4565TIP3    H113659   3.602   4.640   2.207
 4565TIP3    H213660   3.560   4.507   2.267
 4566TIP3   OH213661   4.399   6.426   3.522
 4566TIP3    H113662   4.329   6.366   3.496
 4566TIP3    H213663   4.444   6.381   3.593
 4567TIP3   OH213664   2.598   2.375   1.855
 4567TIP3    H113665   2.613   2.461   1.816
 4567TIP3    H213666   2.581   2.394   1.948
 4568TIP3   OH213667   2.371   3.258   5.601
 4568TIP3    H113668   2.372   3.201   5.678
 4568TIP3    H213669   2.401   3.343   5.633
 4569TIP3   OH213670   2.082   5.302   0.248
 4569TIP3    H113671   2.018   5.370   0.227
 4569TIP3    H213672   2.038   5.248   0.314
 4570TIP3   OH213673   4.156   4.182   3.355
 4570TIP3    H113674   4.197   4.267   3.366
 4570TIP3    H213675   4.070   4.192   3.397
 4571TIP3   OH213676   0.803   1.212   1.542
 4571TIP3    H113677   0.827   1.147   1.608
 4571TIP3    H213678   0.725   1.176   1.500
 4572TIP3   OH213679   7.197   3.327   1.077
 4572TIP3    H113680   7.145   3.309   0.999
 4572TIP3    H213681   7.209   3.422   1.076
 4573TIP3   OH213682   6.485   0.825   2.774
 4573TIP3    H113683   6.450   0.739   2.750
 4573TIP3    H213684   6.561   0.806   2.828
 4574TIP3   OH213685   3.316   5.185   3.076
 4574TIP3    H113686   3.305   5.184   2.981
 4574TIP3    H213687   3.407   5.213   3.090
 4575TIP3   OH213688   4.442   5.998   5.451
 4575TIP3    H113689   4.465   5.936   5.520
 4575TIP3    H213690   4.522   6.007   5.399
 4576TIP3   OH213691   0.866   1.950   2.339
 4576TIP3    H113692   0.922   1.884   2.380
 4576TIP3    H213693   0.873   1.933   2.245
 4577TIP3   OH213694   3.219   1.069   0.996
 4577TIP3    H113695   3.163   1.006   0.951
 4577TIP3    H213696   3.237   1.029   1.081
 4578TIP3   OH213697   5.362   4.944   4.231
 4578TIP3    H113698   5.293   4.879   4.241
 4578TIP3    H213699   5.441   4.894   4.214
 4579TIP3   OH213700   2.886   6.105   4.751
 4579TIP3    H113701   2.892   6.097   4.656
 4579TIP3    H213702   2.930   6.027   4.785
 4580TIP3   OH213703   6.581   4.283   1.519
 4580TIP3    H113704   6.498   4.241   1.540
 4580TIP3    H213705   6.558   4.373   1.495
 4581TIP3   OH213706   6.418   6.551   2.360
 4581TIP3    H113707   6.413   6.470   2.309
 4581TIP3    H213708   6.336   6.553   2.410
 4582TIP3   OH213709   4.709   3.956   0.704
 4582TIP3    H113710   4.764   3.916   0.636
 4582TIP3    H213711   4.629   3.980   0.658
 4583TIP3   OH213712   6.116   6.126   0.379
 4583TIP3    H113713   6.124   6.135   0.284
 4583TIP3    H213714   6.021   6.129   0.395
 4584TIP3   OH213715   4.918   3.397   1.405
 4584TIP3    H113716   4.883   3.445   1.330
 4584TIP3    H213717   5.012   3.389   1.388
 4585TIP3   OH213718   1.508   2.507   1.513
 4585TIP3    H113719   1.471   2.459   1.586
 4585TIP3    H213720   1.434   2.556   1.476
 4586TIP3   OH213721   1.160   1.947   3.177
 4586TIP3    H113722   1.215   1.959   3.100
 4586TIP3    H213723   1.200   2.003   3.244
 4587TIP3   OH213724   6.689   5.946   0.301
 4587TIP3    H113725   6.782   5.957   0.322
 4587TIP3    H213726   6.653   5.899   0.376
 4588TIP3   OH213727   2.705   0.591   1.092
 4588TIP3    H113728   2.748   0.518   1.138
 4588TIP3    H213729   2.613   0.565   1.087
 4589TIP3   OH213730   1.382   2.732   2.475
 4589TIP3    H113731   1.331   2.694   2.403
 4589TIP3    H213732   1.418   2.657   2.521
 4590TIP3   OH213733   2.115   0.047   5.091
 4590TIP3    H113734   2.142   0.121   5.038
 4590TIP3    H213735   2.065  -0.009   5.031
 4591TIP3   OH213736   4.373   0.859   0.815
 4591TIP3    H113737   4.301   0.799   0.835
 4591TIP3    H213738   4.331   0.937   0.779
 4592TIP3   OH213739   2.799   6.690   1.084
 4592TIP3    H113740   2.852   6.671   1.007
 4592TIP3    H213741   2.857   6.740   1.141
 4593TIP3   OH213742   5.989   2.624   3.552
 4593TIP3    H113743   6.066   2.633   3.607
 4593TIP3    H213744   6.016   2.659   3.467
 4594TIP3   OH213745   0.676   5.030   5.723
 4594TIP3    H113746   0.594   4.984   5.705
 4594TIP3    H213747   0.649   5.111   5.766
 4595TIP3   OH213748   1.952   2.072   4.414
 4595TIP3    H113749   1.969   2.011   4.343
 4595TIP3    H213750   1.935   2.156   4.371
 4596TIP3   OH213751   4.340   6.830   3.522
 4596TIP3    H113752   4.287   6.842   3.601
 4596TIP3    H213753   4.278   6.794   3.458
 4597TIP3   OH213754   2.316   0.104   0.643
 4597TIP3    H113755   2.410   0.101   0.623
 4597TIP3    H213756   2.276   0.048   0.576
 4598TIP3   OH213757   2.320   3.376   5.209
 4598TIP3    H113758   2.400   3.400   5.162
 4598TIP3    H213759   2.345   3.300   5.262
 4599TIP3   OH213760   4.460   1.875   1.064
 4599TIP3    H113761   4.503   1.935   1.002
 4599TIP3    H213762   4.411   1.814   1.008
 4600TIP3   OH213763   1.759   4.923   5.174
 4600TIP3    H113764   1.818   4.979   5.124
 4600TIP3    H213765   1.672   4.942   5.137
 4601TIP3   OH213766   1.645   3.598   0.159
 4601TIP3    H113767   1.628   3.660   0.230
 4601TIP3    H213768   1.576   3.616   0.095
 4602TIP3   OH213769   2.123   0.550   2.728
 4602TIP3    H113770   2.178   0.472   2.718
 4602TIP3    H213771   2.034   0.517   2.728
 4603TIP3   OH213772   7.182   1.344   3.070
 4603TIP3    H113773   7.200   1.375   2.981
 4603TIP3    H213774   7.107   1.285   3.060
 4604TIP3   OH213775   3.314   4.912   5.019
 4604TIP3    H113776   3.399   4.907   4.976
 4604TIP3    H213777   3.302   4.826   5.057
 4605TIP3   OH213778   2.704   0.373   5.813
 4605TIP3    H113779   2.708   0.318   5.891
 4605TIP3    H213780   2.747   0.322   5.745
 4606TIP3   OH213781   5.082   3.170   0.714
 4606TIP3    H113782   5.052   3.088   0.675
 4606TIP3    H213783   5.113   3.146   0.802
 4607TIP3   OH213784   5.878   0.098   1.375
 4607TIP3    H113785   5.956   0.079   1.322
 4607TIP3    H213786   5.895   0.056   1.459
 4608TIP3   OH213787   7.150   2.982   5.740
 4608TIP3    H113788   7.199   2.945   5.813
 4608TIP3    H213789   7.209   3.048   5.703
 4609TIP3   OH213790   1.163   6.529  -0.020
 4609TIP3    H113791   1.256   6.537  -0.041
 4609TIP3    H213792   1.124   6.610  -0.052
 4610TIP3   OH213793   4.222   3.360   5.137
 4610TIP3    H113794   4.146   3.366   5.080
 4610TIP3    H213795   4.279   3.296   5.095
 4611TIP3   OH213796   4.365   1.497   2.401
 4611TIP3    H113797   4.364   1.553   2.323
 4611TIP3    H213798   4.431   1.536   2.458
 4612TIP3   OH213799   4.842   6.735   5.156
 4612TIP3    H113800   4.827   6.822   5.193
 4612TIP3    H213801   4.929   6.740   5.116
 4613TIP3   OH213802   4.185   4.199   0.426
 4613TIP3    H113803   4.123   4.129   0.441
 4613TIP3    H213804   4.266   4.168   0.466
 4614TIP3   OH213805   5.818   6.190   4.442
 4614TIP3    H113806   5.733   6.145   4.437
 4614TIP3    H213807   5.878   6.132   4.396
 4615TIP3   OH213808   4.677   0.019   4.570
 4615TIP3    H113809   4.735   0.091   4.596
 4615TIP3    H213810   4.731  -0.059   4.579
 4616TIP3   OH213811   6.979   2.567   2.531
 4616TIP3    H113812   6.999   2.525   2.615
 4616TIP3    H213813   6.932   2.500   2.481
 4617TIP3   OH213814   0.014   5.310   4.650
 4617TIP3    H113815   0.070   5.387   4.660
 4617TIP3    H213816   0.008   5.297   4.555
 4618TIP3   OH213817   0.674   1.361   5.523
 4618TIP3    H113818   0.745   1.387   5.581
 4618TIP3    H213819   0.671   1.265   5.530
 4619TIP3   OH213820   6.491   3.802   4.187
 4619TIP3    H113821   6.452   3.882   4.223
 4619TIP3    H213822   6.417   3.756   4.145
 4620TIP3   OH213823   0.865   3.286   4.757
 4620TIP3    H113824   0.855   3.326   4.670
 4620TIP3    H213825   0.820   3.202   4.750
 4621TIP3   OH213826   5.757   5.818   1.706
 4621TIP3    H113827   5.714   5.743   1.664
 4621TIP3    H213828   5.768   5.881   1.635
 4622TIP3   OH213829   1.980   6.667   4.588
 4622TIP3    H113830   1.898   6.618   4.578
 4622TIP3    H213831   1.983   6.724   4.512
 4623TIP3   OH213832   5.953   4.892   4.260
 4623TIP3    H113833   6.011   4.900   4.336
 4623TIP3    H213834   5.977   4.966   4.204
 4624TIP3   OH213835   0.092   5.124   0.174
 4624TIP3    H113836   0.034   5.189   0.213
 4624TIP3    H213837   0.124   5.073   0.249
 4625TIP3   OH213838   0.818   2.883   0.089
 4625TIP3    H113839   0.829   2.960   0.146
 4625TIP3    H213840   0.767   2.915   0.015
 4626TIP3   OH213841   3.878   0.164   0.718
 4626TIP3    H113842   3.813   0.225   0.684
 4626TIP3    H213843   3.922   0.213   0.787
 4627TIP3   OH213844   7.133   5.918   3.782
 4627TIP3    H113845   7.222   5.947   3.805
 4627TIP3    H213846   7.083   5.929   3.863
 4628TIP3   OH213847   0.834   2.077   5.460
 4628TIP3    H113848   0.788   2.145   5.508
 4628TIP3    H213849   0.904   2.124   5.414
 4629TIP3   OH213850   4.140   1.222   3.496
 4629TIP3    H113851   4.098   1.232   3.410
 4629TIP3    H213852   4.133   1.129   3.516
 4630TIP3   OH213853   1.711   3.730   1.048
 4630TIP3    H113854   1.706   3.697   1.138
 4630TIP3    H213855   1.647   3.679   0.999
 4631TIP3   OH213856   4.786   1.584   2.510
 4631TIP3    H113857   4.844   1.507   2.509
 4631TIP3    H213858   4.846   1.658   2.507
 4632TIP3   OH213859   3.503   4.253   5.748
 4632TIP3    H113860   3.563   4.284   5.816
 4632TIP3    H213861   3.542   4.172   5.716
 4633TIP3   OH213862   1.461   1.882   4.179
 4633TIP3    H113863   1.506   1.851   4.258
 4633TIP3    H213864   1.371   1.851   4.190
 4634TIP3   OH213865   2.631   3.436   1.414
 4634TIP3    H113866   2.576   3.366   1.449
 4634TIP3    H213867   2.607   3.513   1.464
 4635TIP3   OH213868   4.972   1.688   3.730
 4635TIP3    H113869   4.951   1.597   3.709
 4635TIP3    H213870   4.951   1.697   3.823
 4636TIP3   OH213871   0.088   0.749   5.713
 4636TIP3    H113872   0.115   0.840   5.706
 4636TIP3    H213873   0.136   0.716   5.790
 4637TIP3   OH213874   6.928   1.464   2.207
 4637TIP3    H113875   7.015   1.425   2.215
 4637TIP3    H213876   6.897   1.436   2.120
 4638TIP3   OH213877   3.468   4.675   0.838
 4638TIP3    H113878   3.455   4.688   0.931
 4638TIP3    H213879   3.409   4.739   0.796
 4639TIP3   OH213880   4.255   4.806   4.937
 4639TIP3    H113881   4.349   4.815   4.925
 4639TIP3    H213882   4.223   4.894   4.953
 4640TIP3   OH213883   6.327   4.934   2.828
 4640TIP3    H113884   6.361   4.853   2.790
 4640TIP3    H213885   6.296   4.907   2.915
 4641TIP3   OH213886   2.323   1.196   2.944
 4641TIP3    H113887   2.254   1.182   3.009
 4641TIP3    H213888   2.380   1.262   2.983
 4642TIP3   OH213889   4.743   2.490   5.232
 4642TIP3    H113890   4.836   2.486   5.210
 4642TIP3    H213891   4.740   2.468   5.325
 4643TIP3   OH213892   3.679   0.353   4.544
 4643TIP3    H113893   3.773   0.343   4.560
 4643TIP3    H213894   3.649   0.412   4.613
 4644TIP3   OH213895   1.506   4.720   4.924
 4644TIP3    H113896   1.586   4.720   4.871
 4644TIP3    H213897   1.442   4.675   4.869
 4645TIP3   OH213898   1.942   6.398   5.266
 4645TIP3    H113899   1.946   6.430   5.356
 4645TIP3    H213900   1.984   6.465   5.213
 4646TIP3   OH213901   0.194   3.515   1.948
 4646TIP3    H113902   0.239   3.597   1.925
 4646TIP3    H213903   0.114   3.544   1.992
 4647TIP3   OH213904   2.525   0.431   1.909
 4647TIP3    H113905   2.521   0.341   1.941
 4647TIP3    H213906   2.557   0.423   1.819
 4648TIP3   OH213907   0.559   5.262   4.151
 4648TIP3    H113908   0.518   5.342   4.119
 4648TIP3    H213909   0.651   5.270   4.127
 4649TIP3   OH213910   6.816   0.400   4.124
 4649TIP3    H113911   6.805   0.311   4.091
 4649TIP3    H213912   6.816   0.455   4.046
 4650TIP3   OH213913   4.065   0.625   5.794
 4650TIP3    H113914   4.024   0.656   5.713
 4650TIP3    H213915   4.024   0.678   5.863
 4651TIP3   OH213916   4.302   6.317   2.324
 4651TIP3    H113917   4.264   6.336   2.410
 4651TIP3    H213918   4.384   6.271   2.344
 4652TIP3   OH213919   2.322   4.888   0.662
 4652TIP3    H113920   2.375   4.937   0.600
 4652TIP3    H213921   2.295   4.810   0.613
 4653TIP3   OH213922   0.812   4.439   4.801
 4653TIP3    H113923   0.723   4.444   4.835
 4653TIP3    H213924   0.805   4.466   4.710
 4654TIP3   OH213925   4.212   1.122   5.395
 4654TIP3    H113926   4.174   1.047   5.439
 4654TIP3    H213927   4.137   1.176   5.369
 4655TIP3   OH213928   2.369   5.558   2.398
 4655TIP3    H113929   2.369   5.471   2.440
 4655TIP3    H213930   2.357   5.619   2.471
 4656TIP3   OH213931   6.640   0.046   5.544
 4656TIP3    H113932   6.593  -0.001   5.613
 4656TIP3    H213933   6.572   0.097   5.499
 4657TIP3   OH213934   0.899   5.122   3.484
 4657TIP3    H113935   0.820   5.157   3.526
 4657TIP3    H213936   0.911   5.036   3.524
 4658TIP3   OH213937   0.723   4.477   5.092
 4658TIP3    H113938   0.668   4.398   5.086
 4658TIP3    H213939   0.722   4.499   5.185
 4659TIP3   OH213940   3.047   0.415   0.962
 4659TIP3    H113941   3.011   0.374   1.041
 4659TIP3    H213942   3.033   0.350   0.893
 4660TIP3   OH213943   5.532   1.041   4.429
 4660TIP3    H113944   5.474   1.024   4.356
 4660TIP3    H213945   5.497   0.989   4.501
 4661TIP3   OH213946   6.770   1.211   2.363
 4661TIP3    H113947   6.700   1.272   2.338
 4661TIP3    H213948   6.749   1.130   2.318
 4662TIP3   OH213949   5.021   5.440   1.707
 4662TIP3    H113950   4.988   5.530   1.719
 4662TIP3    H213951   4.971   5.405   1.634
 4663TIP3   OH213952   0.593   1.641   0.277
 4663TIP3    H113953   0.667   1.581   0.270
 4663TIP3    H213954   0.525   1.590   0.321
 4664TIP3   OH213955   4.155   5.412   0.895
 4664TIP3    H113956   4.146   5.495   0.848
 4664TIP3    H213957   4.101   5.423   0.973
 4665TIP3   OH213958   5.381   5.011   2.072
 4665TIP3    H113959   5.442   5.005   1.998
 4665TIP3    H213960   5.362   5.104   2.080
 4666TIP3   OH213961   2.338   0.227   0.331
 4666TIP3    H113962   2.317   0.300   0.389
 4666TIP3    H213963   2.362   0.155   0.390
 4667TIP3   OH213964   5.585   0.727   0.379
 4667TIP3    H113965   5.615   0.736   0.469
 4667TIP3    H213966   5.662   0.747   0.326
 4668TIP3   OH213967   5.790   1.831   2.589
 4668TIP3    H113968   5.880   1.807   2.613
 4668TIP3    H213969   5.754   1.751   2.551
 4669TIP3   OH213970   1.052   4.017   5.873
 4669TIP3    H113971   0.984   4.049   5.815
 4669TIP3    H213972   1.134   4.042   5.831
 4670TIP3   OH213973   6.161   2.555   2.766
 4670TIP3    H113974   6.231   2.559   2.830
 4670TIP3    H213975   6.111   2.635   2.779
 4671TIP3   OH213976   0.203   2.617   0.439
 4671TIP3    H113977   0.260   2.558   0.390
 4671TIP3    H213978   0.173   2.567   0.514
 4672TIP3   OH213979   1.658   3.118   2.028
 4672TIP3    H113980   1.627   3.162   1.949
 4672TIP3    H213981   1.748   3.149   2.040
 4673TIP3   OH213982   0.316   1.650   3.925
 4673TIP3    H113983   0.324   1.604   4.009
 4673TIP3    H213984   0.373   1.600   3.866
 4674TIP3   OH213985   1.268   3.315   3.445
 4674TIP3    H113986   1.289   3.258   3.372
 4674TIP3    H213987   1.309   3.399   3.424
 4675TIP3   OH213988   4.310   4.181   0.862
 4675TIP3    H113989   4.373   4.210   0.928
 4675TIP3    H213990   4.267   4.261   0.832
 4676TIP3   OH213991   0.058   0.033   4.460
 4676TIP3    H113992   0.080   0.090   4.534
 4676TIP3    H213993   0.004  -0.036   4.499
 4677TIP3   OH213994   4.224   1.376   4.001
 4677TIP3    H113995   4.261   1.465   3.997
 4677TIP3    H213996   4.216   1.349   3.909
 4678TIP3   OH213997   4.096   2.104   0.965
 4678TIP3    H113998   4.097   2.072   0.875
 4678TIP3    H213999   4.171   2.164   0.970
 4679TIP3   OH214000   3.315   1.072   0.341
 4679TIP3    H114001   3.270   1.140   0.291
 4679TIP3    H214002   3.266   1.065   0.422
 4680TIP3   OH214003   6.495   4.875   3.127
 4680TIP3    H114004   6.435   4.903   3.058
 4680TIP3    H214005   6.569   4.935   3.121
 4681TIP3   OH214006   2.538   5.407   5.330
 4681TIP3    H114007   2.605   5.402   5.399
 4681TIP3    H214008   2.507   5.317   5.320
 4682TIP3   OH214009   1.620   3.860   4.909
 4682TIP3    H114010   1.595   3.784   4.856
 4682TIP3    H214011   1.622   3.933   4.847
 4683TIP3   OH214012   3.196   6.691   0.030
 4683TIP3    H114013   3.150   6.678  -0.052
 4683TIP3    H214014   3.138   6.748   0.081
 4684TIP3   OH214015   6.562   0.674   4.959
 4684TIP3    H114016   6.640   0.619   4.953
 4684TIP3    H214017   6.491   0.620   4.926
 4685TIP3   OH214018   1.809   2.072   0.243
 4685TIP3    H114019   1.821   1.994   0.188
 4685TIP3    H214020   1.743   2.124   0.196
 4686TIP3   OH214021   4.328   3.985   3.272
 4686TIP3    H114022   4.348   4.032   3.191
 4686TIP3    H214023   4.254   4.032   3.310
 4687TIP3   OH214024   3.938   3.936   4.362
 4687TIP3    H114025   4.021   3.965   4.325
 4687TIP3    H214026   3.916   4.001   4.428
 4688TIP3   OH214027   7.038   1.157   1.257
 4688TIP3    H114028   7.126   1.130   1.284
 4688TIP3    H214029   6.993   1.174   1.339
 4689TIP3   OH214030   1.466   5.589   1.228
 4689TIP3    H114031   1.406   5.536   1.175
 4689TIP3    H214032   1.527   5.627   1.164
 4690TIP3   OH214033   3.822   0.886   5.431
 4690TIP3    H114034   3.736   0.851   5.407
 4690TIP3    H214035   3.863   0.817   5.483
 4691TIP3   OH214036   7.045   6.364   2.893
 4691TIP3    H114037   7.092   6.285   2.868
 4691TIP3    H214038   7.034   6.356   2.988
 4692TIP3   OH214039   6.200   1.703   0.153
 4692TIP3    H114040   6.224   1.706   0.060
 4692TIP3    H214041   6.122   1.759   0.158
 4693TIP3   OH214042   0.360   0.253   0.043
 4693TIP3    H114043   0.290   0.228   0.103
 4693TIP3    H214044   0.314   0.276  -0.038
 4694TIP3   OH214045   4.163   3.585   2.324
 4694TIP3    H114046   4.163   3.622   2.412
 4694TIP3    H214047   4.117   3.502   2.332
 4695TIP3   OH214048   2.354   5.778   3.898
 4695TIP3    H114049   2.367   5.712   3.966
 4695TIP3    H214050   2.306   5.733   3.829
 4696TIP3   OH214051   1.891   2.917   1.719
 4696TIP3    H114052   1.914   2.879   1.634
 4696TIP3    H214053   1.796   2.926   1.716
 4697TIP3   OH214054   2.812   5.507   4.544
 4697TIP3    H114055   2.826   5.584   4.489
 4697TIP3    H214056   2.729   5.471   4.514
 4698TIP3   OH214057   6.688   5.157   4.702
 4698TIP3    H114058   6.667   5.095   4.772
 4698TIP3    H214059   6.721   5.234   4.749
 4699TIP3   OH214060   2.529   4.705   0.041
 4699TIP3    H114061   2.445   4.700   0.086
 4699TIP3    H214062   2.508   4.736  -0.047
 4700TIP3   OH214063   0.956   5.091   0.892
 4700TIP3    H114064   0.959   4.996   0.877
 4700TIP3    H214065   0.908   5.126   0.817
 4701TIP3   OH214066   0.365   3.910   4.492
 4701TIP3    H114067   0.289   3.922   4.549
 4701TIP3    H214068   0.404   3.827   4.521
 4702TIP3   OH214069   4.503   4.524   4.395
 4702TIP3    H114070   4.408   4.511   4.403
 4702TIP3    H214071   4.524   4.489   4.308
 4703TIP3   OH214072   0.862   6.663   2.641
 4703TIP3    H114073   0.895   6.580   2.606
 4703TIP3    H214074   0.799   6.694   2.577
 4704TIP3   OH214075   4.149   4.168   1.183
 4704TIP3    H114076   4.138   4.098   1.247
 4704TIP3    H214077   4.220   4.223   1.217
 4705TIP3   OH214078   6.397   5.629   5.246
 4705TIP3    H114079   6.367   5.700   5.302
 4705TIP3    H214080   6.359   5.550   5.285
 4706TIP3   OH214081   6.422   4.224   0.404
 4706TIP3    H114082   6.338   4.269   0.395
 4706TIP3    H214083   6.423   4.194   0.495
 4707TIP3   OH214084   3.617   0.734   1.888
 4707TIP3    H114085   3.648   0.814   1.932
 4707TIP3    H214086   3.523   0.748   1.877
 4708TIP3   OH214087   2.290   3.750   4.553
 4708TIP3    H114088   2.204   3.776   4.519
 4708TIP3    H214089   2.350   3.765   4.480
 4709TIP3   OH214090   0.304   1.196   3.708
 4709TIP3    H114091   0.225   1.161   3.749
 4709TIP3    H214092   0.369   1.196   3.777
 4710TIP3   OH214093   2.124   3.471   0.089
 4710TIP3    H114094   2.146   3.563   0.106
 4710TIP3    H214095   2.065   3.474   0.014
 4711TIP3   OH214096   6.605   2.492   0.902
 4711TIP3    H114097   6.590   2.587   0.898
 4711TIP3    H214098   6.518   2.454   0.908
 4712TIP3   OH214099   2.544   1.646   4.029
 4712TIP3    H114100   2.494   1.567   4.049
 4712TIP3    H214101   2.514   1.672   3.942
 4713TIP3   OH214102   1.208   6.273   1.813
 4713TIP3    H114103   1.208   6.249   1.720
 4713TIP3    H214104   1.293   6.242   1.845
 4714TIP3   OH214105   3.260   3.045   4.587
 4714TIP3    H114106   3.233   2.954   4.573
 4714TIP3    H214107   3.263   3.055   4.682
 4715TIP3   OH214108   3.934   6.549   2.792
 4715TIP3    H114109   3.884   6.593   2.723
 4715TIP3    H214110   3.937   6.458   2.764
 4716TIP3   OH214111   5.320   1.600   5.395
 4716TIP3    H114112   5.240   1.653   5.401
 4716TIP3    H214113   5.292   1.512   5.421
 4717TIP3   OH214114   2.986   6.108   4.425
 4717TIP3    H114115   3.045   6.160   4.480
 4717TIP3    H214116   3.005   6.137   4.336
 4718TIP3   OH214117   2.337   0.228   1.090
 4718TIP3    H114118   2.282   0.187   1.023
 4718TIP3    H214119   2.301   0.197   1.173
 4719TIP3   OH214120   2.393   5.471   3.276
 4719TIP3    H114121   2.388   5.447   3.183
 4719TIP3    H214122   2.376   5.565   3.278
 4720TIP3   OH214123   1.461   0.554   1.086
 4720TIP3    H114124   1.521   0.566   1.159
 4720TIP3    H214125   1.515   0.565   1.008
 4721TIP3   OH214126   2.752   5.142   4.404
 4721TIP3    H114127   2.662   5.119   4.428
 4721TIP3    H214128   2.744   5.220   4.350
 4722TIP3   OH214129   4.236   0.642   1.271
 4722TIP3    H114130   4.275   0.604   1.192
 4722TIP3    H214131   4.143   0.653   1.249
 4723TIP3   OH214132   6.397   3.811   0.168
 4723TIP3    H114133   6.304   3.830   0.185
 4723TIP3    H214134   6.398   3.719   0.142
 4724TIP3   OH214135   4.502   3.074   5.171
 4724TIP3    H114136   4.492   3.152   5.226
 4724TIP3    H214137   4.592   3.077   5.140
 4725TIP3   OH214138   3.860   4.974   2.245
 4725TIP3    H114139   3.879   4.904   2.182
 4725TIP3    H214140   3.813   4.930   2.316
 4726TIP3   OH214141   2.369   4.846   0.935
 4726TIP3    H114142   2.342   4.841   0.843
 4726TIP3    H214143   2.290   4.825   0.984
 4727TIP3   OH214144   5.813   0.967   3.189
 4727TIP3    H114145   5.722   0.944   3.170
 4727TIP3    H214146   5.807   1.046   3.242
 4728TIP3   OH214147   4.858   6.007   3.236
 4728TIP3    H114148   4.903   5.924   3.217
 4728TIP3    H214149   4.766   5.989   3.213
 4729TIP3   OH214150   3.928   0.916   2.610
 4729TIP3    H114151   4.001   0.855   2.617
 4729TIP3    H214152   3.893   0.902   2.523
 4730TIP3   OH214153   6.118   4.695   1.521
 4730TIP3    H114154   6.133   4.638   1.445
 4730TIP3    H214155   6.026   4.721   1.513
 4731TIP3   OH214156   5.466   3.424   1.131
 4731TIP3    H114157   5.474   3.443   1.225
 4731TIP3    H214158   5.379   3.387   1.122
 4732TIP3   OH214159   2.972   2.157   4.747
 4732TIP3    H114160   2.903   2.160   4.681
 4732TIP3    H214161   3.053   2.168   4.697
 4733TIP3   OH214162   7.132   4.840   4.083
 4733TIP3    H114163   7.046   4.798   4.082
 4733TIP3    H214164   7.136   4.886   4.167
 4734TIP3   OH214165   6.206   6.577   2.536
 4734TIP3    H114166   6.149   6.501   2.528
 4734TIP3    H214167   6.165   6.632   2.602
 4735TIP3   OH214168   6.093   2.651   2.104
 4735TIP3    H114169   6.184   2.679   2.094
 4735TIP3    H214170   6.066   2.689   2.188
 4736TIP3   OH214171   0.285   1.150   4.211
 4736TIP3    H114172   0.288   1.137   4.306
 4736TIP3    H214173   0.197   1.121   4.186
 4737TIP3   OH214174   4.274   5.939  -0.015
 4737TIP3    H114175   4.354   5.977  -0.052
 4737TIP3    H214176   4.256   5.991   0.063
 4738TIP3   OH214177   6.615   4.354   0.829
 4738TIP3    H114178   6.541   4.331   0.886
 4738TIP3    H214179   6.610   4.449   0.823
 4739TIP3   OH214180   5.575   5.642   2.838
 4739TIP3    H114181   5.481   5.657   2.831
 4739TIP3    H214182   5.583   5.548   2.851
 4740TIP3   OH214183   1.339   5.406   2.783
 4740TIP3    H114184   1.305   5.368   2.702
 4740TIP3    H214185   1.356   5.331   2.839
 4741TIP3   OH214186   3.679   6.181   2.004
 4741TIP3    H114187   3.768   6.212   2.019
 4741TIP3    H214188   3.624   6.257   2.024
 4742TIP3   OH214189   3.913   2.246   5.452
 4742TIP3    H114190   3.886   2.198   5.373
 4742TIP3    H214191   3.919   2.337   5.423
 4743TIP3   OH214192   6.430   2.583   3.582
 4743TIP3    H114193   6.486   2.506   3.593
 4743TIP3    H214194   6.490   2.657   3.595
 4744TIP3   OH214195   3.315   6.527   3.203
 4744TIP3    H114196   3.329   6.435   3.225
 4744TIP3    H214197   3.402   6.560   3.183
 4745TIP3   OH214198   3.952   5.183   3.903
 4745TIP3    H114199   3.932   5.149   3.816
 4745TIP3    H214200   3.872   5.225   3.933
 4746TIP3   OH214201   5.505   3.301   2.933
 4746TIP3    H114202   5.440   3.357   2.975
 4746TIP3    H214203   5.558   3.268   3.005
 4747TIP3   OH214204   6.580   1.711   5.322
 4747TIP3    H114205   6.643   1.656   5.275
 4747TIP3    H214206   6.612   1.712   5.412
 4748TIP3   OH214207  -0.013   6.652   2.167
 4748TIP3    H114208   0.059   6.672   2.107
 4748TIP3    H214209   0.005   6.703   2.245
 4749TIP3   OH214210   0.148   3.666   0.847
 4749TIP3    H114211   0.203   3.589   0.831
 4749TIP3    H214212   0.059   3.633   0.844
 4750TIP3   OH214213   7.191   0.573   2.362
 4750TIP3    H114214   7.106   0.585   2.318
 4750TIP3    H214215   7.255   0.572   2.291
 4751TIP3   OH214216   6.364   1.245   4.178
 4751TIP3    H114217   6.400   1.179   4.238
 4751TIP3    H214218   6.440   1.280   4.132
 4752TIP3   OH214219   4.712   4.840   1.197
 4752TIP3    H114220   4.774   4.804   1.133
 4752TIP3    H214221   4.680   4.921   1.156
 4753TIP3   OH214222   0.944   6.094   4.545
 4753TIP3    H114223   0.960   6.063   4.634
 4753TIP3    H214224   0.888   6.171   4.556
 4754TIP3   OH214225   2.660   1.879   4.058
 4754TIP3    H114226   2.602   1.924   3.997
 4754TIP3    H214227   2.628   1.789   4.060
 4755TIP3   OH214228   3.237   4.508   0.796
 4755TIP3    H114229   3.330   4.525   0.784
 4755TIP3    H214230   3.204   4.587   0.839
 4756TIP3   OH214231   1.918   5.423   3.912
 4756TIP3    H114232   1.929   5.334   3.947
 4756TIP3    H214233   1.937   5.480   3.987
 4757TIP3   OH214234   0.853   6.124   2.119
 4757TIP3    H114235   0.879   6.093   2.032
 4757TIP3    H214236   0.811   6.049   2.159
 4758TIP3   OH214237   2.115   2.662   0.910
 4758TIP3    H114238   2.021   2.660   0.890
 4758TIP3    H214239   2.119   2.677   1.004
 4759TIP3   OH214240   4.053   2.151   2.895
 4759TIP3    H114241   4.034   2.207   2.819
 4759TIP3    H214242   4.126   2.095   2.866
 4760TIP3   OH214243   1.110   1.850   5.258
 4760TIP3    H114244   1.175   1.782   5.277
 4760TIP3    H214245   1.159   1.914   5.206
 4761TIP3   OH214246   5.377   1.022   4.849
 4761TIP3    H114247   5.449   1.017   4.911
 4761TIP3    H214248   5.298   1.005   4.901
 4762TIP3   OH214249   6.399   2.731   2.434
 4762TIP3    H114250   6.375   2.727   2.527
 4762TIP3    H214251   6.491   2.703   2.432
 4763TIP3   OH214252   4.756   4.940   0.194
 4763TIP3    H114253   4.792   5.006   0.135
 4763TIP3    H214254   4.688   4.986   0.244
 4764TIP3   OH214255   5.961   5.433   2.847
 4764TIP3    H114256   5.977   5.347   2.885
 4764TIP3    H214257   5.911   5.415   2.767
 4765TIP3   OH214258   5.016   1.463   4.712
 4765TIP3    H114259   5.061   1.416   4.782
 4765TIP3    H214260   5.084   1.483   4.648
 4766TIP3   OH214261   4.121   4.003   0.969
 4766TIP3    H114262   4.165   4.056   0.902
 4766TIP3    H214263   4.100   4.066   1.038
 4767TIP3   OH214264   4.657   6.033   5.260
 4767TIP3    H114265   4.744   6.061   5.233
 4767TIP3    H214266   4.669   5.943   5.290
 4768TIP3   OH214267   4.316   6.590   1.441
 4768TIP3    H114268   4.239   6.632   1.480
 4768TIP3    H214269   4.366   6.559   1.516
 4769TIP3   OH214270   0.527   6.585   3.843
 4769TIP3    H114271   0.575   6.660   3.809
 4769TIP3    H214272   0.558   6.575   3.933
 4770TIP3   OH214273   2.787   1.576   1.375
 4770TIP3    H114274   2.738   1.497   1.353
 4770TIP3    H214275   2.758   1.641   1.310
 4771TIP3   OH214276   5.243   1.635   4.480
 4771TIP3    H114277   5.200   1.657   4.397
 4771TIP3    H214278   5.251   1.540   4.479
 4772TIP3   OH214279   3.100   5.946   4.817
 4772TIP3    H114280   3.153   5.902   4.883
 4772TIP3    H214281   3.138   6.033   4.810
 4773TIP3   OH214282   3.840   2.552   1.714
 4773TIP3    H114283   3.917   2.608   1.722
 4773TIP3    H214284   3.863   2.490   1.644
 4774TIP3   OH214285   5.757   4.122   0.859
 4774TIP3    H114286   5.670   4.150   0.887
 4774TIP3    H214287   5.802   4.101   0.940
 4775TIP3   OH214288   0.213   0.135   0.971
 4775TIP3    H114289   0.218   0.207   1.033
 4775TIP3    H214290   0.304   0.115   0.949
 4776TIP3   OH214291   6.424   1.509   1.533
 4776TIP3    H114292   6.348   1.480   1.583
 4776TIP3    H214293   6.495   1.511   1.597
 4777TIP3   OH214294   2.554   3.362   2.158
 4777TIP3    H114295   2.526   3.448   2.125
 4777TIP3    H214296   2.580   3.379   2.249
 4778TIP3   OH214297   0.146   3.473   5.429
 4778TIP3    H114298   0.111   3.453   5.515
 4778TIP3    H214299   0.202   3.398   5.408
 4779TIP3   OH214300   6.664   6.267   4.814
 4779TIP3    H114301   6.743   6.235   4.859
 4779TIP3    H214302   6.606   6.191   4.811
 4780TIP3   OH214303   4.529   6.594   4.119
 4780TIP3    H114304   4.605   6.559   4.166
 4780TIP3    H214305   4.514   6.680   4.158
 4781TIP3   OH214306   6.774   0.884   1.673
 4781TIP3    H114307   6.785   0.805   1.621
 4781TIP3    H214308   6.735   0.854   1.755
 4782TIP3   OH214309   6.832   6.219   3.068
 4782TIP3    H114310   6.890   6.145   3.084
 4782TIP3    H214311   6.883   6.296   3.093
 4783TIP3   OH214312   4.442   4.231   1.630
 4783TIP3    H114313   4.448   4.302   1.566
 4783TIP3    H214314   4.528   4.230   1.672
 4784TIP3   OH214315   1.187   4.503   1.321
 4784TIP3    H114316   1.226   4.435   1.265
 4784TIP3    H214317   1.198   4.584   1.271
 4785TIP3   OH214318   0.137   1.232   2.382
 4785TIP3    H114319   0.048   1.246   2.412
 4785TIP3    H214320   0.191   1.245   2.460
 4786TIP3   OH214321   0.397   4.778   5.859
 4786TIP3    H114322   0.413   4.747   5.949
 4786TIP3    H214323   0.465   4.737   5.807
 4787TIP3   OH214324   4.329   0.561   5.856
 4787TIP3    H114325   4.240   0.589   5.835
 4787TIP3    H214326   4.376   0.642   5.876
 4788TIP3   OH214327   7.087   5.015   0.397
 4788TIP3    H114328   7.100   5.082   0.330
 4788TIP3    H214329   7.092   4.932   0.349
 4789TIP3   OH214330   4.191   0.287   4.140
 4789TIP3    H114331   4.267   0.333   4.105
 4789TIP3    H214332   4.138   0.267   4.062
 4790TIP3   OH214333   6.359   2.422   5.716
 4790TIP3    H114334   6.304   2.458   5.785
 4790TIP3    H214335   6.316   2.340   5.692
 4791TIP3   OH214336   5.021   3.507   4.962
 4791TIP3    H114337   5.043   3.598   4.983
 4791TIP3    H214338   5.077   3.455   5.019
 4792TIP3   OH214339   6.009   1.735   2.274
 4792TIP3    H114340   5.924   1.713   2.236
 4792TIP3    H214341   6.054   1.651   2.282
 4793TIP3   OH214342   4.644   2.142   2.537
 4793TIP3    H114343   4.707   2.111   2.473
 4793TIP3    H214344   4.561   2.145   2.490
 4794TIP3   OH214345   2.217   5.367   3.467
 4794TIP3    H114346   2.280   5.322   3.524
 4794TIP3    H214347   2.271   5.427   3.414
 4795TIP3   OH214348   6.958   1.851   0.974
 4795TIP3    H114349   6.981   1.913   1.042
 4795TIP3    H214350   6.928   1.905   0.901
 4796TIP3   OH214351   5.783   0.297   1.583
 4796TIP3    H114352   5.757   0.384   1.552
 4796TIP3    H214353   5.705   0.243   1.572
 4797TIP3   OH214354   2.388   6.726   2.092
 4797TIP3    H114355   2.443   6.766   2.160
 4797TIP3    H214356   2.440   6.651   2.062
 4798TIP3   OH214357   0.639   2.254   0.927
 4798TIP3    H114358   0.588   2.333   0.911
 4798TIP3    H214359   0.573   2.185   0.939
 4799TIP3   OH214360   6.956   1.977   3.977
 4799TIP3    H114361   6.965   1.884   3.996
 4799TIP3    H214362   6.993   2.021   4.054
 4800TIP3   OH214363   6.663   0.692   5.214
 4800TIP3    H114364   6.627   0.729   5.134
 4800TIP3    H214365   6.749   0.732   5.223
 4801TIP3   OH214366   3.734   5.262   3.494
 4801TIP3    H114367   3.812   5.229   3.540
 4801TIP3    H214368   3.668   5.195   3.508
 4802TIP3   OH214369   3.994   1.849   4.971
 4802TIP3    H114370   4.003   1.865   4.877
 4802TIP3    H214371   4.070   1.892   5.010
 4803TIP3   OH214372   6.487   4.523   1.421
 4803TIP3    H114373   6.393   4.507   1.416
 4803TIP3    H214374   6.520   4.501   1.334
 4804TIP3   OH214375   0.467   0.101   3.653
 4804TIP3    H114376   0.418   0.184   3.653
 4804TIP3    H214377   0.467   0.073   3.561
 4805TIP3   OH214378   3.383   6.050   4.581
 4805TIP3    H114379   3.433   6.065   4.500
 4805TIP3    H214380   3.442   6.080   4.651
 4806TIP3   OH214381   6.380   5.241   2.059
 4806TIP3    H114382   6.475   5.237   2.064
 4806TIP3    H214383   6.351   5.230   2.150
 4807TIP3   OH214384   4.082   1.976   3.564
 4807TIP3    H114385   4.026   1.959   3.488
 4807TIP3    H214386   4.127   2.058   3.542
 4808TIP3   OH214387   6.486   5.238   0.641
 4808TIP3    H114388   6.580   5.227   0.622
 4808TIP3    H214389   6.474   5.196   0.726
 4809TIP3   OH214390   4.411   2.239   2.827
 4809TIP3    H114391   4.365   2.289   2.759
 4809TIP3    H214392   4.443   2.306   2.887
 4810TIP3   OH214393   2.796   6.581   4.546
 4810TIP3    H114394   2.851   6.507   4.572
 4810TIP3    H214395   2.716   6.540   4.513
 4811TIP3   OH214396   3.688   2.493   1.402
 4811TIP3    H114397   3.620   2.460   1.343
 4811TIP3    H214398   3.687   2.432   1.475
 4812TIP3   OH214399   0.119   1.755   5.071
 4812TIP3    H114400   0.125   1.770   5.165
 4812TIP3    H214401   0.196   1.702   5.049
 4813TIP3   OH214402   4.553   4.297   0.977
 4813TIP3    H114403   4.624   4.294   0.914
 4813TIP3    H214404   4.591   4.339   1.054
 4814TIP3   OH214405   6.985   6.411   3.191
 4814TIP3    H114406   7.014   6.502   3.198
 4814TIP3    H214407   7.036   6.365   3.257
 4815TIP3   OH214408   6.827   0.551   4.368
 4815TIP3    H114409   6.876   0.495   4.429
 4815TIP3    H214410   6.809   0.494   4.293
 4816TIP3   OH214411   4.387   0.784   0.470
 4816TIP3    H114412   4.398   0.843   0.545
 4816TIP3    H214413   4.410   0.838   0.394
 4817TIP3   OH214414   4.767   4.956   4.376
 4817TIP3    H114415   4.779   4.872   4.420
 4817TIP3    H214416   4.827   4.954   4.302
 4818TIP3   OH214417   0.051   6.203   2.814
 4818TIP3    H114418   0.066   6.165   2.727
 4818TIP3    H214419   0.113   6.275   2.820
 4819TIP3   OH214420   5.692   2.028   0.129
 4819TIP3    H114421   5.715   1.937   0.108
 4819TIP3    H214422   5.610   2.020   0.178
 4820TIP3   OH214423   5.699   2.394   3.564
 4820TIP3    H114424   5.729   2.454   3.496
 4820TIP3    H214425   5.779   2.356   3.600
 4821TIP3   OH214426   1.802   1.293   1.771
 4821TIP3    H114427   1.727   1.351   1.758
 4821TIP3    H214428   1.764   1.208   1.794
 4822TIP3   OH214429   1.929   4.074   1.727
 4822TIP3    H114430   1.923   3.988   1.769
 4822TIP3    H214431   1.876   4.066   1.648
 4823TIP3   OH214432   4.546   5.848   4.836
 4823TIP3    H114433   4.461   5.831   4.875
 4823TIP3    H214434   4.528   5.907   4.763
 4824TIP3   OH214435   1.148   0.149   2.645
 4824TIP3    H114436   1.196   0.213   2.592
 4824TIP3    H214437   1.202   0.070   2.642
 4825TIP3   OH214438   1.799   5.559   2.878
 4825TIP3    H114439   1.834   5.497   2.942
 4825TIP3    H214440   1.832   5.527   2.794
 4826TIP3   OH214441   2.966   3.119   3.322
 4826TIP3    H114442   3.043   3.166   3.289
 4826TIP3    H214443   2.964   3.140   3.416
 4827TIP3   OH214444   3.741   6.575   0.247
 4827TIP3    H114445   3.768   6.511   0.312
 4827TIP3    H214446   3.814   6.637   0.242
 4828TIP3   OH214447   4.360   6.433   3.801
 4828TIP3    H114448   4.415   6.510   3.809
 4828TIP3    H214449   4.288   6.460   3.744
 4829TIP3   OH214450   4.390   2.922   5.840
 4829TIP3    H114451   4.385   2.874   5.923
 4829TIP3    H214452   4.351   3.007   5.860
 4830TIP3   OH214453   1.419   2.140   4.314
 4830TIP3    H114454   1.433   2.070   4.249
 4830TIP3    H214455   1.505   2.155   4.353
 4831TIP3   OH214456   6.524   4.636   3.269
 4831TIP3    H114457   6.522   4.732   3.270
 4831TIP3    H214458   6.510   4.611   3.360
 4832TIP3   OH214459   1.361   4.842   5.801
 4832TIP3    H114460   1.428   4.773   5.802
 4832TIP3    H214461   1.410   4.922   5.783
 4833TIP3   OH214462   4.057   1.608   5.155
 4833TIP3    H114463   4.106   1.547   5.101
 4833TIP3    H214464   4.062   1.691   5.108
 4834TIP3   OH214465   0.238   1.002   5.569
 4834TIP3    H114466   0.157   1.022   5.522
 4834TIP3    H214467   0.270   1.086   5.600
 4835TIP3   OH214468   1.351   4.662   4.244
 4835TIP3    H114469   1.268   4.628   4.211
 4835TIP3    H214470   1.414   4.642   4.176
 4836TIP3   OH214471   0.799   2.288   5.254
 4836TIP3    H114472   0.779   2.203   5.214
 4836TIP3    H214473   0.734   2.348   5.217
 4837TIP3   OH214474   1.430   5.571   4.716
 4837TIP3    H114475   1.346   5.526   4.707
 4837TIP3    H214476   1.479   5.546   4.638
 4838TIP3   OH214477   3.028   0.115   2.700
 4838TIP3    H114478   2.968   0.088   2.770
 4838TIP3    H214479   2.978   0.107   2.620
 4839TIP3   OH214480   5.699   4.137   5.220
 4839TIP3    H114481   5.643   4.060   5.235
 4839TIP3    H214482   5.772   4.103   5.168
 4840TIP3   OH214483   0.835   1.786   5.487
 4840TIP3    H114484   0.814   1.791   5.580
 4840TIP3    H214485   0.846   1.877   5.459
 4841TIP3   OH214486   5.316   1.216   0.619
 4841TIP3    H114487   5.411   1.222   0.629
 4841TIP3    H214488   5.303   1.182   0.530
 4842TIP3   OH214489   0.168   4.152   4.686
 4842TIP3    H114490   0.104   4.095   4.644
 4842TIP3    H214491   0.242   4.095   4.706
 4843TIP3   OH214492   4.393   5.998   0.571
 4843TIP3    H114493   4.442   5.984   0.652
 4843TIP3    H214494   4.455   5.977   0.501
 4844TIP3   OH214495   0.845   4.857   3.257
 4844TIP3    H114496   0.804   4.911   3.190
 4844TIP3    H214497   0.917   4.910   3.290
 4845TIP3   OH214498   1.508   3.879   1.449
 4845TIP3    H114499   1.467   3.848   1.368
 4845TIP3    H214500   1.501   3.975   1.445
 4846TIP3   OH214501   5.472   3.412   1.401
 4846TIP3    H114502   5.485   3.501   1.431
 4846TIP3    H214503   5.515   3.358   1.467
 4847TIP3   OH214504   4.684   0.887   2.562
 4847TIP3    H114505   4.603   0.933   2.582
 4847TIP3    H214506   4.728   0.944   2.498
 4848TIP3   OH214507   3.801   5.248   0.901
 4848TIP3    H114508   3.743   5.244   0.825
 4848TIP3    H214509   3.799   5.340   0.927
 4849TIP3   OH214510   1.695   1.864   5.240
 4849TIP3    H114511   1.609   1.893   5.270
 4849TIP3    H214512   1.740   1.944   5.214
 4850TIP3   OH214513   0.488   0.205   4.318
 4850TIP3    H114514   0.398   0.219   4.349
 4850TIP3    H214515   0.478   0.164   4.232
 4851TIP3   OH214516   0.457   0.883   1.975
 4851TIP3    H114517   0.430   0.798   1.940
 4851TIP3    H214518   0.522   0.916   1.912
 4852TIP3   OH214519   1.421   4.634   0.935
 4852TIP3    H114520   1.353   4.666   0.875
 4852TIP3    H214521   1.457   4.557   0.892
 4853TIP3   OH214522   2.175   0.228   1.329
 4853TIP3    H114523   2.139   0.174   1.399
 4853TIP3    H214524   2.115   0.303   1.322
 4854TIP3   OH214525   6.650   4.411   3.738
 4854TIP3    H114526   6.696   4.328   3.753
 4854TIP3    H214527   6.558   4.388   3.741
 4855TIP3   OH214528   1.908   0.685   0.921
 4855TIP3    H114529   1.813   0.683   0.935
 4855TIP3    H214530   1.919   0.728   0.836
 4856TIP3   OH214531   3.832   4.425   2.354
 4856TIP3    H114532   3.803   4.420   2.445
 4856TIP3    H214533   3.768   4.482   2.312
 4857TIP3   OH214534   1.900   4.576   4.087
 4857TIP3    H114535   1.940   4.514   4.026
 4857TIP3    H214536   1.852   4.637   4.032
 4858TIP3   OH214537   6.519   0.604   0.481
 4858TIP3    H114538   6.552   0.520   0.453
 4858TIP3    H214539   6.433   0.585   0.520
 4859TIP3   OH214540   7.225   5.880   0.738
 4859TIP3    H114541   7.139   5.921   0.734
 4859TIP3    H214542   7.209   5.792   0.774
 4860TIP3   OH214543   2.133   3.170   1.833
 4860TIP3    H114544   2.076   3.145   1.906
 4860TIP3    H214545   2.177   3.249   1.862
 4861TIP3   OH214546   5.675   2.866   2.445
 4861TIP3    H114547   5.595   2.904   2.409
 4861TIP3    H214548   5.657   2.856   2.539
 4862TIP3   OH214549   5.432   0.145   2.620
 4862TIP3    H114550   5.522   0.153   2.650
 4862TIP3    H214551   5.379   0.185   2.689
 4863TIP3   OH214552   2.728   1.540   1.027
 4863TIP3    H114553   2.694   1.618   1.070
 4863TIP3    H214554   2.820   1.537   1.052
 4864TIP3   OH214555   4.775   3.354   5.257
 4864TIP3    H114556   4.694   3.400   5.275
 4864TIP3    H214557   4.843   3.407   5.298
 4865TIP3   OH214558   4.946   2.491   0.161
 4865TIP3    H114559   5.003   2.506   0.237
 4865TIP3    H214560   4.902   2.408   0.180
 4866TIP3   OH214561   0.460   2.647   3.629
 4866TIP3    H114562   0.423   2.667   3.543
 4866TIP3    H214563   0.466   2.551   3.631
 4867TIP3   OH214564   2.096   4.054   3.746
 4867TIP3    H114565   2.171   4.018   3.794
 4867TIP3    H214566   2.114   4.034   3.654
 4868TIP3   OH214567   3.708   5.214   4.622
 4868TIP3    H114568   3.638   5.155   4.650
 4868TIP3    H214569   3.695   5.223   4.527
 4869TIP3   OH214570   3.383   5.557   1.154
 4869TIP3    H114571   3.363   5.627   1.092
 4869TIP3    H214572   3.332   5.482   1.123
 4870TIP3   OH214573   2.377   6.219   0.097
 4870TIP3    H114574   2.426   6.138   0.108
 4870TIP3    H214575   2.414   6.279   0.162
 4871TIP3   OH214576   0.990   0.473   4.158
 4871TIP3    H114577   1.024   0.402   4.103
 4871TIP3    H214578   1.054   0.482   4.228
 4872TIP3   OH214579   1.898   1.263   3.143
 4872TIP3    H114580   1.881   1.182   3.192
 4872TIP3    H214581   1.992   1.265   3.131
 4873TIP3   OH214582   5.259   4.554   4.785
 4873TIP3    H114583   5.278   4.489   4.852
 4873TIP3    H214584   5.274   4.509   4.702
 4874TIP3   OH214585   5.794   6.300   1.719
 4874TIP3    H114586   5.802   6.345   1.634
 4874TIP3    H214587   5.721   6.239   1.706
 4875TIP3   OH214588   1.363   6.828   5.611
 4875TIP3    H114589   1.398   6.775   5.539
 4875TIP3    H214590   1.440   6.867   5.651
 4876TIP3   OH214591   2.988   1.512   1.086
 4876TIP3    H114592   3.016   1.421   1.085
 4876TIP3    H214593   3.047   1.555   1.148
 4877TIP3   OH214594   2.803   4.750   3.123
 4877TIP3    H114595   2.769   4.828   3.080
 4877TIP3    H214596   2.800   4.681   3.057
 4878TIP3   OH214597   1.434   3.911   1.186
 4878TIP3    H114598   1.409   3.819   1.171
 4878TIP3    H214599   1.363   3.961   1.146
 4879TIP3   OH214600   6.229   4.181   2.365
 4879TIP3    H114601   6.251   4.091   2.338
 4879TIP3    H214602   6.222   4.176   2.460
 4880TIP3   OH214603   1.300   2.666   5.025
 4880TIP3    H114604   1.393   2.677   5.044
 4880TIP3    H214605   1.296   2.653   4.930
 4881TIP3   OH214606   4.846   0.817   4.549
 4881TIP3    H114607   4.836   0.786   4.458
 4881TIP3    H214608   4.787   0.891   4.556
 4882TIP3   OH214609   4.269   1.477   5.702
 4882TIP3    H114610   4.321   1.409   5.660
 4882TIP3    H214611   4.259   1.544   5.634
 4883TIP3   OH214612   6.919   6.651   2.224
 4883TIP3    H114613   6.910   6.741   2.255
 4883TIP3    H214614   7.013   6.642   2.205
 4884TIP3   OH214615   5.950   4.533   0.059
 4884TIP3    H114616   5.966   4.626   0.043
 4884TIP3    H214617   5.972   4.491  -0.025
 4885TIP3   OH214618   6.044   5.688   0.211
 4885TIP3    H114619   6.044   5.595   0.235
 4885TIP3    H214620   6.090   5.731   0.283
 4886TIP3   OH214621   2.576   2.268   2.551
 4886TIP3    H114622   2.619   2.321   2.618
 4886TIP3    H214623   2.526   2.330   2.499
 4887TIP3   OH214624   2.527   2.760   2.277
 4887TIP3    H114625   2.533   2.847   2.238
 4887TIP3    H214626   2.433   2.739   2.272
 4888TIP3   OH214627   2.646   2.771   5.267
 4888TIP3    H114628   2.694   2.694   5.300
 4888TIP3    H214629   2.622   2.747   5.178
 4889TIP3   OH214630   6.077   1.489   0.268
 4889TIP3    H114631   6.121   1.564   0.228
 4889TIP3    H214632   6.116   1.413   0.225
 4890TIP3   OH214633   1.814   6.363   4.830
 4890TIP3    H114634   1.816   6.431   4.896
 4890TIP3    H214635   1.741   6.387   4.773
 4891TIP3   OH214636   4.202   2.710   4.854
 4891TIP3    H114637   4.146   2.769   4.803
 4891TIP3    H214638   4.140   2.651   4.898
 4892TIP3   OH214639   6.221   1.006   0.088
 4892TIP3    H114640   6.302   0.998   0.138
 4892TIP3    H214641   6.219   1.098   0.059
 4893TIP3   OH214642   2.385   5.053   5.564
 4893TIP3    H114643   2.290   5.059   5.553
 4893TIP3    H214644   2.401   4.961   5.585
 4894TIP3   OH214645   4.918   0.765   5.238
 4894TIP3    H114646   4.884   0.688   5.285
 4894TIP3    H214647   5.002   0.783   5.280
 4895TIP3   OH214648   4.371   5.785   1.565
 4895TIP3    H114649   4.415   5.859   1.606
 4895TIP3    H214650   4.281   5.814   1.553
 4896TIP3   OH214651   4.505   5.934   0.815
 4896TIP3    H114652   4.414   5.961   0.820
 4896TIP3    H214653   4.551   5.991   0.877
 4897TIP3   OH214654   5.122   0.723   0.634
 4897TIP3    H114655   5.175   0.645   0.650
 4897TIP3    H214656   5.063   0.728   0.709
 4898TIP3   OH214657   3.885   5.481   1.632
 4898TIP3    H114658   3.802   5.469   1.586
 4898TIP3    H214659   3.923   5.394   1.637
 4899TIP3   OH214660   1.018   6.782   0.650
 4899TIP3    H114661   1.059   6.695   0.652
 4899TIP3    H214662   0.925   6.765   0.665
 4900TIP3   OH214663   6.450   2.976   4.090
 4900TIP3    H114664   6.485   2.997   4.003
 4900TIP3    H214665   6.421   2.885   4.083
 4901TIP3   OH214666   4.471   3.218   4.338
 4901TIP3    H114667   4.390   3.229   4.388
 4901TIP3    H214668   4.449   3.153   4.271
 4902TIP3   OH214669   3.239   4.640   5.056
 4902TIP3    H114670   3.180   4.605   4.989
 4902TIP3    H214671   3.289   4.564   5.085
 4903TIP3   OH214672   3.701   3.341   5.212
 4903TIP3    H114673   3.630   3.388   5.255
 4903TIP3    H214674   3.755   3.410   5.172
 4904TIP3   OH214675   6.384   3.181   2.410
 4904TIP3    H114676   6.438   3.168   2.332
 4904TIP3    H214677   6.418   3.116   2.473
 4905TIP3   OH214678   0.325   6.144   1.275
 4905TIP3    H114679   0.346   6.199   1.200
 4905TIP3    H214680   0.364   6.059   1.255
 4906TIP3   OH214681   1.988   2.134   3.503
 4906TIP3    H114682   1.928   2.067   3.535
 4906TIP3    H214683   2.067   2.122   3.556
 4907TIP3   OH214684   0.313   2.247   3.291
 4907TIP3    H114685   0.248   2.217   3.227
 4907TIP3    H214686   0.265   2.251   3.374
 4908TIP3   OH214687   2.940   3.469   4.231
 4908TIP3    H114688   2.917   3.424   4.312
 4908TIP3    H214689   2.979   3.401   4.175
 4909TIP3   OH214690   4.661   5.218   0.991
 4909TIP3    H114691   4.711   5.232   1.071
 4909TIP3    H214692   4.571   5.241   1.014
 4910TIP3   OH214693   2.223   0.339   0.718
 4910TIP3    H114694   2.250   0.366   0.806
 4910TIP3    H214695   2.244   0.246   0.714
 4911TIP3   OH214696   6.637   1.798   1.520
 4911TIP3    H114697   6.653   1.719   1.572
 4911TIP3    H214698   6.716   1.850   1.531
 4912TIP3   OH214699   1.277   4.855   3.431
 4912TIP3    H114700   1.341   4.793   3.397
 4912TIP3    H214701   1.234   4.810   3.503
 4913TIP3   OH214702   0.929   5.058   5.276
 4913TIP3    H114703   0.894   5.085   5.361
 4913TIP3    H214704   1.009   5.010   5.298
 4914TIP3   OH214705   3.145   5.640   2.008
 4914TIP3    H114706   3.165   5.716   1.953
 4914TIP3    H214707   3.060   5.610   1.976
 4915TIP3   OH214708   7.089   2.267   4.375
 4915TIP3    H114709   7.094   2.361   4.390
 4915TIP3    H214710   7.091   2.258   4.279
 4916TIP3   OH214711   5.716   5.774   2.471
 4916TIP3    H114712   5.650   5.710   2.443
 4916TIP3    H214713   5.666   5.854   2.486
 4917TIP3   OH214714   3.082   5.418   1.705
 4917TIP3    H114715   3.175   5.417   1.730
 4917TIP3    H214716   3.038   5.459   1.779
 4918TIP3   OH214717   4.361   0.749   5.624
 4918TIP3    H114718   4.360   0.667   5.574
 4918TIP3    H214719   4.409   0.728   5.704
 4919TIP3   OH214720   7.094   1.234  -0.007
 4919TIP3    H114721   7.098   1.190   0.078
 4919TIP3    H214722   7.000   1.233  -0.029
 4920TIP3   OH214723   6.674   0.111   5.881
 4920TIP3    H114724   6.650   0.043   5.818
 4920TIP3    H214725   6.594   0.123   5.934
 4921TIP3   OH214726   1.106   5.813   4.514
 4921TIP3    H114727   1.144   5.892   4.551
 4921TIP3    H214728   1.096   5.754   4.589
 4922TIP3   OH214729   2.451   4.640   1.097
 4922TIP3    H114730   2.425   4.716   1.045
 4922TIP3    H214731   2.395   4.569   1.064
 4923TIP3   OH214732   6.228   0.946   0.860
 4923TIP3    H114733   6.141   0.975   0.888
 4923TIP3    H214734   6.219   0.931   0.766
 4924TIP3   OH214735   5.244   4.464   2.359
 4924TIP3    H114736   5.202   4.401   2.417
 4924TIP3    H214737   5.180   4.534   2.349
 4925TIP3   OH214738   4.228   1.581   1.274
 4925TIP3    H114739   4.209   1.662   1.322
 4925TIP3    H214740   4.323   1.583   1.261
 4926TIP3   OH214741   0.567   1.038   4.469
 4926TIP3    H114742   0.529   0.978   4.405
 4926TIP3    H214743   0.492   1.085   4.506
 4927TIP3   OH214744   6.090   5.926   2.817
 4927TIP3    H114745   6.088   5.839   2.778
 4927TIP3    H214746   6.001   5.941   2.848
 4928TIP3   OH214747   6.727   1.531   4.762
 4928TIP3    H114748   6.723   1.597   4.832
 4928TIP3    H214749   6.653   1.553   4.705
 4929TIP3   OH214750   6.992   0.940   5.318
 4929TIP3    H114751   6.930   0.934   5.391
 4929TIP3    H214752   6.990   0.854   5.277
 4930TIP3   OH214753   0.619   5.386   3.117
 4930TIP3    H114754   0.632   5.405   3.024
 4930TIP3    H214755   0.573   5.302   3.119
 4931TIP3   OH214756   2.475   4.296   2.985
 4931TIP3    H114757   2.392   4.249   2.985
 4931TIP3    H214758   2.450   4.389   2.985
 4932TIP3   OH214759   3.880   0.040   3.962
 4932TIP3    H114760   3.793   0.068   3.933
 4932TIP3    H214761   3.930   0.122   3.969
 4933TIP3   OH214762   1.296   2.976   5.666
 4933TIP3    H114763   1.247   2.959   5.746
 4933TIP3    H214764   1.388   2.974   5.692
 4934TIP3   OH214765   1.066   6.665   3.264
 4934TIP3    H114766   1.119   6.739   3.292
 4934TIP3    H214767   0.986   6.705   3.227
 4935TIP3   OH214768   5.969   5.208   2.528
 4935TIP3    H114769   6.012   5.124   2.542
 4935TIP3    H214770   6.017   5.270   2.581
 4936TIP3   OH214771   3.343   0.604   5.189
 4936TIP3    H114772   3.369   0.540   5.256
 4936TIP3    H214773   3.380   0.570   5.108
 4937TIP3   OH214774   3.060   1.827   2.643
 4937TIP3    H114775   3.015   1.909   2.622
 4937TIP3    H214776   3.136   1.854   2.694
 4938TIP3   OH214777   5.338   3.320   3.466
 4938TIP3    H114778   5.404   3.293   3.529
 4938TIP3    H214779   5.276   3.373   3.517
 4939TIP3   OH214780   2.903   0.094   0.116
 4939TIP3    H114781   2.919   0.182   0.152
 4939TIP3    H214782   2.990   0.056   0.105
 4940TIP3   OH214783   7.010   0.353   4.474
 4940TIP3    H114784   7.009   0.283   4.539
 4940TIP3    H214785   7.087   0.405   4.496
 4941TIP3   OH214786   0.305   5.792   1.017
 4941TIP3    H114787   0.246   5.780   1.092
 4941TIP3    H214788   0.290   5.714   0.962
 4942TIP3   OH214789   0.596   3.871   4.808
 4942TIP3    H114790   0.669   3.894   4.750
 4942TIP3    H214791   0.633   3.877   4.896
 4943TIP3   OH214792   2.807   5.347   4.205
 4943TIP3    H114793   2.858   5.366   4.126
 4943TIP3    H214794   2.724   5.392   4.191
 4944TIP3   OH214795   6.945   2.959   4.460
 4944TIP3    H114796   6.871   2.923   4.411
 4944TIP3    H214797   7.020   2.907   4.432
 4945TIP3   OH214798   7.009   4.222   2.707
 4945TIP3    H114799   6.949   4.152   2.731
 4945TIP3    H214800   6.993   4.291   2.772
 4946TIP3   OH214801   1.887   4.957   3.564
 4946TIP3    H114802   1.885   5.038   3.513
 4946TIP3    H214803   1.973   4.959   3.607
 4947TIP3   OH214804   5.651   4.926   5.059
 4947TIP3    H114805   5.676   5.015   5.031
 4947TIP3    H214806   5.692   4.916   5.145
 4948TIP3   OH214807   4.392   1.074   5.775
 4948TIP3    H114808   4.338   1.021   5.834
 4948TIP3    H214809   4.466   1.017   5.753
 4949TIP3   OH214810   2.278   0.636   1.252
 4949TIP3    H114811   2.255   0.558   1.304
 4949TIP3    H214812   2.194   0.679   1.236
 4950TIP3   OH214813   4.520   2.857   1.244
 4950TIP3    H114814   4.534   2.813   1.328
 4950TIP3    H214815   4.537   2.788   1.179
 4951TIP3   OH214816   0.477   4.352   5.274
 4951TIP3    H114817   0.424   4.316   5.203
 4951TIP3    H214818   0.560   4.303   5.268
 4952TIP3   OH214819   5.635   3.693   1.025
 4952TIP3    H114820   5.566   3.701   0.959
 4952TIP3    H214821   5.655   3.599   1.028
 4953TIP3   OH214822   5.155   3.136   5.802
 4953TIP3    H114823   5.128   3.046   5.820
 4953TIP3    H214824   5.126   3.186   5.879
 4954TIP3   OH214825   3.700   6.550   4.138
 4954TIP3    H114826   3.703   6.614   4.208
 4954TIP3    H214827   3.616   6.565   4.094
 4955TIP3   OH214828   1.133   1.571   0.855
 4955TIP3    H114829   1.116   1.483   0.888
 4955TIP3    H214830   1.215   1.564   0.806
 4956TIP3   OH214831   2.799   2.004   4.263
 4956TIP3    H114832   2.804   1.934   4.198
 4956TIP3    H214833   2.885   2.047   4.257
 4957TIP3   OH214834   2.356   0.657   2.552
 4957TIP3    H114835   2.270   0.677   2.589
 4957TIP3    H214836   2.417   0.667   2.625
 4958TIP3   OH214837   6.158   3.631   0.102
 4958TIP3    H114838   6.169   3.698   0.034
 4958TIP3    H214839   6.135   3.680   0.180
 4959TIP3   OH214840   2.317   1.815   0.043
 4959TIP3    H114841   2.331   1.736   0.094
 4959TIP3    H214842   2.279   1.784  -0.039
 4960TIP3   OH214843   1.963   0.326   1.157
 4960TIP3    H114844   1.987   0.418   1.167
 4960TIP3    H214845   1.887   0.327   1.099
 4961TIP3   OH214846   1.933   6.601   0.308
 4961TIP3    H114847   1.957   6.694   0.306
 4961TIP3    H214848   1.839   6.602   0.329
 4962TIP3   OH214849   4.831   3.872   3.414
 4962TIP3    H114850   4.751   3.919   3.392
 4962TIP3    H214851   4.868   3.921   3.487
 4963TIP3   OH214852   5.371   2.756   5.090
 4963TIP3    H114853   5.299   2.733   5.148
 4963TIP3    H214854   5.414   2.673   5.071
 4964TIP3   OH214855   4.137   5.333   0.347
 4964TIP3    H114856   4.077   5.369   0.412
 4964TIP3    H214857   4.089   5.259   0.309
 4965TIP3   OH214858   3.033   0.609   1.309
 4965TIP3    H114859   3.079   0.562   1.378
 4965TIP3    H214860   2.984   0.541   1.262
 4966TIP3   OH214861   1.480   0.788   4.648
 4966TIP3    H114862   1.465   0.827   4.734
 4966TIP3    H214863   1.470   0.861   4.586
 4967TIP3   OH214864   4.431   3.418   1.690
 4967TIP3    H114865   4.485   3.379   1.760
 4967TIP3    H214866   4.462   3.375   1.610
 4968TIP3   OH214867   0.575   6.525   0.885
 4968TIP3    H114868   0.586   6.483   0.970
 4968TIP3    H214869   0.571   6.453   0.822
 4969TIP3   OH214870   4.716   4.701   0.820
 4969TIP3    H114871   4.717   4.792   0.851
 4969TIP3    H214872   4.623   4.681   0.808
 4970TIP3   OH214873   1.042   4.251   1.311
 4970TIP3    H114874   1.051   4.336   1.356
 4970TIP3    H214875   1.126   4.207   1.327
 4971TIP3   OH214876   0.416   4.302   1.681
 4971TIP3    H114877   0.326   4.270   1.671
 4971TIP3    H214878   0.460   4.273   1.601
 4972TIP3   OH214879   1.672   3.330   3.738
 4972TIP3    H114880   1.675   3.421   3.767
 4972TIP3    H214881   1.579   3.307   3.742
 4973TIP3   OH214882   2.601   5.285   4.676
 4973TIP3    H114883   2.583   5.216   4.740
 4973TIP3    H214884   2.686   5.320   4.701
 4974TIP3   OH214885   4.625   0.704   2.218
 4974TIP3    H114886   4.662   0.788   2.193
 4974TIP3    H214887   4.569   0.723   2.293
 4975TIP3   OH214888   4.897   1.586   1.185
 4975TIP3    H114889   4.970   1.529   1.163
 4975TIP3    H214890   4.820   1.529   1.183
 4976TIP3   OH214891   5.833   2.576   3.766
 4976TIP3    H114892   5.874   2.600   3.682
 4976TIP3    H214893   5.875   2.633   3.830
 4977TIP3   OH214894   5.094   2.400   3.456
 4977TIP3    H114895   5.162   2.350   3.411
 4977TIP3    H214896   5.064   2.342   3.527
 4978TIP3   OH214897   3.977   3.115   1.433
 4978TIP3    H114898   4.047   3.052   1.453
 4978TIP3    H214899   4.021   3.188   1.391
 4979TIP3   OH214900   6.953   2.419   3.103
 4979TIP3    H114901   6.949   2.510   3.074
 4979TIP3    H214902   6.900   2.371   3.039
 4980TIP3   OH214903   7.098   5.263   5.118
 4980TIP3    H114904   7.034   5.315   5.070
 4980TIP3    H214905   7.182   5.283   5.076
 4981TIP3   OH214906   6.806   6.496   5.045
 4981TIP3    H114907   6.801   6.582   5.003
 4981TIP3    H214908   6.857   6.442   4.985
 4982TIP3   OH214909   5.445   0.294   2.888
 4982TIP3    H114910   5.460   0.333   2.974
 4982TIP3    H214911   5.387   0.355   2.843
 4983TIP3   OH214912   3.276   4.078   5.137
 4983TIP3    H114913   3.276   3.984   5.122
 4983TIP3    H214914   3.183   4.102   5.143
 4984TIP3   OH214915   7.089   3.032   3.777
 4984TIP3    H114916   7.051   3.119   3.767
 4984TIP3    H214917   7.016   2.972   3.762
 4985TIP3   OH214918   2.701   3.653   0.183
 4985TIP3    H114919   2.716   3.738   0.225
 4985TIP3    H214920   2.624   3.618   0.227
 4986TIP3   OH214921   5.368   3.082   4.036
 4986TIP3    H114922   5.364   3.048   3.947
 4986TIP3    H214923   5.309   3.027   4.086
 4987TIP3   OH214924   6.436   2.321   4.840
 4987TIP3    H114925   6.416   2.231   4.814
 4987TIP3    H214926   6.502   2.311   4.910
 4988TIP3   OH214927   1.506   1.581   4.236
 4988TIP3    H114928   1.429   1.618   4.279
 4988TIP3    H214929   1.530   1.506   4.289
 4989TIP3   OH214930   6.716   6.102   1.802
 4989TIP3    H114931   6.734   6.011   1.823
 4989TIP3    H214932   6.796   6.149   1.827
 4990TIP3   OH214933   3.865   6.362   3.510
 4990TIP3    H114934   3.790   6.405   3.468
 4990TIP3    H214935   3.937   6.424   3.497
 4991TIP3   OH214936   1.210   5.106   0.592
 4991TIP3    H114937   1.283   5.044   0.594
 4991TIP3    H214938   1.133   5.053   0.570
 4992TIP3   OH214939   0.171   5.037   1.472
 4992TIP3    H114940   0.169   4.964   1.534
 4992TIP3    H214941   0.136   5.111   1.521
 4993TIP3   OH214942   3.214   2.525   1.480
 4993TIP3    H114943   3.296   2.563   1.449
 4993TIP3    H214944   3.236   2.489   1.566
 4994TIP3   OH214945   5.651   4.483   4.274
 4994TIP3    H114946   5.652   4.460   4.181
 4994TIP3    H214947   5.735   4.524   4.290
 4995TIP3   OH214948   0.617   2.454   4.816
 4995TIP3    H114949   0.623   2.361   4.792
 4995TIP3    H214950   0.695   2.494   4.777
 4996TIP3   OH214951   6.680   0.115   4.088
 4996TIP3    H114952   6.634   0.041   4.049
 4996TIP3    H214953   6.614   0.160   4.141
 4997TIP3   OH214954   0.421   3.786   2.559
 4997TIP3    H114955   0.387   3.769   2.647
 4997TIP3    H214956   0.512   3.756   2.563
 4998TIP3   OH214957   6.211   1.387   3.545
 4998TIP3    H114958   6.244   1.477   3.535
 4998TIP3    H214959   6.209   1.372   3.639
 4999TIP3   OH214960   1.313   1.217   2.127
 4999TIP3    H114961   1.313   1.223   2.222
 4999TIP3    H214962   1.284   1.127   2.109
 5000TIP3   OH214963   6.186   2.686   3.728
 5000TIP3    H114964   6.262   2.692   3.669
 5000TIP3    H214965   6.173   2.775   3.760
 5001TIP3   OH214966   5.204   1.534   5.160
 5001TIP3    H114967   5.258   1.570   5.230
 5001TIP3    H214968   5.184   1.609   5.104
 5002TIP3   OH214969   4.937   1.887   0.118
 5002TIP3    H114970   4.936   1.836   0.036
 5002TIP3    H214971   4.985   1.967   0.096
 5003TIP3   OH214972   5.616   4.455   2.530
 5003TIP3    H114973   5.607   4.363   2.505
 5003TIP3    H214974   5.658   4.496   2.454
 5004TIP3   OH214975   1.604   5.173   3.828
 5004TIP3    H114976   1.670   5.139   3.768
 5004TIP3    H214977   1.615   5.121   3.908
 5005TIP3   OH214978   0.729   2.601   1.775
 5005TIP3    H114979   0.657   2.654   1.742
 5005TIP3    H214980   0.723   2.610   1.870
 5006TIP3   OH214981   3.147   6.226   3.119
 5006TIP3    H114982   3.112   6.138   3.131
 5006TIP3    H214983   3.079   6.284   3.153
 5007TIP3   OH214984   4.256   1.058   0.687
 5007TIP3    H114985   4.275   1.073   0.595
 5007TIP3    H214986   4.169   1.096   0.700
 5008TIP3   OH214987   4.896   4.435   2.874
 5008TIP3    H114988   4.954   4.437   2.951
 5008TIP3    H214989   4.891   4.342   2.852
 5009TIP3   OH214990   1.574   1.010   4.174
 5009TIP3    H114991   1.602   1.070   4.105
 5009TIP3    H214992   1.511   1.060   4.226
 5010TIP3   OH214993   4.304   0.639   4.999
 5010TIP3    H114994   4.324   0.729   5.026
 5010TIP3    H214995   4.281   0.647   4.906
 5011TIP3   OH214996   2.429   5.556   2.767
 5011TIP3    H114997   2.368   5.483   2.778
 5011TIP3    H214998   2.503   5.517   2.720
 5012TIP3   OH214999   3.054   3.586   1.211
 5012TIP3    H115000   3.015   3.544   1.288
 5012TIP3    H215001   3.115   3.650   1.247
 5013TIP3   OH215002   0.763   4.721   3.832
 5013TIP3    H115003   0.763   4.771   3.914
 5013TIP3    H215004   0.812   4.642   3.852
 5014TIP3   OH215005   0.827   3.944   5.506
 5014TIP3    H115006   0.905   3.915   5.554
 5014TIP3    H215007   0.759   3.882   5.532
 5015TIP3   OH215008   1.111   2.549   1.930
 5015TIP3    H115009   1.175   2.533   2.000
 5015TIP3    H215010   1.163   2.579   1.856
 5016TIP3   OH215011   5.832   0.166   4.911
 5016TIP3    H115012   5.823   0.251   4.955
 5016TIP3    H215013   5.785   0.177   4.829
 5017TIP3   OH215014   1.424   3.851   2.389
 5017TIP3    H115015   1.491   3.901   2.435
 5017TIP3    H215016   1.465   3.828   2.306
 5018TIP3   OH215017   6.232   5.476   4.088
 5018TIP3    H115018   6.220   5.383   4.069
 5018TIP3    H215019   6.327   5.488   4.090
 5019TIP3   OH215020   2.064   1.293   1.851
 5019TIP3    H115021   2.113   1.362   1.805
 5019TIP3    H215022   1.973   1.308   1.826
 5020TIP3   OH215023   6.357   3.518   2.739
 5020TIP3    H115024   6.388   3.493   2.825
 5020TIP3    H215025   6.413   3.470   2.678
 5021TIP3   OH215026   1.934   4.302   5.197
 5021TIP3    H115027   2.012   4.297   5.252
 5021TIP3    H215028   1.942   4.387   5.153
 5022TIP3   OH215029   4.937   3.322   1.055
 5022TIP3    H115030   4.874   3.381   1.096
 5022TIP3    H215031   4.887   3.243   1.036
 5023TIP3   OH215032   1.499   5.160   0.379
 5023TIP3    H115033   1.425   5.213   0.346
 5023TIP3    H215034   1.576   5.212   0.355
 5024TIP3   OH215035   4.343   2.421   2.215
 5024TIP3    H115036   4.356   2.371   2.295
 5024TIP3    H215037   4.277   2.373   2.166
 5025TIP3   OH215038   5.692   2.466   0.666
 5025TIP3    H115039   5.687   2.536   0.732
 5025TIP3    H215040   5.708   2.513   0.583
 5026TIP3   OH215041   4.367   5.704   2.594
 5026TIP3    H115042   4.440   5.760   2.569
 5026TIP3    H215043   4.405   5.639   2.653
 5027TIP3   OH215044   5.123   6.171   5.435
 5027TIP3    H115045   5.178   6.219   5.375
 5027TIP3    H215046   5.053   6.232   5.458
 5028TIP3   OH215047   2.548   0.272   5.063
 5028TIP3    H115048   2.609   0.312   5.125
 5028TIP3    H215049   2.601   0.213   5.010
 5029TIP3   OH215050   2.592   1.979   2.945
 5029TIP3    H115051   2.580   2.073   2.955
 5029TIP3    H215052   2.664   1.971   2.882
 5030TIP3   OH215053   7.163   0.201   1.813
 5030TIP3    H115054   7.215   0.236   1.886
 5030TIP3    H215055   7.204   0.116   1.794
 5031TIP3   OH215056   3.211   4.008   4.249
 5031TIP3    H115057   3.148   3.948   4.289
 5031TIP3    H215058   3.158   4.082   4.220
 5032TIP3   OH215059   3.887   6.407   1.289
 5032TIP3    H115060   3.979   6.379   1.287
 5032TIP3    H215061   3.837   6.326   1.292
 5033TIP3   OH215062   2.820   6.333   5.716
 5033TIP3    H115063   2.834   6.363   5.626
 5033TIP3    H215064   2.733   6.365   5.739
 5034TIP3   OH215065   0.638   2.484   5.131
 5034TIP3    H115066   0.608   2.575   5.134
 5034TIP3    H215067   0.643   2.464   5.037
 5035TIP3   OH215068   2.952   6.700   2.565
 5035TIP3    H115069   2.962   6.793   2.582
 5035TIP3    H215070   2.901   6.668   2.640
 5036TIP3   OH215071   3.444   1.808   5.400
 5036TIP3    H115072   3.416   1.892   5.437
 5036TIP3    H215073   3.450   1.824   5.306
 5037TIP3   OH215074   5.399   0.021   1.190
 5037TIP3    H115075   5.464   0.002   1.257
 5037TIP3    H215076   5.442   0.000   1.107
 5038TIP3   OH215077   1.339   5.931   2.683
 5038TIP3    H115078   1.361   5.995   2.615
 5038TIP3    H215079   1.424   5.899   2.714
 5039TIP3   OH215080   6.563   5.614   1.142
 5039TIP3    H115081   6.640   5.590   1.193
 5039TIP3    H215082   6.548   5.539   1.084
 5040TIP3   OH215083   1.415   2.228   5.453
 5040TIP3    H115084   1.336   2.268   5.489
 5040TIP3    H215085   1.473   2.216   5.528
 5041TIP3   OH215086   5.138   6.711   5.054
 5041TIP3    H115087   5.137   6.805   5.040
 5041TIP3    H215088   5.102   6.674   4.973
 5042TIP3   OH215089   3.057   5.129   3.660
 5042TIP3    H115090   3.034   5.150   3.570
 5042TIP3    H215091   2.996   5.180   3.713
 5043TIP3   OH215092   4.600   5.564   2.398
 5043TIP3    H115093   4.523   5.525   2.440
 5043TIP3    H215094   4.673   5.541   2.455
 5044TIP3   OH215095   2.776   0.402   5.493
 5044TIP3    H115096   2.827   0.347   5.552
 5044TIP3    H215097   2.686   0.373   5.503
 5045TIP3   OH215098   0.898   0.023   2.601
 5045TIP3    H115099   0.993   0.036   2.594
 5045TIP3    H215100   0.867   0.099   2.650
 5046TIP3   OH215101   4.453   6.788   2.063
 5046TIP3    H115102   4.516   6.851   2.028
 5046TIP3    H215103   4.398   6.765   1.988
 5047TIP3   OH215104   5.298   0.857   0.440
 5047TIP3    H115105   5.313   0.788   0.375
 5047TIP3    H215106   5.241   0.817   0.505
 5048TIP3   OH215107   5.746   5.600   0.980
 5048TIP3    H115108   5.806   5.665   0.944
 5048TIP3    H215109   5.801   5.524   1.000
 5049TIP3   OH215110   1.940   5.580   1.250
 5049TIP3    H115111   1.885   5.637   1.304
 5049TIP3    H215112   2.020   5.569   1.301
 5050TIP3   OH215113   1.939   0.342   2.975
 5050TIP3    H115114   1.894   0.411   3.023
 5050TIP3    H215115   1.913   0.356   2.884
 5051TIP3   OH215116   4.501   1.901   0.722
 5051TIP3    H115117   4.573   1.907   0.659
 5051TIP3    H215118   4.461   1.987   0.721
 5052TIP3   OH215119   1.444   3.563   3.696
 5052TIP3    H115120   1.526   3.591   3.656
 5052TIP3    H215121   1.468   3.543   3.787
 5053TIP3   OH215122   4.975   4.006   5.589
 5053TIP3    H115123   4.911   4.071   5.617
 5053TIP3    H215124   5.040   4.055   5.539
 5054TIP3   OH215125   2.530   4.610   1.748
 5054TIP3    H115126   2.515   4.702   1.772
 5054TIP3    H215127   2.501   4.560   1.825
 5055TIP3   OH215128   6.729   1.024   4.440
 5055TIP3    H115129   6.729   1.103   4.494
 5055TIP3    H215130   6.775   1.049   4.360
 5056TIP3   OH215131   3.302   0.177   1.325
 5056TIP3    H115132   3.325   0.261   1.284
 5056TIP3    H215133   3.215   0.156   1.290
 5057TIP3   OH215134   3.951   2.802   2.851
 5057TIP3    H115135   3.880   2.845   2.899
 5057TIP3    H215136   4.020   2.868   2.846
 5058TIP3   OH215137   1.415   5.154   2.869
 5058TIP3    H115138   1.475   5.092   2.828
 5058TIP3    H215139   1.335   5.103   2.885
 5059TIP3   OH215140   3.766   3.555   5.644
 5059TIP3    H115141   3.710   3.479   5.658
 5059TIP3    H215142   3.824   3.556   5.720
 5060TIP3   OH215143   6.950   4.238   4.473
 5060TIP3    H115144   6.999   4.157   4.477
 5060TIP3    H215145   6.925   4.255   4.564
 5061TIP3   OH215146   5.427   5.449   0.935
 5061TIP3    H115147   5.393   5.377   0.988
 5061TIP3    H215148   5.486   5.496   0.994
 5062TIP3   OH215149   0.268   2.285   0.592
 5062TIP3    H115150   0.236   2.238   0.515
 5062TIP3    H215151   0.343   2.233   0.621
 5063TIP3   OH215152   2.410   4.182   0.127
 5063TIP3    H115153   2.351   4.110   0.103
 5063TIP3    H215154   2.363   4.261   0.102
 5064TIP3   OH215155   1.937   5.589   4.143
 5064TIP3    H115156   1.874   5.536   4.192
 5064TIP3    H215157   1.922   5.678   4.173
 5065TIP3   OH215158   3.913   4.609   4.547
 5065TIP3    H115159   3.937   4.688   4.499
 5065TIP3    H215160   3.901   4.638   4.638
 5066TIP3   OH215161   3.197   5.794   2.406
 5066TIP3    H115162   3.205   5.752   2.492
 5066TIP3    H215163   3.223   5.884   2.421
 5067TIP3   OH215164   2.554   0.426   1.633
 5067TIP3    H115165   2.514   0.384   1.556
 5067TIP3    H215166   2.633   0.468   1.600
 5068TIP3   OH215167   1.602   1.364   0.150
 5068TIP3    H115168   1.688   1.406   0.148
 5068TIP3    H215169   1.616   1.284   0.202
 5069TIP3   OH215170   4.304   2.357   4.010
 5069TIP3    H115171   4.385   2.309   4.019
 5069TIP3    H215172   4.323   2.425   3.945
 5070TIP3   OH215173   0.405   0.692   0.464
 5070TIP3    H115174   0.427   0.599   0.458
 5070TIP3    H215175   0.328   0.701   0.408
 5071TIP3   OH215176   4.773   6.533   1.339
 5071TIP3    H115177   4.769   6.444   1.304
 5071TIP3    H215178   4.853   6.570   1.302
 5072TIP3   OH215179   4.273   1.278   3.017
 5072TIP3    H115180   4.182   1.305   3.003
 5072TIP3    H215181   4.296   1.315   3.102
 5073TIP3   OH215182   1.088   1.124   1.928
 5073TIP3    H115183   1.076   1.095   2.018
 5073TIP3    H215184   1.053   1.214   1.927
 5074TIP3   OH215185   0.664   4.991   1.401
 5074TIP3    H115186   0.648   4.967   1.309
 5074TIP3    H215187   0.729   4.928   1.431
 5075TIP3   OH215188   6.043   2.036   2.619
 5075TIP3    H115189   5.952   2.064   2.630
 5075TIP3    H215190   6.049   2.006   2.528
 5076TIP3   OH215191   4.434   4.473   4.958
 5076TIP3    H115192   4.495   4.400   4.949
 5076TIP3    H215193   4.384   4.453   5.037
 5077TIP3   OH215194   2.996   5.115   4.270
 5077TIP3    H115195   2.963   5.071   4.191
 5077TIP3    H215196   2.921   5.162   4.305
 5078TIP3   OH215197   6.768   2.883   2.903
 5078TIP3    H115198   6.806   2.796   2.917
 5078TIP3    H215199   6.692   2.884   2.961
 5079TIP3   OH215200   1.440   4.679   2.868
 5079TIP3    H115201   1.513   4.734   2.898
 5079TIP3    H215202   1.451   4.674   2.773
 5080TIP3   OH215203   5.311   4.290   5.696
 5080TIP3    H115204   5.291   4.287   5.603
 5080TIP3    H215205   5.296   4.201   5.727
 5081TIP3   OH215206   4.643   6.551   0.942
 5081TIP3    H115207   4.696   6.620   0.981
 5081TIP3    H215208   4.672   6.471   0.985
 5082TIP3   OH215209   3.459   2.071   4.127
 5082TIP3    H115210   3.489   2.078   4.037
 5082TIP3    H215211   3.522   2.013   4.169
 5083TIP3   OH215212   3.544   1.568   0.575
 5083TIP3    H115213   3.452   1.541   0.582
 5083TIP3    H215214   3.552   1.642   0.636
 5084TIP3   OH215215   4.731   6.281   1.663
 5084TIP3    H115216   4.806   6.225   1.638
 5084TIP3    H215217   4.658   6.220   1.671
 5085TIP3   OH215218   6.559   3.031   4.891
 5085TIP3    H115219   6.554   2.955   4.949
 5085TIP3    H215220   6.494   3.092   4.926
 5086TIP3   OH215221   4.208   5.010   5.295
 5086TIP3    H115222   4.180   5.049   5.378
 5086TIP3    H215223   4.241   5.083   5.243
 5087TIP3   OH215224   0.933   5.983   0.668
 5087TIP3    H115225   0.868   6.050   0.646
 5087TIP3    H215226   0.932   5.923   0.593
 5088TIP3   OH215227   6.531   6.318   1.321
 5088TIP3    H115228   6.528   6.310   1.416
 5088TIP3    H215229   6.618   6.352   1.302
 5089TIP3   OH215230   2.105   5.832   2.552
 5089TIP3    H115231   2.027   5.825   2.497
 5089TIP3    H215232   2.124   5.741   2.577
 5090TIP3   OH215233   7.120   3.543   3.016
 5090TIP3    H115234   7.183   3.471   3.029
 5090TIP3    H215235   7.087   3.529   2.927
 5091TIP3   OH215236   4.672   6.103   0.165
 5091TIP3    H115237   4.675   6.054   0.083
 5091TIP3    H215238   4.753   6.079   0.210
 5092TIP3   OH215239   0.442   4.475   0.449
 5092TIP3    H115240   0.447   4.522   0.366
 5092TIP3    H215241   0.363   4.508   0.491
 5093TIP3   OH215242   4.576   2.011   4.298
 5093TIP3    H115243   4.524   1.938   4.265
 5093TIP3    H215244   4.640   2.029   4.229
 5094TIP3   OH215245   3.230   3.701   0.912
 5094TIP3    H115246   3.162   3.760   0.879
 5094TIP3    H215247   3.182   3.633   0.960
 5095TIP3   OH215248   0.057   5.906   0.393
 5095TIP3    H115249  -0.017   5.906   0.453
 5095TIP3    H215250   0.019   5.879   0.309
 5096TIP3   OH215251   0.245   0.083   2.393
 5096TIP3    H115252   0.190   0.161   2.400
 5096TIP3    H215253   0.330   0.116   2.363
 5097TIP3   OH215254   0.382   1.000   3.367
 5097TIP3    H115255   0.469   0.975   3.396
 5097TIP3    H215256   0.393   1.086   3.326
 5098TIP3   OH215257   0.368   3.841   3.115
 5098TIP3    H115258   0.324   3.909   3.064
 5098TIP3    H215259   0.297   3.798   3.163
 5099TIP3   OH215260   3.130   6.118   0.185
 5099TIP3    H115261   3.159   6.187   0.244
 5099TIP3    H215262   3.164   6.037   0.224
 5100TIP3   OH215263   4.193   0.937   3.928
 5100TIP3    H115264   4.206   0.854   3.975
 5100TIP3    H215265   4.258   0.996   3.966
 5101TIP3   OH215266   5.795   4.393   3.091
 5101TIP3    H115267   5.744   4.472   3.073
 5101TIP3    H215268   5.885   4.424   3.096
 5102TIP3   OH215269   3.837   2.501   5.385
 5102TIP3    H115270   3.840   2.597   5.378
 5102TIP3    H215271   3.761   2.483   5.440
 5103TIP3   OH215272   0.028   5.571   0.630
 5103TIP3    H115273  -0.021   5.499   0.669
 5103TIP3    H215274  -0.038   5.622   0.584
 5104TIP3   OH215275   1.543   0.775   4.024
 5104TIP3    H115276   1.576   0.849   4.076
 5104TIP3    H215277   1.457   0.756   4.062
 5105TIP3   OH215278   2.166   2.970   0.301
 5105TIP3    H115279   2.226   3.040   0.326
 5105TIP3    H215280   2.209   2.890   0.332
 5106TIP3   OH215281   3.772   0.482  -0.016
 5106TIP3    H115282   3.688   0.521   0.011
 5106TIP3    H215283   3.759   0.388  -0.009
 5107TIP3   OH215284   4.566   1.137   3.345
 5107TIP3    H115285   4.486   1.186   3.366
 5107TIP3    H215286   4.610   1.192   3.280
 5108TIP3   OH215287   5.981   4.472   0.870
 5108TIP3    H115288   6.075   4.485   0.854
 5108TIP3    H215289   5.939   4.512   0.794
 5109TIP3   OH215290   5.242   6.311   1.218
 5109TIP3    H115291   5.276   6.257   1.146
 5109TIP3    H215292   5.315   6.320   1.279
 5110TIP3   OH215293   3.079   1.055   1.445
 5110TIP3    H115294   3.127   1.035   1.364
 5110TIP3    H215295   3.110   0.990   1.508
 5111TIP3   OH215296   2.703   4.710   4.229
 5111TIP3    H115297   2.759   4.751   4.163
 5111TIP3    H215298   2.719   4.616   4.218
 5112TIP3   OH215299   6.082   5.429   0.302
 5112TIP3    H115300   6.125   5.361   0.354
 5112TIP3    H215301   6.067   5.388   0.217
 5113TIP3   OH215302   3.196   2.673   4.021
 5113TIP3    H115303   3.194   2.709   4.109
 5113TIP3    H215304   3.240   2.739   3.968
 5114TIP3   OH215305   6.916   1.777   4.191
 5114TIP3    H115306   6.946   1.857   4.234
 5114TIP3    H215307   6.986   1.714   4.206
 5115TIP3   OH215308   3.298   0.312   1.075
 5115TIP3    H115309   3.338   0.233   1.038
 5115TIP3    H215310   3.231   0.337   1.011
 5116TIP3   OH215311   6.010   2.805   4.257
 5116TIP3    H115312   5.916   2.816   4.275
 5116TIP3    H215313   6.053   2.833   4.338
 5117TIP3   OH215314   0.640   0.740   4.927
 5117TIP3    H115315   0.561   0.786   4.957
 5117TIP3    H215316   0.706   0.763   4.992
 5118TIP3   OH215317   0.354   6.285   2.633
 5118TIP3    H115318   0.397   6.209   2.671
 5118TIP3    H215319   0.325   6.337   2.708
 5119TIP3   OH215320   6.884   1.447   2.826
 5119TIP3    H115321   6.921   1.443   2.738
 5119TIP3    H215322   6.851   1.359   2.842
 5120TIP3   OH215323   5.216   3.991   4.190
 5120TIP3    H115324   5.267   3.942   4.256
 5120TIP3    H215325   5.134   3.943   4.184
 5121TIP3   OH215326   3.591   4.048   0.090
 5121TIP3    H115327   3.678   4.027   0.057
 5121TIP3    H215328   3.577   4.140   0.067
 5122TIP3   OH215329   1.091   3.834   3.753
 5122TIP3    H115330   1.150   3.836   3.828
 5122TIP3    H215331   1.149   3.832   3.677
 5123TIP3   OH215332   1.888   6.665   3.761
 5123TIP3    H115333   1.911   6.698   3.847
 5123TIP3    H215334   1.859   6.743   3.712
 5124TIP3   OH215335   5.017   4.891   3.899
 5124TIP3    H115336   4.994   4.831   3.969
 5124TIP3    H215337   5.039   4.973   3.944
 5125TIP3   OH215338   7.179   6.769   4.522
 5125TIP3    H115339   7.171   6.863   4.503
 5125TIP3    H215340   7.186   6.728   4.435
 5126TIP3   OH215341   5.933   0.647   4.781
 5126TIP3    H115342   5.941   0.742   4.777
 5126TIP3    H215343   5.840   0.631   4.792
 5127TIP3   OH215344   6.973   3.446   5.676
 5127TIP3    H115345   6.881   3.450   5.647
 5127TIP3    H215346   6.970   3.401   5.760
 5128TIP3   OH215347   7.125   3.581   0.063
 5128TIP3    H115348   7.140   3.535  -0.019
 5128TIP3    H215349   7.102   3.513   0.126
 5129TIP3   OH215350   3.657   0.213   2.595
 5129TIP3    H115351   3.624   0.124   2.601
 5129TIP3    H215352   3.647   0.248   2.684
 5130TIP3   OH215353   4.623   1.898   1.301
 5130TIP3    H115354   4.701   1.899   1.246
 5130TIP3    H215355   4.553   1.928   1.243
 5131TIP3   OH215356   4.775   5.578   1.472
 5131TIP3    H115357   4.744   5.561   1.383
 5131TIP3    H215358   4.855   5.526   1.480
 5132TIP3   OH215359   4.771   3.021   2.220
 5132TIP3    H115360   4.719   3.009   2.141
 5132TIP3    H215361   4.851   2.970   2.204
 5133TIP3   OH215362   0.750   4.868   2.665
 5133TIP3    H115363   0.702   4.950   2.652
 5133TIP3    H215364   0.816   4.868   2.596
 5134TIP3   OH215365   4.211   0.785   2.059
 5134TIP3    H115366   4.252   0.810   1.976
 5134TIP3    H215367   4.220   0.863   2.115
 5135TIP3   OH215368   5.296   5.229   3.564
 5135TIP3    H115369   5.285   5.201   3.473
 5135TIP3    H215370   5.368   5.292   3.561
 5136TIP3   OH215371   1.917   5.931   4.732
 5136TIP3    H115372   1.981   5.884   4.787
 5136TIP3    H215373   1.846   5.952   4.792
 5137TIP3   OH215374   2.652   3.963   5.117
 5137TIP3    H115375   2.567   4.006   5.110
 5137TIP3    H215376   2.648   3.914   5.199
 5138TIP3   OH215377   1.594   1.605   0.820
 5138TIP3    H115378   1.567   1.571   0.905
 5138TIP3    H215379   1.663   1.669   0.840
 5139TIP3   OH215380   5.867   3.931   0.393
 5139TIP3    H115381   5.882   3.966   0.481
 5139TIP3    H215382   5.874   3.836   0.404
 5140TIP3   OH215383   3.730   5.102   3.069
 5140TIP3    H115384   3.765   5.053   2.995
 5140TIP3    H215385   3.763   5.056   3.146
 5141TIP3   OH215386   6.172   5.868   5.206
 5141TIP3    H115387   6.093   5.909   5.172
 5141TIP3    H215388   6.244   5.910   5.159
 5142TIP3   OH215389   0.475   6.683   4.410
 5142TIP3    H115390   0.512   6.762   4.449
 5142TIP3    H215391   0.437   6.636   4.485
 5143TIP3   OH215392   3.490   2.350   4.995
 5143TIP3    H115393   3.459   2.265   5.027
 5143TIP3    H215394   3.409   2.401   4.983
 5144TIP3   OH215395   0.335   1.378   4.919
 5144TIP3    H115396   0.297   1.461   4.947
 5144TIP3    H215397   0.355   1.333   5.001
 5145TIP3   OH215398   2.247   6.556   1.643
 5145TIP3    H115399   2.182   6.547   1.713
 5145TIP3    H215400   2.323   6.594   1.686
 5146TIP3   OH215401   3.171   1.973   5.256
 5146TIP3    H115402   3.152   2.009   5.169
 5146TIP3    H215403   3.159   1.879   5.246
 5147TIP3   OH215404   0.871   3.187   1.900
 5147TIP3    H115405   0.856   3.126   1.829
 5147TIP3    H215406   0.849   3.138   1.979
 5148TIP3   OH215407   0.795   4.939   4.029
 5148TIP3    H115408   0.766   4.996   3.957
 5148TIP3    H215409   0.886   4.962   4.043
 5149TIP3   OH215410   5.551   4.405   0.662
 5149TIP3    H115411   5.641   4.390   0.631
 5149TIP3    H215412   5.528   4.491   0.627
 5150TIP3   OH215413   6.759   3.771   0.845
 5150TIP3    H115414   6.773   3.683   0.880
 5150TIP3    H215415   6.809   3.773   0.763
 5151TIP3   OH215416   4.970   2.562   5.801
 5151TIP3    H115417   4.989   2.541   5.893
 5151TIP3    H215418   5.053   2.597   5.767
 5152TIP3   OH215419   5.378   2.825   0.301
 5152TIP3    H115420   5.374   2.890   0.231
 5152TIP3    H215421   5.448   2.855   0.358
 5153TIP3   OH215422   6.731   6.642   5.662
 5153TIP3    H115423   6.732   6.729   5.700
 5153TIP3    H215424   6.766   6.654   5.574
 5154TIP3   OH215425   3.065   3.224   1.889
 5154TIP3    H115426   3.004   3.187   1.825
 5154TIP3    H215427   3.115   3.149   1.921
 5155TIP3   OH215428   2.694   0.105   4.896
 5155TIP3    H115429   2.676   0.018   4.931
 5155TIP3    H215430   2.692   0.093   4.801
 5156TIP3   OH215431   2.617   5.258   1.728
 5156TIP3    H115432   2.691   5.279   1.785
 5156TIP3    H215433   2.586   5.343   1.695
 5157TIP3   OH215434   5.790   0.147   0.093
 5157TIP3    H115435   5.782   0.104   0.007
 5157TIP3    H215436   5.865   0.105   0.134
 5158TIP3   OH215437   5.510   6.770   3.619
 5158TIP3    H115438   5.555   6.850   3.590
 5158TIP3    H215439   5.420   6.798   3.636
 5159TIP3   OH215440   3.041   3.460   3.539
 5159TIP3    H115441   3.126   3.502   3.553
 5159TIP3    H215442   2.980   3.532   3.524
 5160TIP3   OH215443   5.216   1.946   2.801
 5160TIP3    H115444   5.222   1.982   2.712
 5160TIP3    H215445   5.218   1.851   2.788
 5161TIP3   OH215446   2.112   2.125   0.277
 5161TIP3    H115447   2.106   2.089   0.188
 5161TIP3    H215448   2.180   2.072   0.320
 5162TIP3   OH215449   5.116   5.874   1.322
 5162TIP3    H115450   5.064   5.949   1.296
 5162TIP3    H215451   5.173   5.856   1.247
 5163TIP3   OH215452   1.113   5.020   3.285
 5163TIP3    H115453   1.076   5.087   3.342
 5163TIP3    H215454   1.172   4.970   3.341
 5164TIP3   OH215455   4.542   2.197   1.707
 5164TIP3    H115456   4.573   2.286   1.721
 5164TIP3    H215457   4.549   2.183   1.613
 5165TIP3   OH215458   1.045   0.775   4.474
 5165TIP3    H115459   0.961   0.818   4.491
 5165TIP3    H215460   1.026   0.710   4.406
 5166TIP3   OH215461   1.803   2.380   0.034
 5166TIP3    H115462   1.847   2.338   0.108
 5166TIP3    H215463   1.781   2.467   0.066
 5167TIP3   OH215464   3.290   3.094   1.653
 5167TIP3    H115465   3.234   3.158   1.610
 5167TIP3    H215466   3.330   3.142   1.725
 5168TIP3   OH215467   5.442   4.651   2.638
 5168TIP3    H115468   5.414   4.690   2.556
 5168TIP3    H215469   5.495   4.576   2.612
 5169TIP3   OH215470   4.101   0.031   1.043
 5169TIP3    H115471   4.184   0.002   1.079
 5169TIP3    H215472   4.060  -0.050   1.010
 5170TIP3   OH215473   4.933   3.261   4.460
 5170TIP3    H115474   4.972   3.191   4.512
 5170TIP3    H215475   4.839   3.253   4.477
 5171TIP3   OH215476   1.178   6.730   5.322
 5171TIP3    H115477   1.144   6.648   5.358
 5171TIP3    H215478   1.269   6.712   5.300
 5172TIP3   OH215479   2.727   1.959   5.483
 5172TIP3    H115480   2.763   2.001   5.561
 5172TIP3    H215481   2.751   1.867   5.492
 5173TIP3   OH215482   4.028   1.265   4.811
 5173TIP3    H115483   3.988   1.183   4.841
 5173TIP3    H215484   3.956   1.314   4.771
 5174TIP3   OH215485   6.567   2.747   5.642
 5174TIP3    H115486   6.620   2.668   5.629
 5174TIP3    H215487   6.514   2.729   5.720
 5175TIP3   OH215488   1.223   5.894   1.543
 5175TIP3    H115489   1.176   5.868   1.622
 5175TIP3    H215490   1.235   5.812   1.495
 5176TIP3   OH215491   4.825   0.658   3.477
 5176TIP3    H115492   4.778   0.725   3.425
 5176TIP3    H215493   4.912   0.654   3.437
 5177TIP3   OH215494   3.437   5.411   4.150
 5177TIP3    H115495   3.349   5.394   4.183
 5177TIP3    H215496   3.490   5.426   4.229
 5178TIP3   OH215497   3.876   0.302   5.263
 5178TIP3    H115498   3.949   0.264   5.213
 5178TIP3    H215499   3.799   0.252   5.235
 5179TIP3   OH215500   7.097   3.221   2.947
 5179TIP3    H115501   7.097   3.254   3.037
 5179TIP3    H215502   7.006   3.195   2.931
 5180TIP3   OH215503   6.603   5.948   2.936
 5180TIP3    H115504   6.514   5.970   2.912
 5180TIP3    H215505   6.596   5.904   3.021
 5181TIP3   OH215506   6.957   5.004   4.998
 5181TIP3    H115507   6.931   5.084   4.951
 5181TIP3    H215508   6.958   5.029   5.090
 5182TIP3   OH215509   3.409   0.730   2.839
 5182TIP3    H115510   3.505   0.738   2.844
 5182TIP3    H215511   3.381   0.808   2.791
 5183TIP3   OH215512   1.703   5.636   5.095
 5183TIP3    H115513   1.627   5.607   5.045
 5183TIP3    H215514   1.668   5.699   5.158
 5184TIP3   OH215515   6.600   3.196   5.202
 5184TIP3    H115516   6.631   3.121   5.254
 5184TIP3    H215517   6.673   3.258   5.203
 5185TIP3   OH215518   0.306   2.141   1.482
 5185TIP3    H115519   0.283   2.228   1.513
 5185TIP3    H215520   0.345   2.155   1.395
 5186TIP3   OH215521   3.162   1.187   4.354
 5186TIP3    H115522   3.086   1.224   4.308
 5186TIP3    H215523   3.125   1.149   4.433
 5187TIP3   OH215524   0.582   4.669   4.434
 5187TIP3    H115525   0.568   4.764   4.435
 5187TIP3    H215526   0.557   4.642   4.345
 5188TIP3   OH215527   0.904   4.029   1.631
 5188TIP3    H115528   0.843   3.982   1.688
 5188TIP3    H215529   0.881   4.122   1.643
 5189TIP3   OH215530   4.130   5.951   4.792
 5189TIP3    H115531   4.066   5.971   4.861
 5189TIP3    H215532   4.082   5.963   4.711
 5190TIP3   OH215533   2.655   5.177   2.076
 5190TIP3    H115534   2.631   5.122   2.151
 5190TIP3    H215535   2.603   5.256   2.086
 5191TIP3   OH215536   2.796   1.665   0.447
 5191TIP3    H115537   2.815   1.579   0.486
 5191TIP3    H215538   2.762   1.717   0.520
 5192TIP3   OH215539   6.948   1.277   5.185
 5192TIP3    H115540   6.931   1.183   5.172
 5192TIP3    H215541   6.924   1.317   5.102
 5193TIP3   OH215542   0.952   6.435   2.039
 5193TIP3    H115543   1.018   6.473   1.981
 5193TIP3    H215544   0.983   6.347   2.057
 5194TIP3   OH215545   1.528   4.929   2.012
 5194TIP3    H115546   1.592   4.917   2.082
 5194TIP3    H215547   1.445   4.943   2.057
 5195TIP3   OH215548   4.628   0.230   1.358
 5195TIP3    H115549   4.546   0.269   1.390
 5195TIP3    H215550   4.600   0.164   1.295
 5196TIP3   OH215551   0.317   5.521   0.904
 5196TIP3    H115552   0.310   5.435   0.947
 5196TIP3    H215553   0.409   5.543   0.910
 5197TIP3   OH215554   6.800   4.010   0.626
 5197TIP3    H115555   6.799   3.925   0.580
 5197TIP3    H215556   6.864   3.998   0.696
 5198TIP3   OH215557   7.075   1.983   5.634
 5198TIP3    H115558   7.002   1.925   5.656
 5198TIP3    H215559   7.032   2.065   5.609
 5199TIP3   OH215560   0.291   1.920   3.444
 5199TIP3    H115561   0.261   1.854   3.506
 5199TIP3    H215562   0.216   1.979   3.434
 5200TIP3   OH215563   0.081   2.431   5.107
 5200TIP3    H115564   0.025   2.407   5.181
 5200TIP3    H215565   0.140   2.357   5.097
 5201TIP3   OH215566   1.052   5.964   3.846
 5201TIP3    H115567   1.047   5.968   3.941
 5201TIP3    H215568   1.004   5.885   3.823
 5202TIP3   OH215569   6.986   5.773   5.761
 5202TIP3    H115570   6.959   5.856   5.799
 5202TIP3    H215571   6.999   5.715   5.837
 5203TIP3   OH215572   5.174   1.902   5.727
 5203TIP3    H115573   5.231   1.827   5.711
 5203TIP3    H215574   5.154   1.898   5.820
 5204TIP3   OH215575   2.681   3.344   2.818
 5204TIP3    H115576   2.639   3.266   2.783
 5204TIP3    H215577   2.772   3.338   2.791
 5205TIP3   OH215578   2.123   2.654   2.787
 5205TIP3    H115579   2.128   2.569   2.832
 5205TIP3    H215580   2.110   2.717   2.858
 5206TIP3   OH215581   0.111   3.762   0.165
 5206TIP3    H115582   0.175   3.810   0.113
 5206TIP3    H215583   0.057   3.715   0.100
 5207TIP3   OH215584   6.273   1.450   4.493
 5207TIP3    H115585   6.358   1.455   4.449
 5207TIP3    H215586   6.236   1.538   4.485
 5208TIP3   OH215587   1.398   1.618   3.990
 5208TIP3    H115588   1.328   1.681   4.004
 5208TIP3    H215589   1.443   1.613   4.074
 5209TIP3   OH215590   6.735   3.263   5.465
 5209TIP3    H115591   6.792   3.296   5.396
 5209TIP3    H215592   6.728   3.169   5.448
 5210TIP3   OH215593   6.194   3.355   5.425
 5210TIP3    H115594   6.159   3.423   5.367
 5210TIP3    H215595   6.289   3.360   5.414
 5211TIP3   OH215596   3.316   2.111   1.274
 5211TIP3    H115597   3.274   2.197   1.282
 5211TIP3    H215598   3.322   2.079   1.364
 5212TIP3   OH215599   4.567   0.055   1.154
 5212TIP3    H115600   4.533   0.098   1.076
 5212TIP3    H215601   4.493   0.003   1.187
 5213TIP3   OH215602   3.000   3.664   5.362
 5213TIP3    H115603   3.087   3.693   5.387
 5213TIP3    H215604   3.014   3.602   5.291
 5214TIP3   OH215605   0.712   1.674   2.630
 5214TIP3    H115606   0.803   1.655   2.652
 5214TIP3    H215607   0.688   1.607   2.566
 5215TIP3   OH215608   2.920   0.658   4.565
 5215TIP3    H115609   2.969   0.679   4.485
 5215TIP3    H215610   2.843   0.611   4.533
 5216TIP3   OH215611   4.221   5.159   3.962
 5216TIP3    H115612   4.131   5.192   3.955
 5216TIP3    H215613   4.210   5.068   3.992
 5217TIP3   OH215614   3.384   2.511   2.894
 5217TIP3    H115615   3.369   2.577   2.825
 5217TIP3    H215616   3.379   2.561   2.975
 5218TIP3   OH215617   1.897   5.232   5.266
 5218TIP3    H115618   1.939   5.301   5.215
 5218TIP3    H215619   1.808   5.228   5.233
 5219TIP3   OH215620   6.257   3.299   3.044
 5219TIP3    H115621   6.188   3.344   2.994
 5219TIP3    H215622   6.226   3.301   3.134
 5220TIP3   OH215623   4.613   0.206   2.306
 5220TIP3    H115624   4.573   0.120   2.316
 5220TIP3    H215625   4.584   0.236   2.220
 5221TIP3   OH215626   3.594   3.127   4.922
 5221TIP3    H115627   3.591   3.092   5.011
 5221TIP3    H215628   3.685   3.117   4.895
 5222TIP3   OH215629   4.220   3.463   1.855
 5222TIP3    H115630   4.197   3.555   1.866
 5222TIP3    H215631   4.305   3.465   1.811
 5223TIP3   OH215632   0.714   3.554   2.483
 5223TIP3    H115633   0.777   3.481   2.487
 5223TIP3    H215634   0.633   3.517   2.518
 5224TIP3   OH215635   5.703   6.699   3.120
 5224TIP3    H115636   5.645   6.627   3.096
 5224TIP3    H215637   5.645   6.774   3.134
 5225TIP3   OH215638   4.260   3.857   2.814
 5225TIP3    H115639   4.175   3.897   2.796
 5225TIP3    H215640   4.322   3.912   2.766
 5226TIP3   OH215641   3.716   2.790   3.586
 5226TIP3    H115642   3.765   2.821   3.663
 5226TIP3    H215643   3.771   2.813   3.512
 5227TIP3   OH215644   6.072   5.594   5.456
 5227TIP3    H115645   5.990   5.553   5.484
 5227TIP3    H215646   6.051   5.634   5.372
 5228TIP3   OH215647   4.421   3.931   4.924
 5228TIP3    H115648   4.367   3.866   4.969
 5228TIP3    H215649   4.364   3.967   4.856
 5229TIP3   OH215650   0.456   0.156   5.503
 5229TIP3    H115651   0.520   0.098   5.544
 5229TIP3    H215652   0.412   0.199   5.577
 5230TIP3   OH215653   6.405   4.349   2.269
 5230TIP3    H115654   6.351   4.292   2.324
 5230TIP3    H215655   6.470   4.386   2.328
 5231TIP3   OH215656   0.025   6.580   0.810
 5231TIP3    H115657   0.046   6.670   0.788
 5231TIP3    H215658   0.108   6.542   0.840
 5232TIP3   OH215659   4.438   6.153   5.202
 5232TIP3    H115660   4.456   6.212   5.275
 5232TIP3    H215661   4.514   6.094   5.200
 5233TIP3   OH215662   5.898   4.645   4.387
 5233TIP3    H115663   5.890   4.725   4.334
 5233TIP3    H215664   5.977   4.603   4.354
 5234TIP3   OH215665   0.867   1.622   1.645
 5234TIP3    H115666   0.908   1.647   1.727
 5234TIP3    H215667   0.775   1.648   1.655
 5235TIP3   OH215668   7.014   2.049   1.170
 5235TIP3    H115669   6.952   2.095   1.227
 5235TIP3    H215670   7.096   2.049   1.221
 5236TIP3   OH215671   3.448   0.366   0.134
 5236TIP3    H115672   3.367   0.321   0.158
 5236TIP3    H215673   3.490   0.386   0.217
 5237TIP3   OH215674   5.318   1.285   4.113
 5237TIP3    H115675   5.246   1.308   4.055
 5237TIP3    H215676   5.284   1.212   4.165
 5238TIP3   OH215677   6.739   6.719   4.917
 5238TIP3    H115678   6.668   6.783   4.913
 5238TIP3    H215679   6.776   6.718   4.829
 5239TIP3   OH215680   2.981   1.099   0.004
 5239TIP3    H115681   3.060   1.062   0.042
 5239TIP3    H215682   2.942   1.027  -0.046
 5240TIP3   OH215683   5.515   1.705   3.505
 5240TIP3    H115684   5.436   1.656   3.528
 5240TIP3    H215685   5.484   1.793   3.486
 5241TIP3   OH215686   0.441   2.934   3.233
 5241TIP3    H115687   0.519   2.989   3.233
 5241TIP3    H215688   0.389   2.965   3.159
 5242TIP3   OH215689   5.548   2.744   3.334
 5242TIP3    H115690   5.518   2.832   3.357
 5242TIP3    H215691   5.582   2.752   3.245
 5243TIP3   OH215692   2.752   6.501   5.482
 5243TIP3    H115693   2.764   6.474   5.391
 5243TIP3    H215694   2.657   6.504   5.494
 5244TIP3   OH215695   0.684   0.187   4.508
 5244TIP3    H115696   0.656   0.105   4.548
 5244TIP3    H215697   0.611   0.214   4.453
 5245TIP3   OH215698   5.010   1.482   3.261
 5245TIP3    H115699   4.951   1.556   3.245
 5245TIP3    H215700   4.990   1.420   3.192
 5246TIP3   OH215701   0.681   5.271   4.869
 5246TIP3    H115702   0.741   5.217   4.920
 5246TIP3    H215703   0.599   5.221   4.867
 5247TIP3   OH215704   3.427   1.706   5.759
 5247TIP3    H115705   3.351   1.686   5.705
 5247TIP3    H215706   3.490   1.637   5.738
 5248TIP3   OH215707   1.336   2.143   4.573
 5248TIP3    H115708   1.350   2.156   4.479
 5248TIP3    H215709   1.398   2.204   4.614
 5249TIP3   OH215710   0.327   0.270   5.738
 5249TIP3    H115711   0.292   0.303   5.821
 5249TIP3    H215712   0.353   0.349   5.690
 5250TIP3   OH215713   0.212   1.611   4.361
 5250TIP3    H115714   0.279   1.623   4.295
 5250TIP3    H215715   0.259   1.613   4.444
 5251TIP3   OH215716   3.164   4.367   0.109
 5251TIP3    H115717   3.119   4.346   0.027
 5251TIP3    H215718   3.128   4.452   0.136
 5252TIP3   OH215719   2.159   0.282   4.964
 5252TIP3    H115720   2.176   0.347   5.032
 5252TIP3    H215721   2.160   0.333   4.882
 5253TIP3   OH215722   2.082   1.378   3.427
 5253TIP3    H115723   2.042   1.405   3.344
 5253TIP3    H215724   2.057   1.286   3.437
 5254TIP3   OH215725   1.084   5.344   0.478
 5254TIP3    H115726   1.142   5.271   0.501
 5254TIP3    H215727   1.127   5.421   0.515
 5255TIP3   OH215728   7.008   2.836   0.286
 5255TIP3    H115729   7.080   2.777   0.307
 5255TIP3    H215730   7.021   2.912   0.344
 5256TIP3   OH215731   6.303   5.605   3.215
 5256TIP3    H115732   6.351   5.615   3.297
 5256TIP3    H215733   6.271   5.694   3.195
 5257TIP3   OH215734   3.624   6.102   3.677
 5257TIP3    H115735   3.566   6.126   3.605
 5257TIP3    H215736   3.577   6.032   3.723
 5258TIP3   OH215737   3.101   5.299   5.685
 5258TIP3    H115738   3.094   5.388   5.651
 5258TIP3    H215739   3.080   5.307   5.778
 5259TIP3   OH215740   6.923   0.452   3.555
 5259TIP3    H115741   6.905   0.438   3.462
 5259TIP3    H215742   6.841   0.484   3.592
 5260TIP3   OH215743   5.969   1.560   3.809
 5260TIP3    H115744   5.891   1.593   3.765
 5260TIP3    H215745   5.993   1.629   3.871
 5261TIP3   OH215746   6.203   4.445   1.331
 5261TIP3    H115747   6.196   4.350   1.340
 5261TIP3    H215748   6.114   4.476   1.347
 5262TIP3   OH215749   3.391   3.882   4.832
 5262TIP3    H115750   3.443   3.802   4.841
 5262TIP3    H215751   3.399   3.905   4.739
 5263TIP3   OH215752   4.913   3.167   5.113
 5263TIP3    H115753   4.860   3.215   5.177
 5263TIP3    H215754   4.980   3.229   5.085
 5264TIP3   OH215755   3.351   5.445   1.557
 5264TIP3    H115756   3.430   5.409   1.515
 5264TIP3    H215757   3.329   5.382   1.625
 5265TIP3   OH215758   5.218   4.152   5.104
 5265TIP3    H115759   5.216   4.127   5.196
 5265TIP3    H215760   5.139   4.113   5.067
 5266TIP3   OH215761   1.722   3.695   3.998
 5266TIP3    H115762   1.764   3.634   4.059
 5266TIP3    H215763   1.726   3.780   4.043
 5267TIP3   OH215764   5.151   3.073   5.344
 5267TIP3    H115765   5.216   3.135   5.376
 5267TIP3    H215766   5.197   3.023   5.277
 5268TIP3   OH215767   5.357   1.413   2.007
 5268TIP3    H115768   5.432   1.396   1.950
 5268TIP3    H215769   5.362   1.507   2.025
 5269TIP3   OH215770   2.478   6.468   5.530
 5269TIP3    H115771   2.458   6.376   5.515
 5269TIP3    H215772   2.510   6.472   5.620
 5270TIP3   OH215773   4.585   3.849   0.961
 5270TIP3    H115774   4.590   3.904   0.883
 5270TIP3    H215775   4.506   3.879   1.006
 5271TIP3   OH215776   5.652   4.655   0.520
 5271TIP3    H115777   5.584   4.713   0.556
 5271TIP3    H215778   5.647   4.668   0.425
 5272TIP3   OH215779   4.772   2.704   4.622
 5272TIP3    H115780   4.862   2.722   4.595
 5272TIP3    H215781   4.734   2.790   4.638
 5273TIP3   OH215782   2.054   4.448   3.898
 5273TIP3    H115783   1.976   4.419   3.851
 5273TIP3    H215784   2.102   4.502   3.834
 5274TIP3   OH215785   5.730   2.338   1.298
 5274TIP3    H115786   5.676   2.342   1.377
 5274TIP3    H215787   5.819   2.354   1.329
 5275TIP3   OH215788   1.137   5.820   1.797
 5275TIP3    H115789   1.113   5.890   1.857
 5275TIP3    H215790   1.209   5.775   1.840
 5276TIP3   OH215791   1.551   2.278   3.991
 5276TIP3    H115792   1.502   2.323   3.923
 5276TIP3    H215793   1.526   2.186   3.982
 5277TIP3   OH215794   0.352   1.980  -0.021
 5277TIP3    H115795   0.417   2.003   0.046
 5277TIP3    H215796   0.326   1.891   0.001
 5278TIP3   OH215797   6.542   0.060  -0.042
 5278TIP3    H115798   6.600   0.124   0.000
 5278TIP3    H215799   6.597  -0.016  -0.059
 5279TIP3   OH215800   0.122   1.792   2.709
 5279TIP3    H115801   0.212   1.810   2.683
 5279TIP3    H215802   0.069   1.820   2.635
 5280TIP3   OH215803   6.932   2.564   0.501
 5280TIP3    H115804   6.862   2.515   0.544
 5280TIP3    H215805   6.892   2.600   0.422
 5281TIP3   OH215806   2.120   5.662   0.845
 5281TIP3    H115807   2.160   5.736   0.799
 5281TIP3    H215808   2.077   5.701   0.921
 5282TIP3   OH215809   0.441   3.476   2.557
 5282TIP3    H115810   0.379   3.404   2.548
 5282TIP3    H215811   0.388   3.551   2.586
 5283TIP3   OH215812   3.273   5.571   2.225
 5283TIP3    H115813   3.239   5.646   2.274
 5283TIP3    H215814   3.240   5.583   2.136
 5284TIP3   OH215815   6.662   6.027   5.431
 5284TIP3    H115816   6.596   6.084   5.471
 5284TIP3    H215817   6.736   6.031   5.492
 5285TIP3   OH215818   5.944   0.060   2.333
 5285TIP3    H115819   5.939   0.132   2.395
 5285TIP3    H215820   5.882   0.083   2.264
 5286TIP3   OH215821   5.748   4.459   3.779
 5286TIP3    H115822   5.843   4.464   3.782
 5286TIP3    H215823   5.723   4.515   3.705
 5287TIP3   OH215824   3.159   1.041   5.387
 5287TIP3    H115825   3.149   1.026   5.293
 5287TIP3    H215826   3.254   1.038   5.401
 5288TIP3   OH215827   0.110   4.156   5.634
 5288TIP3    H115828   0.190   4.204   5.656
 5288TIP3    H215829   0.080   4.119   5.717
 5289TIP3   OH215830   2.694   3.757   0.509
 5289TIP3    H115831   2.617   3.712   0.473
 5289TIP3    H215832   2.658   3.833   0.555
 5290TIP3   OH215833   1.785   1.872   4.141
 5290TIP3    H115834   1.872   1.869   4.100
 5290TIP3    H215835   1.795   1.822   4.222
 5291TIP3   OH215836   4.954   2.741   3.781
 5291TIP3    H115837   4.971   2.827   3.819
 5291TIP3    H215838   4.922   2.760   3.693
 5292TIP3   OH215839   4.884   4.574   3.402
 5292TIP3    H115840   4.901   4.522   3.323
 5292TIP3    H215841   4.968   4.614   3.422
 5293TIP3   OH215842   2.800   4.020   1.786
 5293TIP3    H115843   2.850   4.096   1.755
 5293TIP3    H215844   2.759   4.051   1.867
 5294TIP3   OH215845   3.910   6.693   5.502
 5294TIP3    H115846   3.950   6.707   5.588
 5294TIP3    H215847   3.817   6.711   5.516
 5295TIP3   OH215848   6.088   0.350   2.235
 5295TIP3    H115849   6.112   0.442   2.238
 5295TIP3    H215850   6.016   0.341   2.297
 5296TIP3   OH215851   3.365   1.257   2.276
 5296TIP3    H115852   3.389   1.347   2.297
 5296TIP3    H215853   3.277   1.247   2.314
 5297TIP3   OH215854   3.465   0.857   3.335
 5297TIP3    H115855   3.420   0.882   3.254
 5297TIP3    H215856   3.508   0.774   3.314
 5298TIP3   OH215857   0.741   0.125   3.103
 5298TIP3    H115858   0.678   0.154   3.037
 5298TIP3    H215859   0.818   0.180   3.089
 5299TIP3   OH215860   0.767   5.798   0.951
 5299TIP3    H115861   0.733   5.767   0.867
 5299TIP3    H215862   0.848   5.844   0.929
 5300TIP3   OH215863   6.079   5.088   0.069
 5300TIP3    H115864   6.057   5.181   0.064
 5300TIP3    H215865   6.080   5.058  -0.022
 5301TIP3   OH215866   2.836   6.201   0.261
 5301TIP3    H115867   2.926   6.185   0.232
 5301TIP3    H215868   2.804   6.116   0.289
 5302TIP3   OH215869   1.154   3.013   3.581
 5302TIP3    H115870   1.090   3.051   3.641
 5302TIP3    H215871   1.161   3.076   3.510
 5303TIP3   OH215872   3.183   0.684   0.991
 5303TIP3    H115873   3.119   0.750   0.964
 5303TIP3    H215874   3.131   0.607   1.013
 5304TIP3   OH215875   1.076   6.525   5.473
 5304TIP3    H115876   1.032   6.479   5.402
 5304TIP3    H215877   1.158   6.477   5.485
 5305TIP3   OH215878   0.350   2.855   0.143
 5305TIP3    H115879   0.304   2.792   0.087
 5305TIP3    H215880   0.308   2.845   0.229
 5306TIP3   OH215881   6.097   2.142   2.867
 5306TIP3    H115882   6.180   2.099   2.887
 5306TIP3    H215883   6.065   2.097   2.789
 5307TIP3   OH215884   4.091   0.018   0.449
 5307TIP3    H115885   4.126   0.104   0.423
 5307TIP3    H215886   4.099   0.016   0.544
 5308TIP3   OH215887   0.861   4.619   1.149
 5308TIP3    H115888   0.896   4.685   1.089
 5308TIP3    H215889   0.870   4.537   1.101
 5309TIP3   OH215890   1.509   5.896   5.186
 5309TIP3    H115891   1.431   5.872   5.235
 5309TIP3    H215892   1.556   5.957   5.243
 5310TIP3   OH215893   6.346   0.926   3.238
 5310TIP3    H115894   6.439   0.920   3.261
 5310TIP3    H215895   6.307   0.846   3.273
 5311TIP3   OH215896   6.592   1.787   3.555
 5311TIP3    H115897   6.627   1.716   3.500
 5311TIP3    H215898   6.667   1.815   3.608
 5312TIP3   OH215899   1.235   6.347   3.348
 5312TIP3    H115900   1.246   6.267   3.297
 5312TIP3    H215901   1.140   6.356   3.358
 5313TIP3   OH215902   2.203   0.801   0.216
 5313TIP3    H115903   2.249   0.808   0.133
 5313TIP3    H215904   2.112   0.822   0.195
 5314TIP3   OH215905   0.990   2.203   3.886
 5314TIP3    H115906   0.984   2.294   3.916
 5314TIP3    H215907   0.905   2.165   3.907
 5315TIP3   OH215908   0.327   5.983   0.417
 5315TIP3    H115909   0.351   6.048   0.483
 5315TIP3    H215910   0.236   5.961   0.437
 5316TIP3   OH215911   5.481   5.381   2.347
 5316TIP3    H115912   5.478   5.477   2.353
 5316TIP3    H215913   5.573   5.359   2.354
 5317TIP3   OH215914   0.052   2.568   1.659
 5317TIP3    H115915  -0.025   2.569   1.716
 5317TIP3    H215916   0.058   2.658   1.626
 5318TIP3   OH215917   2.210   0.291   2.746
 5318TIP3    H115918   2.259   0.285   2.828
 5318TIP3    H215919   2.267   0.252   2.680
 5319TIP3   OH215920   1.991   3.650   4.102
 5319TIP3    H115921   2.037   3.732   4.119
 5319TIP3    H215922   1.980   3.610   4.188
 5320TIP3   OH215923   6.361   3.823   5.642
 5320TIP3    H115924   6.317   3.874   5.574
 5320TIP3    H215925   6.307   3.833   5.720
 5321TIP3   OH215926   5.709   6.397   4.615
 5321TIP3    H115927   5.766   6.446   4.674
 5321TIP3    H215928   5.768   6.345   4.562
 5322TIP3   OH215929   2.287   3.043   3.402
 5322TIP3    H115930   2.226   3.046   3.476
 5322TIP3    H215931   2.281   3.130   3.363
 5323TIP3   OH215932   5.674   4.782   3.214
 5323TIP3    H115933   5.597   4.807   3.264
 5323TIP3    H215934   5.664   4.688   3.199
 5324TIP3   OH215935   4.441   2.092   1.949
 5324TIP3    H115936   4.491   2.141   2.014
 5324TIP3    H215937   4.470   2.128   1.865
 5325TIP3   OH215938   2.027   5.789   1.067
 5325TIP3    H115939   1.983   5.715   1.108
 5325TIP3    H215940   2.080   5.828   1.136
 5326TIP3   OH215941   6.056   6.634   0.069
 5326TIP3    H115942   5.991   6.643   0.138
 5326TIP3    H215943   6.044   6.712   0.015
 5327TIP3   OH215944   4.543   6.623   3.410
 5327TIP3    H115945   4.492   6.545   3.433
 5327TIP3    H215946   4.502   6.694   3.460
 5328TIP3   OH215947   7.032   4.963   4.327
 5328TIP3    H115948   7.032   4.899   4.398
 5328TIP3    H215949   7.021   5.047   4.372
 5329TIP3   OH215950   5.982   6.582   1.249
 5329TIP3    H115951   5.895   6.606   1.282
 5329TIP3    H215952   6.023   6.536   1.322
 5330TIP3   OH215953   3.001   3.297   0.500
 5330TIP3    H115954   2.951   3.373   0.533
 5330TIP3    H215955   2.998   3.305   0.405
 5331TIP3   OH215956   4.934   6.571   0.420
 5331TIP3    H115957   4.943   6.665   0.436
 5331TIP3    H215958   5.022   6.544   0.392
 5332TIP3   OH215959   5.689   1.500   4.042
 5332TIP3    H115960   5.606   1.534   4.010
 5332TIP3    H215961   5.683   1.406   4.030
 5333TIP3   OH215962   5.819   2.264   2.259
 5333TIP3    H115963   5.788   2.333   2.319
 5333TIP3    H215964   5.814   2.184   2.310
 5334TIP3   OH215965   1.561   1.228   1.971
 5334TIP3    H115966   1.557   1.132   1.970
 5334TIP3    H215967   1.472   1.255   1.994
 5335TIP3   OH215968   6.907   0.712   5.049
 5335TIP3    H115969   6.967   0.698   5.122
 5335TIP3    H215970   6.858   0.630   5.042
 5336TIP3   OH215971   5.907   1.000   0.683
 5336TIP3    H115972   5.880   1.001   0.591
 5336TIP3    H215973   5.883   0.913   0.714
 5337TIP3   OH215974   2.178   3.383   2.012
 5337TIP3    H115975   2.153   3.474   2.028
 5337TIP3    H215976   2.179   3.343   2.100
 5338TIP3   OH215977   2.570   5.710   5.562
 5338TIP3    H115978   2.568   5.795   5.605
 5338TIP3    H215979   2.491   5.665   5.591
 5339TIP3   OH215980   0.058   5.345   4.002
 5339TIP3    H115981   0.138   5.293   4.001
 5339TIP3    H215982   0.011   5.316   4.081
 5340TIP3   OH215983   2.315   4.241   0.606
 5340TIP3    H115984   2.347   4.315   0.657
 5340TIP3    H215985   2.234   4.273   0.565
 5341TIP3   OH215986   6.352   3.551   0.858
 5341TIP3    H115987   6.375   3.626   0.914
 5341TIP3    H215988   6.261   3.532   0.880
 5342TIP3   OH215989   1.962   3.118   2.055
 5342TIP3    H115990   1.984   3.049   2.117
 5342TIP3    H215991   1.947   3.195   2.109
 5343TIP3   OH215992   2.445   0.978   3.236
 5343TIP3    H115993   2.492   0.930   3.168
 5343TIP3    H215994   2.503   1.050   3.259
 5344TIP3   OH215995   5.590   1.300   4.371
 5344TIP3    H115996   5.505   1.344   4.369
 5344TIP3    H215997   5.570   1.211   4.401
 5345TIP3   OH215998   5.476   5.427   4.813
 5345TIP3    H115999   5.478   5.517   4.846
 5345TIP3    H216000   5.450   5.436   4.722
 5346TIP3   OH216001   2.639   4.249   2.379
 5346TIP3    H116002   2.697   4.174   2.364
 5346TIP3    H216003   2.698   4.321   2.401
 5347TIP3   OH216004   5.934   4.490   1.397
 5347TIP3    H116005   5.879   4.433   1.342
 5347TIP3    H216006   5.901   4.477   1.485
 5348TIP3   OH216007   3.711   4.464   3.004
 5348TIP3    H116008   3.793   4.423   3.029
 5348TIP3    H216009   3.737   4.539   2.950
 5349TIP3   OH216010   2.570   5.743   4.534
 5349TIP3    H116011   2.584   5.721   4.627
 5349TIP3    H216012   2.656   5.772   4.504
 5350TIP3   OH216013   0.889   0.345   4.612
 5350TIP3    H116014   0.819   0.307   4.560
 5350TIP3    H216015   0.856   0.345   4.702
 5351TIP3   OH216016   4.500   0.889   4.183
 5351TIP3    H116017   4.426   0.833   4.162
 5351TIP3    H216018   4.474   0.935   4.263
 5352TIP3   OH216019   7.121   6.479   3.475
 5352TIP3    H116020   7.190   6.526   3.427
 5352TIP3    H216021   7.161   6.458   3.559
 5353TIP3   OH216022   5.675   5.243   3.734
 5353TIP3    H116023   5.661   5.167   3.676
 5353TIP3    H216024   5.769   5.244   3.749
 5354TIP3   OH216025   5.129   1.881   4.481
 5354TIP3    H116026   5.170   1.795   4.494
 5354TIP3    H216027   5.058   1.884   4.545
 5355TIP3   OH216028   0.235   3.497  -0.039
 5355TIP3    H116029   0.287   3.419  -0.061
 5355TIP3    H216030   0.290   3.545   0.023
 5356TIP3   OH216031   6.076   3.710   3.245
 5356TIP3    H116032   5.994   3.713   3.292
 5356TIP3    H216033   6.105   3.619   3.252
 5357TIP3   OH216034   3.898   0.828   3.872
 5357TIP3    H116035   3.839   0.875   3.813
 5357TIP3    H216036   3.972   0.887   3.884
 5358TIP3   OH216037   6.680   1.288   3.578
 5358TIP3    H116038   6.725   1.228   3.518
 5358TIP3    H216039   6.600   1.241   3.603
 5359TIP3   OH216040   6.177   0.871   0.606
 5359TIP3    H116041   6.103   0.829   0.563
 5359TIP3    H216042   6.246   0.871   0.540
 5360TIP3   OH216043   6.681   2.412   2.105
 5360TIP3    H116044   6.600   2.461   2.117
 5360TIP3    H216045   6.690   2.405   2.010
 5361TIP3   OH216046   7.030   6.244   2.113
 5361TIP3    H116047   7.072   6.309   2.169
 5361TIP3    H216048   6.965   6.202   2.170
 5362TIP3   OH216049   3.777   3.795   1.657
 5362TIP3    H116050   3.717   3.863   1.626
 5362TIP3    H216051   3.762   3.791   1.752
 5363TIP3   OH216052   4.265   2.822   3.903
 5363TIP3    H116053   4.190   2.859   3.950
 5363TIP3    H216054   4.299   2.895   3.851
 5364TIP3   OH216055   2.693   4.966   2.998
 5364TIP3    H116056   2.666   5.043   2.948
 5364TIP3    H216057   2.612   4.930   3.033
 5365TIP3   OH216058   5.735   6.197   2.747
 5365TIP3    H116059   5.733   6.131   2.816
 5365TIP3    H216060   5.807   6.170   2.690
 5366TIP3   OH216061   1.996   6.083   2.266
 5366TIP3    H116062   2.083   6.055   2.293
 5366TIP3    H216063   1.978   6.161   2.319
 5367TIP3   OH216064   6.773   3.662   1.227
 5367TIP3    H116065   6.851   3.614   1.256
 5367TIP3    H216066   6.705   3.596   1.221
 5368TIP3   OH216067   6.054   6.055   4.302
 5368TIP3    H116068   6.016   6.004   4.231
 5368TIP3    H216069   6.044   5.999   4.380
 5369TIP3   OH216070   5.624   1.714   4.261
 5369TIP3    H116071   5.533   1.737   4.279
 5369TIP3    H216072   5.619   1.656   4.185
 5370TIP3   OH216073   1.193   0.266   2.178
 5370TIP3    H116074   1.219   0.188   2.228
 5370TIP3    H216075   1.268   0.284   2.121
 5371TIP3   OH216076   1.560   2.468   0.350
 5371TIP3    H116077   1.509   2.489   0.272
 5371TIP3    H216078   1.610   2.548   0.368
 5372TIP3   OH216079   4.313   5.443   2.989
 5372TIP3    H116080   4.279   5.401   2.910
 5372TIP3    H216081   4.238   5.447   3.049
 5373TIP3   OH216082   3.500   2.854   3.396
 5373TIP3    H116083   3.564   2.806   3.448
 5373TIP3    H216084   3.418   2.805   3.407
 5374TIP3   OH216085   3.896   5.117   1.330
 5374TIP3    H116086   3.909   5.165   1.411
 5374TIP3    H216087   3.805   5.087   1.333
 5375TIP3   OH216088   6.935   2.680   2.927
 5375TIP3    H116089   6.974   2.717   2.848
 5375TIP3    H216090   7.001   2.693   2.995
 5376TIP3   OH216091   5.553   2.124   5.583
 5376TIP3    H116092   5.612   2.164   5.647
 5376TIP3    H216093   5.609   2.063   5.535
 5377TIP3   OH216094   1.578   4.417   1.527
 5377TIP3    H116095   1.586   4.399   1.621
 5377TIP3    H216096   1.579   4.512   1.520
 5378TIP3   OH216097   5.869   3.886   2.823
 5378TIP3    H116098   5.776   3.865   2.838
 5378TIP3    H216099   5.874   3.909   2.731
 5379TIP3   OH216100   3.567   1.081   3.452
 5379TIP3    H116101   3.498   1.132   3.411
 5379TIP3    H216102   3.551   0.991   3.423
 5380TIP3   OH216103   1.364   1.938   3.620
 5380TIP3    H116104   1.282   1.900   3.650
 5380TIP3    H216105   1.432   1.891   3.668
 5381TIP3   OH216106   6.238   6.394   5.481
 5381TIP3    H116107   6.185   6.465   5.518
 5381TIP3    H216108   6.326   6.432   5.474
 5382TIP3   OH216109   0.581   4.659   2.489
 5382TIP3    H116110   0.661   4.616   2.518
 5382TIP3    H216111   0.581   4.743   2.534
 5383TIP3   OH216112   7.113   1.792   1.454
 5383TIP3    H116113   7.136   1.775   1.545
 5383TIP3    H216114   7.035   1.739   1.439
 5384TIP3   OH216115   5.880   2.372   0.900
 5384TIP3    H116116   5.843   2.392   0.814
 5384TIP3    H216117   5.938   2.445   0.920
 5385TIP3   OH216118   0.674   2.047   4.570
 5385TIP3    H116119   0.716   2.059   4.655
 5385TIP3    H216120   0.697   2.126   4.521
 5386TIP3   OH216121   6.125   4.879   1.184
 5386TIP3    H116122   6.048   4.827   1.204
 5386TIP3    H216123   6.153   4.914   1.269
 5387TIP3   OH216124   7.105   2.952   4.221
 5387TIP3    H116125   7.095   3.036   4.176
 5387TIP3    H216126   7.194   2.924   4.199
 5388TIP3   OH216127   1.299   2.451   3.298
 5388TIP3    H116128   1.385   2.473   3.334
 5388TIP3    H216129   1.237   2.483   3.363
 5389TIP3   OH216130   3.077   6.074   3.618
 5389TIP3    H116131   2.985   6.100   3.619
 5389TIP3    H216132   3.126   6.156   3.612
 5390TIP3   OH216133   2.727   4.600   4.607
 5390TIP3    H116134   2.776   4.669   4.652
 5390TIP3    H216135   2.793   4.553   4.556
 5391TIP3   OH216136   6.761   5.513   1.305
 5391TIP3    H116137   6.852   5.489   1.290
 5391TIP3    H216138   6.716   5.429   1.317
 5392TIP3   OH216139   3.130   0.563   1.591
 5392TIP3    H116140   3.067   0.540   1.659
 5392TIP3    H216141   3.143   0.481   1.543
 5393TIP3   OH216142   4.163   6.181   5.144
 5393TIP3    H116143   4.254   6.176   5.173
 5393TIP3    H216144   4.163   6.243   5.072
 5394TIP3   OH216145   6.092   1.961   5.588
 5394TIP3    H116146   6.150   1.895   5.626
 5394TIP3    H216147   6.070   1.928   5.501
 5395TIP3   OH216148   1.239   3.445   5.352
 5395TIP3    H116149   1.293   3.450   5.430
 5395TIP3    H216150   1.208   3.355   5.350
 5396TIP3   OH216151   3.564   4.397   3.488
 5396TIP3    H116152   3.641   4.412   3.434
 5396TIP3    H216153   3.598   4.378   3.575
 5397TIP3   OH216154   4.586   1.625   3.754
 5397TIP3    H116155   4.645   1.585   3.690
 5397TIP3    H216156   4.517   1.665   3.701
 5398TIP3   OH216157   4.575   4.509   1.893
 5398TIP3    H116158   4.634   4.434   1.888
 5398TIP3    H216159   4.599   4.563   1.818
 5399TIP3   OH216160   4.856   3.282   1.880
 5399TIP3    H116161   4.810   3.291   1.797
 5399TIP3    H216162   4.851   3.189   1.900
 5400TIP3   OH216163   1.031   0.486   5.257
 5400TIP3    H116164   1.121   0.513   5.239
 5400TIP3    H216165   0.986   0.567   5.280
 5401TIP3   OH216166   1.546   3.852   0.031
 5401TIP3    H116167   1.623   3.856   0.088
 5401TIP3    H216168   1.483   3.912   0.071
 5402TIP3   OH216169   6.738   5.350   0.497
 5402TIP3    H116170   6.669   5.402   0.538
 5402TIP3    H216171   6.722   5.358   0.403
 5403TIP3   OH216172   2.773   2.353   2.361
 5403TIP3    H116173   2.691   2.320   2.400
 5403TIP3    H216174   2.792   2.291   2.291
 5404TIP3   OH216175   5.920   1.846   0.656
 5404TIP3    H116176   6.008   1.868   0.623
 5404TIP3    H216177   5.887   1.928   0.693
 5405TIP3   OH216178   6.987   4.328   0.328
 5405TIP3    H116179   6.930   4.256   0.299
 5405TIP3    H216180   7.025   4.297   0.410
 5406TIP3   OH216181   3.463   1.464   3.268
 5406TIP3    H116182   3.478   1.510   3.185
 5406TIP3    H216183   3.432   1.378   3.242
 5407TIP3   OH216184   3.742   0.007   3.406
 5407TIP3    H116185   3.738   0.097   3.372
 5407TIP3    H216186   3.835  -0.015   3.403
 5408TIP3   OH216187   4.053   3.759   4.044
 5408TIP3    H116188   4.090   3.805   4.119
 5408TIP3    H216189   3.958   3.767   4.054
 5409TIP3   OH216190   0.356   1.280   5.602
 5409TIP3    H116191   0.292   1.342   5.566
 5409TIP3    H216192   0.412   1.258   5.528
 5410TIP3   OH216193   1.445   5.018   3.300
 5410TIP3    H116194   1.383   4.951   3.326
 5410TIP3    H216195   1.412   5.050   3.216
 5411TIP3   OH216196   4.283   4.916   1.569
 5411TIP3    H116197   4.294   5.002   1.610
 5411TIP3    H216198   4.332   4.856   1.625
 5412TIP3   OH216199   2.013   1.174   3.856
 5412TIP3    H116200   2.016   1.258   3.901
 5412TIP3    H216201   2.090   1.173   3.800
 5413TIP3   OH216202   1.896   0.399   3.309
 5413TIP3    H116203   1.918   0.438   3.393
 5413TIP3    H216204   1.980   0.379   3.268
 5414TIP3   OH216205   5.855   1.295   1.855
 5414TIP3    H116206   5.901   1.294   1.771
 5414TIP3    H216207   5.782   1.356   1.841
 5415TIP3   OH216208   6.277   2.547   4.525
 5415TIP3    H116209   6.340   2.477   4.510
 5415TIP3    H216210   6.322   2.626   4.493
 5416TIP3   OH216211   2.504   0.129   2.823
 5416TIP3    H116212   2.534   0.157   2.737
 5416TIP3    H216213   2.458   0.047   2.807
 5417TIP3   OH216214   4.918   3.865   0.974
 5417TIP3    H116215   4.847   3.865   0.910
 5417TIP3    H216216   4.873   3.866   1.059
 5418TIP3   OH216217   5.427   0.800   2.917
 5418TIP3    H116218   5.494   0.734   2.903
 5418TIP3    H216219   5.346   0.751   2.931
 5419TIP3   OH216220   7.128   5.210   2.713
 5419TIP3    H116221   7.214   5.167   2.715
 5419TIP3    H216222   7.067   5.140   2.689
 5420TIP3   OH216223   5.665   4.267   2.816
 5420TIP3    H116224   5.715   4.287   2.894
 5420TIP3    H216225   5.676   4.344   2.760
 5421TIP3   OH216226   0.751   1.711   0.916
 5421TIP3    H116227   0.751   1.618   0.896
 5421TIP3    H216228   0.715   1.753   0.839
 5422TIP3   OH216229   5.960   3.465   1.850
 5422TIP3    H116230   5.880   3.428   1.813
 5422TIP3    H216231   6.009   3.496   1.775
 5423TIP3   OH216232   6.208   5.864   4.065
 5423TIP3    H116233   6.219   5.844   3.973
 5423TIP3    H216234   6.135   5.927   4.068
 5424TIP3   OH216235   3.009   1.408   2.597
 5424TIP3    H116236   2.925   1.372   2.567
 5424TIP3    H216237   2.986   1.460   2.674
 5425TIP3   OH216238   2.388   4.899   4.035
 5425TIP3    H116239   2.393   4.838   4.108
 5425TIP3    H216240   2.478   4.929   4.022
 5426TIP3   OH216241   0.974   6.527   0.222
 5426TIP3    H116242   1.041   6.536   0.154
 5426TIP3    H216243   0.893   6.511   0.173
 5427TIP3   OH216244   1.727   6.037   0.719
 5427TIP3    H116245   1.763   6.010   0.635
 5427TIP3    H216246   1.790   6.006   0.784
 5428TIP3   OH216247   5.663   4.187   2.126
 5428TIP3    H116248   5.611   4.163   2.203
 5428TIP3    H216249   5.684   4.103   2.085
 5429TIP3   OH216250   6.592   3.437   1.209
 5429TIP3    H116251   6.616   3.369   1.145
 5429TIP3    H216252   6.539   3.391   1.274
 5430TIP3   OH216253   4.487   2.638   2.126
 5430TIP3    H116254   4.437   2.696   2.184
 5430TIP3    H216255   4.453   2.550   2.145
 5431TIP3   OH216256   4.110   1.842   3.154
 5431TIP3    H116257   4.048   1.800   3.094
 5431TIP3    H216258   4.176   1.881   3.097
 5432TIP3   OH216259   4.021   1.254   5.235
 5432TIP3    H116260   3.957   1.184   5.222
 5432TIP3    H216261   3.970   1.334   5.234
 5433TIP3   OH216262   5.877   0.732   0.756
 5433TIP3    H116263   5.917   0.682   0.826
 5433TIP3    H216264   5.911   0.693   0.675
 5434TIP3   OH216265   5.348   5.562   4.241
 5434TIP3    H116266   5.319   5.653   4.250
 5434TIP3    H216267   5.269   5.511   4.258
 5435TIP3   OH216268   3.085   2.339   5.785
 5435TIP3    H116269   2.995   2.333   5.815
 5435TIP3    H216270   3.135   2.371   5.860
 5436TIP3   OH216271   5.716   4.935   1.015
 5436TIP3    H116272   5.757   4.921   1.101
 5436TIP3    H216273   5.783   4.910   0.952
 5437TIP3   OH216274   3.121   3.578   5.848
 5437TIP3    H116275   3.156   3.489   5.848
 5437TIP3    H216276   3.077   3.587   5.763
 5438TIP3   OH216277   6.551   0.679   3.889
 5438TIP3    H116278   6.492   0.730   3.945
 5438TIP3    H216279   6.522   0.588   3.900
 5439TIP3   OH216280   4.329   1.038   4.524
 5439TIP3    H116281   4.297   0.996   4.445
 5439TIP3    H216282   4.382   0.971   4.567
 5440TIP3   OH216283   3.731   4.331   0.956
 5440TIP3    H116284   3.643   4.350   0.925
 5440TIP3    H216285   3.720   4.309   1.049
 5441TIP3   OH216286   2.429   1.312   3.415
 5441TIP3    H116287   2.509   1.263   3.398
 5441TIP3    H216288   2.399   1.280   3.500
 5442TIP3   OH216289   5.078   3.775   4.943
 5442TIP3    H116290   5.152   3.776   5.003
 5442TIP3    H216291   5.116   3.800   4.858
 5443TIP3   OH216292   2.903   0.879   3.344
 5443TIP3    H116293   2.854   0.869   3.426
 5443TIP3    H216294   2.948   0.962   3.353
 5444TIP3   OH216295   3.849   4.902   4.478
 5444TIP3    H116296   3.862   4.946   4.394
 5444TIP3    H216297   3.755   4.885   4.481
 5445TIP3   OH216298   4.627   4.538   2.316
 5445TIP3    H116299   4.713   4.536   2.273
 5445TIP3    H216300   4.566   4.561   2.247
 5446TIP3   OH216301   5.894   6.190   0.490
 5446TIP3    H116302   5.802   6.217   0.488
 5446TIP3    H216303   5.942   6.269   0.513
 5447TIP3   OH216304   2.568   2.298   5.620
 5447TIP3    H116305   2.636   2.232   5.606
 5447TIP3    H216306   2.614   2.382   5.613
 5448TIP3   OH216307   3.975   3.183   2.648
 5448TIP3    H116308   4.058   3.187   2.601
 5448TIP3    H216309   3.933   3.102   2.617
 5449TIP3   OH216310   7.173   4.070   4.296
 5449TIP3    H116311   7.228   4.148   4.307
 5449TIP3    H216312   7.234   4.002   4.267
 5450TIP3   OH216313   4.363   1.176   0.087
 5450TIP3    H116314   4.303   1.183   0.161
 5450TIP3    H216315   4.360   1.084   0.062
 5451TIP3   OH216316   6.733   2.778   2.373
 5451TIP3    H116317   6.822   2.775   2.408
 5451TIP3    H216318   6.745   2.791   2.279
 5452TIP3   OH216319   4.263   4.792   0.194
 5452TIP3    H116320   4.168   4.789   0.204
 5452TIP3    H216321   4.289   4.701   0.185
 5453TIP3   OH216322   0.988   6.555   2.913
 5453TIP3    H116323   1.009   6.644   2.940
 5453TIP3    H216324   1.054   6.501   2.957
 5454TIP3   OH216325   0.872   5.151   0.634
 5454TIP3    H116326   0.956   5.109   0.615
 5454TIP3    H216327   0.807   5.098   0.588
 5455TIP3   OH216328   5.943   6.773   5.053
 5455TIP3    H116329   6.014   6.766   5.117
 5455TIP3    H216330   5.903   6.686   5.052
 5456TIP3   OH216331   2.797   5.390   4.816
 5456TIP3    H116332   2.824   5.472   4.857
 5456TIP3    H216333   2.842   5.390   4.732
 5457TIP3   OH216334   1.119   0.523   0.494
 5457TIP3    H116335   1.035   0.557   0.526
 5457TIP3    H216336   1.096   0.468   0.420
 5458TIP3   OH216337   1.652   2.619   3.646
 5458TIP3    H116338   1.745   2.606   3.663
 5458TIP3    H216339   1.611   2.619   3.732
 5459TIP3   OH216340   3.065   5.439   0.061
 5459TIP3    H116341   3.128   5.447  -0.010
 5459TIP3    H216342   3.112   5.391   0.130
 5460TIP3   OH216343   5.629   2.705   5.535
 5460TIP3    H116344   5.616   2.626   5.588
 5460TIP3    H216345   5.542   2.743   5.528
 5461TIP3   OH216346   6.676   4.974   2.760
 5461TIP3    H116347   6.642   4.901   2.811
 5461TIP3    H216348   6.616   5.046   2.779
 5462TIP3   OH216349   5.820   1.416   1.521
 5462TIP3    H116350   5.874   1.479   1.568
 5462TIP3    H216351   5.738   1.462   1.502
 5463TIP3   OH216352   0.035   2.716   2.819
 5463TIP3    H116353  -0.050   2.734   2.778
 5463TIP3    H216354   0.079   2.801   2.821
 5464TIP3   OH216355   0.203   5.939   3.415
 5464TIP3    H116356   0.242   5.981   3.338
 5464TIP3    H216357   0.182   6.011   3.474
 5465TIP3   OH216358   5.183   3.018   0.133
 5465TIP3    H116359   5.119   2.988   0.069
 5465TIP3    H216360   5.134   3.079   0.189
 5466TIP3   OH216361   0.483   0.441   4.649
 5466TIP3    H116362   0.478   0.452   4.554
 5466TIP3    H216363   0.546   0.508   4.677
 5467TIP3   OH216364   0.745   0.901   4.139
 5467TIP3    H116365   0.834   0.866   4.145
 5467TIP3    H216366   0.752   0.974   4.077
 5468TIP3   OH216367   0.304   0.319   1.158
 5468TIP3    H116368   0.281   0.404   1.197
 5468TIP3    H216369   0.327   0.264   1.233
 5469TIP3   OH216370   4.184   2.208   2.481
 5469TIP3    H116371   4.133   2.280   2.519
 5469TIP3    H216372   4.274   2.240   2.479
 5470TIP3   OH216373   0.330   6.327   0.223
 5470TIP3    H116374   0.280   6.353   0.146
 5470TIP3    H216375   0.275   6.261   0.266
 5471TIP3   OH216376   1.519   3.385   5.305
 5471TIP3    H116377   1.442   3.443   5.300
 5471TIP3    H216378   1.593   3.442   5.286
 5472TIP3   OH216379   6.630   5.304   2.542
 5472TIP3    H116380   6.599   5.222   2.582
 5472TIP3    H216381   6.552   5.360   2.540
 5473TIP3   OH216382   2.058   4.359   4.689
 5473TIP3    H116383   1.978   4.390   4.645
 5473TIP3    H216384   2.084   4.281   4.640
 5474TIP3   OH216385   1.673   0.952   2.545
 5474TIP3    H116386   1.639   1.017   2.484
 5474TIP3    H216387   1.707   0.882   2.490
 5475TIP3   OH216388   1.560   0.875   2.940
 5475TIP3    H116389   1.556   0.824   3.020
 5475TIP3    H216390   1.640   0.927   2.949
 5476TIP3   OH216391   4.421   2.351   2.510
 5476TIP3    H116392   4.515   2.333   2.502
 5476TIP3    H216393   4.416   2.445   2.530
 5477TIP3   OH216394   0.323   1.422   4.141
 5477TIP3    H116395   0.309   1.342   4.191
 5477TIP3    H216396   0.418   1.425   4.125
 5478TIP3   OH216397   3.021   4.714   1.991
 5478TIP3    H116398   2.936   4.757   2.004
 5478TIP3    H216399   3.032   4.710   1.896
 5479TIP3   OH216400   1.668   6.523   4.999
 5479TIP3    H116401   1.582   6.552   4.970
 5479TIP3    H216402   1.694   6.586   5.066
 5480TIP3   OH216403   5.077   3.476   2.860
 5480TIP3    H116404   4.998   3.514   2.897
 5480TIP3    H216405   5.148   3.507   2.917
 5481TIP3   OH216406   1.077   0.716   1.932
 5481TIP3    H116407   1.123   0.686   1.854
 5481TIP3    H216408   1.120   0.669   2.004
 5482TIP3   OH216409   2.777   4.578   3.779
 5482TIP3    H116410   2.810   4.518   3.846
 5482TIP3    H216411   2.687   4.595   3.805
 5483TIP3   OH216412   3.304   2.875   3.781
 5483TIP3    H116413   3.211   2.864   3.759
 5483TIP3    H216414   3.339   2.927   3.709
 5484TIP3   OH216415   4.822   1.473   2.908
 5484TIP3    H116416   4.762   1.501   2.839
 5484TIP3    H216417   4.792   1.520   2.986
 5485TIP3   OH216418   5.792   4.641   5.570
 5485TIP3    H116419   5.876   4.657   5.528
 5485TIP3    H216420   5.783   4.711   5.635
 5486TIP3   OH216421   6.163   1.658   5.302
 5486TIP3    H116422   6.238   1.647   5.242
 5486TIP3    H216423   6.181   1.597   5.373
 5487TIP3   OH216424   5.256   6.322   5.243
 5487TIP3    H116425   5.344   6.347   5.213
 5487TIP3    H216426   5.205   6.402   5.236
 5488TIP3   OH216427   1.351   5.612   3.784
 5488TIP3    H116428   1.316   5.667   3.714
 5488TIP3    H216429   1.370   5.673   3.855
 5489TIP3   OH216430   6.044   1.043   1.244
 5489TIP3    H116431   6.082   1.003   1.166
 5489TIP3    H216432   6.056   1.137   1.230
 5490TIP3   OH216433   5.096   2.457   5.206
 5490TIP3    H116434   5.132   2.546   5.196
 5490TIP3    H216435   5.173   2.401   5.208
 5491TIP3   OH216436   5.446   4.961   5.631
 5491TIP3    H116437   5.441   4.873   5.594
 5491TIP3    H216438   5.385   4.960   5.705
 5492TIP3   OH216439   2.199   3.729   0.112
 5492TIP3    H116440   2.293   3.741   0.095
 5492TIP3    H216441   2.156   3.797   0.059
 5493TIP3   OH216442   0.829   3.472   3.722
 5493TIP3    H116443   0.880   3.396   3.749
 5493TIP3    H216444   0.740   3.439   3.711
 5494TIP3   OH216445   2.889   2.633   3.894
 5494TIP3    H116446   2.813   2.690   3.883
 5494TIP3    H216447   2.895   2.619   3.988
 5495TIP3   OH216448   1.014  -0.004   2.079
 5495TIP3    H116449   1.019  -0.045   2.166
 5495TIP3    H216450   0.994   0.087   2.097
 5496TIP3   OH216451   6.702   4.424   3.464
 5496TIP3    H116452   6.791   4.457   3.481
 5496TIP3    H216453   6.658   4.427   3.549
 5497TIP3   OH216454   7.108   3.703   4.789
 5497TIP3    H116455   7.162   3.676   4.715
 5497TIP3    H216456   7.040   3.759   4.751
 5498TIP3   OH216457   0.933   0.524   1.307
 5498TIP3    H116458   1.017   0.486   1.285
 5498TIP3    H216459   0.924   0.599   1.248
 5499TIP3   OH216460   5.190   6.281   2.376
 5499TIP3    H116461   5.229   6.202   2.339
 5499TIP3    H216462   5.226   6.353   2.325
 5500TIP3   OH216463   1.431   0.262   4.015
 5500TIP3    H116464   1.398   0.172   4.024
 5500TIP3    H216465   1.379   0.300   3.944
 5501TIP3   OH216466   0.531   5.823   4.251
 5501TIP3    H116467   0.470   5.779   4.309
 5501TIP3    H216468   0.503   5.914   4.251
 5502TIP3   OH216469   5.396   3.068   5.681
 5502TIP3    H116470   5.314   3.090   5.724
 5502TIP3    H216471   5.455   3.044   5.752
 5503TIP3   OH216472   4.021   4.004   5.439
 5503TIP3    H116473   4.113   3.979   5.439
 5503TIP3    H216474   3.986   3.970   5.357
 5504TIP3   OH216475   6.398   4.773   4.910
 5504TIP3    H116476   6.345   4.826   4.970
 5504TIP3    H216477   6.338   4.748   4.840
 5505TIP3   OH216478   3.266   2.003   0.442
 5505TIP3    H116479   3.273   2.035   0.532
 5505TIP3    H216480   3.232   2.077   0.392
 5506TIP3   OH216481   2.842   0.711   3.133
 5506TIP3    H116482   2.803   0.629   3.162
 5506TIP3    H216483   2.854   0.762   3.214
 5507TIP3   OH216484   5.385   5.346   2.617
 5507TIP3    H116485   5.359   5.253   2.614
 5507TIP3    H216486   5.422   5.363   2.530
 5508TIP3   OH216487   6.747   3.490   4.413
 5508TIP3    H116488   6.842   3.488   4.422
 5508TIP3    H216489   6.715   3.430   4.480
 5509TIP3   OH216490   6.382   2.066   0.758
 5509TIP3    H116491   6.467   2.045   0.795
 5509TIP3    H216492   6.392   2.051   0.664
 5510TIP3   OH216493   4.524   5.388  -0.012
 5510TIP3    H116494   4.517   5.483  -0.014
 5510TIP3    H216495   4.514   5.365   0.081
 5511TIP3   OH216496   4.548   0.788   2.906
 5511TIP3    H116497   4.596   0.783   2.989
 5511TIP3    H216498   4.580   0.867   2.864
 5512TIP3   OH216499   5.582   0.960   2.653
 5512TIP3    H116500   5.520   1.009   2.600
 5512TIP3    H216501   5.592   0.876   2.608
 5513TIP3   OH216502   2.706   5.339   2.984
 5513TIP3    H116503   2.632   5.320   2.927
 5513TIP3    H216504   2.779   5.289   2.946
 5514TIP3   OH216505   3.548   6.770   3.486
 5514TIP3    H116506   3.454   6.783   3.497
 5514TIP3    H216507   3.558   6.742   3.394
 5515TIP3   OH216508   0.257   2.970   5.111
 5515TIP3    H116509   0.168   2.943   5.090
 5515TIP3    H216510   0.281   2.919   5.189
 5516TIP3   OH216511   1.059   2.171   2.192
 5516TIP3    H116512   1.094   2.259   2.177
 5516TIP3    H216513   1.125   2.128   2.246
 5517TIP3   OH216514   1.322   3.099   0.887
 5517TIP3    H116515   1.405   3.059   0.862
 5517TIP3    H216516   1.289   3.042   0.957
 5518TIP3   OH216517   1.172   0.916   0.382
 5518TIP3    H116518   1.221   0.992   0.349
 5518TIP3    H216519   1.234   0.843   0.375
 5519TIP3   OH216520   0.550   4.644   2.204
 5519TIP3    H116521   0.632   4.611   2.168
 5519TIP3    H216522   0.571   4.664   2.296
 5520TIP3   OH216523   6.950   2.450   5.071
 5520TIP3    H116524   7.025   2.392   5.085
 5520TIP3    H216525   6.884   2.420   5.133
 5521TIP3   OH216526   3.315   0.410   4.200
 5521TIP3    H116527   3.284   0.416   4.109
 5521TIP3    H216528   3.292   0.495   4.238
 5522TIP3   OH216529   6.017   5.753   3.766
 5522TIP3    H116530   6.092   5.695   3.763
 5522TIP3    H216531   5.992   5.765   3.674
 5523TIP3   OH216532   2.377   2.028   4.444
 5523TIP3    H116533   2.308   2.089   4.469
 5523TIP3    H216534   2.396   1.979   4.524
 5524TIP3   OH216535   2.271   4.494   2.629
 5524TIP3    H116536   2.225   4.477   2.711
 5524TIP3    H216537   2.297   4.407   2.598
 5525TIP3   OH216538   2.658   1.160   3.321
 5525TIP3    H116539   2.731   1.121   3.370
 5525TIP3    H216540   2.697   1.190   3.239
 5526TIP3   OH216541   7.060   4.027   0.194
 5526TIP3    H116542   7.152   4.040   0.218
 5526TIP3    H216543   7.011   4.046   0.274
 5527TIP3   OH216544   2.928   2.016   0.525
 5527TIP3    H116545   2.862   1.972   0.578
 5527TIP3    H216546   2.962   1.948   0.468
 5528TIP3   OH216547   2.692   0.487   0.741
 5528TIP3    H116548   2.762   0.522   0.796
 5528TIP3    H216549   2.736   0.423   0.684
 5529TIP3   OH216550   1.486   4.420   1.186
 5529TIP3    H116551   1.527   4.499   1.152
 5529TIP3    H216552   1.460   4.443   1.275
 5530TIP3   OH216553   4.997   4.900   0.309
 5530TIP3    H116554   4.962   4.819   0.346
 5530TIP3    H216555   4.925   4.934   0.255
 5531TIP3   OH216556   2.148   5.759   5.644
 5531TIP3    H116557   2.223   5.714   5.681
 5531TIP3    H216558   2.073   5.723   5.691
 5532TIP3   OH216559   4.551   6.391   2.558
 5532TIP3    H116560   4.469   6.427   2.592
 5532TIP3    H216561   4.618   6.426   2.616
 5533TIP3   OH216562   7.091   2.505   3.356
 5533TIP3    H116563   7.089   2.450   3.278
 5533TIP3    H216564   7.025   2.467   3.414
 5534TIP3   OH216565   5.979   3.327   0.823
 5534TIP3    H116566   6.009   3.358   0.908
 5534TIP3    H216567   6.001   3.234   0.823
 5535TIP3   OH216568   4.664   1.470   1.166
 5535TIP3    H116569   4.609   1.455   1.090
 5535TIP3    H216570   4.607   1.513   1.229
 5536TIP3   OH216571   7.019   3.607   3.271
 5536TIP3    H116572   7.097   3.650   3.307
 5536TIP3    H216573   7.035   3.603   3.176
 5537TIP3   OH216574   3.513   6.252   3.449
 5537TIP3    H116575   3.421   6.279   3.450
 5537TIP3    H216576   3.562   6.335   3.445
 5538TIP3   OH216577   5.548   5.568   1.783
 5538TIP3    H116578   5.579   5.548   1.695
 5538TIP3    H216579   5.466   5.518   1.792
 5539TIP3   OH216580   2.453   3.514   5.654
 5539TIP3    H116581   2.457   3.510   5.749
 5539TIP3    H216582   2.528   3.568   5.629
 5540TIP3   OH216583   1.999   6.534   5.765
 5540TIP3    H116584   2.087   6.570   5.779
 5540TIP3    H216585   1.994   6.460   5.826
 5541TIP3   OH216586   2.807   4.424   3.257
 5541TIP3    H116587   2.882   4.428   3.317
 5541TIP3    H216588   2.837   4.370   3.184
 5542TIP3   OH216589   1.194   4.946   4.975
 5542TIP3    H116590   1.237   4.862   4.958
 5542TIP3    H216591   1.252   4.991   5.036
 5543TIP3   OH216592   6.614   3.264   1.894
 5543TIP3    H116593   6.583   3.316   1.819
 5543TIP3    H216594   6.591   3.174   1.871
 5544TIP3   OH216595   0.451   3.282   3.295
 5544TIP3    H116596   0.467   3.374   3.314
 5544TIP3    H216597   0.360   3.268   3.320
 5545TIP3   OH216598   1.247   0.716   5.254
 5545TIP3    H116599   1.259   0.811   5.247
 5545TIP3    H216600   1.324   0.686   5.303
 5546TIP3   OH216601   4.095   2.598   0.309
 5546TIP3    H116602   4.063   2.508   0.307
 5546TIP3    H216603   4.041   2.641   0.376
 5547TIP3   OH216604   0.870   5.937   3.286
 5547TIP3    H116605   0.828   5.878   3.224
 5547TIP3    H216606   0.815   5.933   3.364
 5548TIP3   OH216607   3.909   2.205   3.804
 5548TIP3    H116608   3.967   2.275   3.774
 5548TIP3    H216609   3.845   2.194   3.734
 5549TIP3   OH216610   3.263   5.769   3.569
 5549TIP3    H116611   3.218   5.714   3.505
 5549TIP3    H216612   3.215   5.852   3.566
 5550TIP3   OH216613   6.344   0.715   4.230
 5550TIP3    H116614   6.284   0.721   4.304
 5550TIP3    H216615   6.288   0.707   4.153
 5551TIP3   OH216616   3.824   1.447   4.764
 5551TIP3    H116617   3.752   1.451   4.827
 5551TIP3    H216618   3.796   1.504   4.692
 5552TIP3   OH216619   2.329   5.971   3.640
 5552TIP3    H116620   2.347   6.064   3.627
 5552TIP3    H216621   2.292   5.967   3.728
 5553TIP3   OH216622   6.844   4.366   1.349
 5553TIP3    H116623   6.792   4.432   1.393
 5553TIP3    H216624   6.796   4.284   1.362
 5554TIP3   OH216625   5.140   0.320   3.126
 5554TIP3    H116626   5.210   0.306   3.189
 5554TIP3    H216627   5.066   0.269   3.159
 5555TIP3   OH216628   0.357   5.827   5.145
 5555TIP3    H116629   0.396   5.912   5.161
 5555TIP3    H216630   0.362   5.781   5.229
 5556TIP3   OH216631   1.685   6.567   0.950
 5556TIP3    H116632   1.637   6.484   0.957
 5556TIP3    H216633   1.777   6.542   0.959
 5557TIP3   OH216634   4.059   4.312   2.581
 5557TIP3    H116635   4.039   4.405   2.585
 5557TIP3    H216636   3.981   4.272   2.542
 5558TIP3   OH216637   1.923   3.304   5.004
 5558TIP3    H116638   1.942   3.276   5.094
 5558TIP3    H216639   1.884   3.226   4.963
 5559TIP3   OH216640   5.400   3.480   0.289
 5559TIP3    H116641   5.482   3.474   0.337
 5559TIP3    H216642   5.357   3.558   0.322
 5560TIP3   OH216643   2.796   6.750   4.965
 5560TIP3    H116644   2.870   6.716   4.915
 5560TIP3    H216645   2.836   6.804   5.033
 5561TIP3   OH216646   4.169   0.913   5.547
 5561TIP3    H116647   4.120   0.951   5.620
 5561TIP3    H216648   4.237   0.860   5.589
 5562TIP3   OH216649   4.646   1.944   1.690
 5562TIP3    H116650   4.626   2.031   1.726
 5562TIP3    H216651   4.631   1.953   1.596
 5563TIP3   OH216652   6.100   6.372   1.051
 5563TIP3    H116653   6.068   6.444   1.104
 5563TIP3    H216654   6.187   6.352   1.087
 5564TIP3   OH216655   5.459   0.486   1.562
 5564TIP3    H116656   5.426   0.407   1.522
 5564TIP3    H216657   5.539   0.507   1.513
 5565TIP3   OH216658   4.610   6.617   3.820
 5565TIP3    H116659   4.580   6.680   3.755
 5565TIP3    H216660   4.623   6.669   3.900
 5566TIP3   OH216661   5.487   2.560   4.243
 5566TIP3    H116662   5.416   2.622   4.224
 5566TIP3    H216663   5.492   2.505   4.165
 5567TIP3   OH216664   0.561   4.160   1.460
 5567TIP3    H116665   0.649   4.146   1.423
 5567TIP3    H216666   0.542   4.078   1.506
 5568TIP3   OH216667   6.235   6.668   1.713
 5568TIP3    H116668   6.171   6.715   1.767
 5568TIP3    H216669   6.286   6.618   1.776
 5569TIP3   OH216670   4.174   0.889   3.161
 5569TIP3    H116671   4.135   0.898   3.248
 5569TIP3    H216672   4.269   0.890   3.177
 5570TIP3   OH216673   1.881   0.792   1.789
 5570TIP3    H116674   1.879   0.784   1.885
 5570TIP3    H216675   1.884   0.702   1.758
 5571TIP3   OH216676   2.003   3.660   1.695
 5571TIP3    H116677   2.003   3.725   1.765
 5571TIP3    H216678   2.091   3.623   1.697
 5572TIP3   OH216679   2.037   4.813   5.495
 5572TIP3    H116680   2.081   4.783   5.415
 5572TIP3    H216681   1.968   4.871   5.465
 5573TIP3   OH216682   4.909   0.816   2.787
 5573TIP3    H116683   4.979   0.854   2.735
 5573TIP3    H216684   4.847   0.888   2.801
 5574TIP3   OH216685   5.468   4.378   0.255
 5574TIP3    H116686   5.498   4.307   0.199
 5574TIP3    H216687   5.546   4.406   0.303
 5575TIP3   OH216688   4.201   6.653   4.353
 5575TIP3    H116689   4.207   6.577   4.295
 5575TIP3    H216690   4.174   6.725   4.296
 5576TIP3   OH216691   0.778   0.293   0.241
 5576TIP3    H116692   0.774   0.259   0.152
 5576TIP3    H216693   0.687   0.297   0.270
 5577TIP3   OH216694   6.793   4.253   5.831
 5577TIP3    H116695   6.804   4.239   5.736
 5577TIP3    H216696   6.706   4.220   5.850
 5578TIP3   OH216697   0.292   0.659   3.843
 5578TIP3    H116698   0.294   0.564   3.859
 5578TIP3    H216699   0.384   0.682   3.831
 5579TIP3   OH216700   2.463   2.909   1.572
 5579TIP3    H116701   2.499   2.859   1.645
 5579TIP3    H216702   2.422   2.985   1.611
 5580TIP3   OH216703   1.870   1.651   3.612
 5580TIP3    H116704   1.928   1.606   3.674
 5580TIP3    H216705   1.812   1.704   3.667
 5581TIP3   OH216706   3.930   0.625   2.938
 5581TIP3    H116707   3.896   0.582   3.017
 5581TIP3    H216708   3.974   0.555   2.890
 5582TIP3   OH216709   3.051   0.772   5.306
 5582TIP3    H116710   3.111   0.767   5.231
 5582TIP3    H216711   3.104   0.810   5.376
 5583TIP3   OH216712   1.260   1.664   1.554
 5583TIP3    H116713   1.218   1.645   1.638
 5583TIP3    H216714   1.346   1.700   1.578
 5584TIP3   OH216715   5.506   1.576   2.911
 5584TIP3    H116716   5.547   1.658   2.882
 5584TIP3    H216717   5.565   1.541   2.977
 5585TIP3   OH216718   5.817   6.568   5.362
 5585TIP3    H116719   5.733   6.561   5.409
 5585TIP3    H216720   5.816   6.655   5.323
 5586TIP3   OH216721   1.331   3.702   5.584
 5586TIP3    H116722   1.403   3.655   5.625
 5586TIP3    H216723   1.255   3.645   5.597
 5587TIP3   OH216724   2.090   0.347   4.142
 5587TIP3    H116725   2.047   0.333   4.058
 5587TIP3    H216726   2.162   0.284   4.144
 5588TIP3   OH216727   3.813   1.066   5.182
 5588TIP3    H116728   3.796   1.006   5.109
 5588TIP3    H216729   3.821   1.009   5.258
 5589TIP3   OH216730   3.238   5.094   4.001
 5589TIP3    H116731   3.203   5.082   4.089
 5589TIP3    H216732   3.206   5.180   3.974
 5590TIP3   OH216733   6.832   0.845   4.119
 5590TIP3    H116734   6.904   0.854   4.180
 5590TIP3    H216735   6.768   0.791   4.165
 5591TIP3   OH216736   0.833   3.763   4.359
 5591TIP3    H116737   0.759   3.703   4.363
 5591TIP3    H216738   0.799   3.840   4.313
 5592TIP3   OH216739   4.255   5.335   2.714
 5592TIP3    H116740   4.219   5.249   2.696
 5592TIP3    H216741   4.183   5.396   2.697
 5593TIP3   OH216742   4.096   2.735   5.491
 5593TIP3    H116743   4.187   2.725   5.517
 5593TIP3    H216744   4.099   2.742   5.395
 5594TIP3   OH216745   6.576   0.248   4.644
 5594TIP3    H116746   6.500   0.193   4.666
 5594TIP3    H216747   6.647   0.186   4.630
 5595TIP3   OH216748   1.167   1.406   4.813
 5595TIP3    H116749   1.219   1.463   4.756
 5595TIP3    H216750   1.141   1.333   4.756
 5596TIP3   OH216751   4.827   0.405   1.260
 5596TIP3    H116752   4.804   0.353   1.184
 5596TIP3    H216753   4.774   0.368   1.331
 5597TIP3   OH216754   3.951   4.653   4.222
 5597TIP3    H116755   3.893   4.666   4.146
 5597TIP3    H216756   3.951   4.558   4.235
 5598TIP3   OH216757   6.973   2.153   3.370
 5598TIP3    H116758   7.059   2.140   3.411
 5598TIP3    H216759   6.989   2.141   3.277
 5599TIP3   OH216760   2.187   5.713   2.259
 5599TIP3    H116761   2.253   5.777   2.230
 5599TIP3    H216762   2.238   5.635   2.280
 5600TIP3   OH216763   3.115   3.733   0.377
 5600TIP3    H116764   3.201   3.716   0.416
 5600TIP3    H216765   3.068   3.784   0.443
 5601TIP3   OH216766   5.517   0.918   3.440
 5601TIP3    H116767   5.538   1.012   3.446
 5601TIP3    H216768   5.501   0.903   3.347
 5602TIP3   OH216769   3.561   0.624   2.535
 5602TIP3    H116770   3.475   0.644   2.573
 5602TIP3    H216771   3.620   0.687   2.576
 5603TIP3   OH216772   4.786   4.689   5.076
 5603TIP3    H116773   4.701   4.709   5.038
 5603TIP3    H216774   4.845   4.681   5.001
 5604TIP3   OH216775   2.071   5.333   1.017
 5604TIP3    H116776   2.021   5.384   1.080
 5604TIP3    H216777   2.023   5.250   1.011
 5605TIP3   OH216778   4.390   2.602   0.430
 5605TIP3    H116779   4.478   2.586   0.396
 5605TIP3    H216780   4.345   2.518   0.419
 5606TIP3   OH216781   5.908   5.245   5.368
 5606TIP3    H116782   5.825   5.262   5.413
 5606TIP3    H216783   5.974   5.249   5.438
 5607TIP3   OH216784   5.222   4.760   1.307
 5607TIP3    H116785   5.188   4.683   1.352
 5607TIP3    H216786   5.306   4.732   1.271
 5608TIP3   OH216787   0.652   4.028   1.176
 5608TIP3    H116788   0.721   4.044   1.241
 5608TIP3    H216789   0.658   4.102   1.116
 5609TIP3   OH216790   0.042   4.774   1.381
 5609TIP3    H116791  -0.047   4.737   1.384
 5609TIP3    H216792   0.032   4.861   1.420
 5610TIP3   OH216793   2.470   2.367   5.341
 5610TIP3    H116794   2.493   2.357   5.433
 5610TIP3    H216795   2.484   2.280   5.303
 5611TIP3   OH216796   5.781   5.591   5.836
 5611TIP3    H116797   5.748   5.539   5.909
 5611TIP3    H216798   5.722   5.665   5.830
 5612TIP3   OH216799   2.629   0.062   5.301
 5612TIP3    H116800   2.618  -0.009   5.237
 5612TIP3    H216801   2.723   0.075   5.306
 5613TIP3   OH216802   3.192   0.294   0.195
 5613TIP3    H116803   3.166   0.204   0.176
 5613TIP3    H216804   3.115   0.346   0.174
 5614TIP3   OH216805   1.390   1.608   0.276
 5614TIP3    H116806   1.429   1.612   0.189
 5614TIP3    H216807   1.445   1.664   0.330
 5615TIP3   OH216808   5.045   2.255   0.433
 5615TIP3    H116809   4.990   2.283   0.360
 5615TIP3    H216810   5.130   2.236   0.393
 5616TIP3   OH216811   1.804   0.622   4.368
 5616TIP3    H116812   1.798   0.696   4.429
 5616TIP3    H216813   1.716   0.614   4.332
 5617TIP3   OH216814   0.059   0.393   0.883
 5617TIP3    H116815   0.111   0.422   0.958
 5617TIP3    H216816   0.115   0.411   0.807
 5618TIP3   OH216817   4.320   2.884   0.389
 5618TIP3    H116818   4.249   2.888   0.453
 5618TIP3    H216819   4.307   2.801   0.344
 5619TIP3   OH216820   1.797   4.914   2.557
 5619TIP3    H116821   1.755   4.986   2.511
 5619TIP3    H216822   1.891   4.925   2.539
 5620TIP3   OH216823   4.520   3.965   5.255
 5620TIP3    H116824   4.614   3.958   5.273
 5620TIP3    H216825   4.500   3.890   5.200
 5621TIP3   OH216826   3.256   1.449   5.163
 5621TIP3    H116827   3.302   1.399   5.096
 5621TIP3    H216828   3.298   1.423   5.245
 5622TIP3   OH216829   6.909   4.192   1.611
 5622TIP3    H116830   6.940   4.272   1.652
 5622TIP3    H216831   6.814   4.201   1.609
 5623TIP3   OH216832   0.279   4.735   1.193
 5623TIP3    H116833   0.272   4.654   1.143
 5623TIP3    H216834   0.189   4.756   1.218
 5624TIP3   OH216835   0.742   0.840   1.422
 5624TIP3    H116836   0.837   0.834   1.428
 5624TIP3    H216837   0.715   0.760   1.377
 5625TIP3   OH216838   0.875   6.272   3.256
 5625TIP3    H116839   0.835   6.231   3.179
 5625TIP3    H216840   0.899   6.198   3.312
 5626TIP3   OH216841   5.290   5.577   2.757
 5626TIP3    H116842   5.326   5.513   2.695
 5626TIP3    H216843   5.201   5.594   2.725
 5627TIP3   OH216844   5.178   4.569   2.663
 5627TIP3    H116845   5.207   4.574   2.754
 5627TIP3    H216846   5.252   4.532   2.615
 5628TIP3   OH216847   6.014   4.867   0.528
 5628TIP3    H116848   5.971   4.898   0.449
 5628TIP3    H216849   5.986   4.928   0.597
 5629TIP3   OH216850   4.928   1.846   2.545
 5629TIP3    H116851   4.947   1.885   2.630
 5629TIP3    H216852   4.922   1.920   2.485
 5630TIP3   OH216853   2.806   0.660   5.238
 5630TIP3    H116854   2.743   0.707   5.293
 5630TIP3    H216855   2.890   0.702   5.255
 5631TIP3   OH216856   2.246   2.611   3.513
 5631TIP3    H116857   2.217   2.635   3.425
 5631TIP3    H216858   2.287   2.691   3.548
 5632TIP3   OH216859   5.209   5.147   3.316
 5632TIP3    H116860   5.219   5.239   3.290
 5632TIP3    H216861   5.219   5.098   3.234
 5633TIP3   OH216862   3.977   3.064   3.840
 5633TIP3    H116863   3.916   3.137   3.847
 5633TIP3    H216864   3.995   3.056   3.747
 5634TIP3   OH216865   0.657   5.656   5.438
 5634TIP3    H116866   0.708   5.710   5.498
 5634TIP3    H216867   0.568   5.659   5.473
 5635TIP3   OH216868   7.069   0.836   1.958
 5635TIP3    H116869   7.114   0.854   2.041
 5635TIP3    H216870   6.994   0.894   1.958
 5636TIP3   OH216871   3.770   3.624   1.411
 5636TIP3    H116872   3.727   3.548   1.450
 5636TIP3    H216873   3.804   3.673   1.486
 5637TIP3   OH216874   4.735   0.902   1.095
 5637TIP3    H116875   4.823   0.910   1.131
 5637TIP3    H216876   4.682   0.963   1.146
 5638TIP3   OH216877   5.556   2.117   0.358
 5638TIP3    H116878   5.479   2.124   0.415
 5638TIP3    H216879   5.595   2.032   0.381
 5639TIP3   OH216880   3.494   1.862   3.042
 5639TIP3    H116881   3.571   1.907   3.008
 5639TIP3    H216882   3.523   1.824   3.125
 5640TIP3   OH216883   1.123   6.450   4.588
 5640TIP3    H116884   1.078   6.428   4.506
 5640TIP3    H216885   1.105   6.543   4.600
 5641TIP3   OH216886   0.041   0.447   2.673
 5641TIP3    H116887   0.125   0.404   2.688
 5641TIP3    H216888  -0.017   0.407   2.738
 5642TIP3   OH216889   5.416   5.633   5.008
 5642TIP3    H116890   5.462   5.683   5.076
 5642TIP3    H216891   5.401   5.547   5.048
 5643TIP3   OH216892   6.590   0.760   5.455
 5643TIP3    H116893   6.643   0.743   5.377
 5643TIP3    H216894   6.645   0.815   5.511
 5644TIP3   OH216895   2.607   2.782   1.056
 5644TIP3    H116896   2.563   2.803   0.974
 5644TIP3    H216897   2.673   2.717   1.033
 5645TIP3   OH216898   0.274   5.386   3.399
 5645TIP3    H116899   0.226   5.459   3.439
 5645TIP3    H216900   0.305   5.421   3.315
 5646TIP3   OH216901   0.044   5.364   1.345
 5646TIP3    H116902  -0.002   5.283   1.319
 5646TIP3    H216903  -0.001   5.433   1.296
 5647TIP3   OH216904   2.920   5.154   4.630
 5647TIP3    H116905   2.995   5.200   4.594
 5647TIP3    H216906   2.865   5.134   4.554
 5648TIP3   OH216907   3.093   6.416   3.936
 5648TIP3    H116908   3.150   6.469   3.992
 5648TIP3    H216909   3.087   6.331   3.981
 5649TIP3   OH216910   4.606   6.355   0.242
 5649TIP3    H116911   4.512   6.339   0.234
 5649TIP3    H216912   4.647   6.274   0.211
 5650TIP3   OH216913   0.211   5.595   0.035
 5650TIP3    H116914   0.262   5.620   0.112
 5650TIP3    H216915   0.241   5.507   0.014
 5651TIP3   OH216916   4.223   5.951   0.864
 5651TIP3    H116917   4.182   6.038   0.859
 5651TIP3    H216918   4.217   5.916   0.776
 5652TIP3   OH216919   3.254   0.949   3.508
 5652TIP3    H116920   3.320   0.894   3.467
 5652TIP3    H216921   3.254   1.030   3.456
 5653TIP3   OH216922   6.902   3.708   0.596
 5653TIP3    H116923   6.950   3.631   0.564
 5653TIP3    H216924   6.816   3.701   0.554
 5654TIP3   OH216925   2.216   2.123   3.820
 5654TIP3    H116926   2.266   2.192   3.776
 5654TIP3    H216927   2.236   2.134   3.913
 5655TIP3   OH216928   7.015   1.980   3.065
 5655TIP3    H116929   6.986   2.019   2.983
 5655TIP3    H216930   7.110   1.990   3.065
 5656TIP3   OH216931   2.982   4.113   5.127
 5656TIP3    H116932   2.932   4.056   5.185
 5656TIP3    H216933   2.941   4.199   5.136
 5657TIP3   OH216934   2.997   2.768   1.337
 5657TIP3    H116935   2.960   2.816   1.263
 5657TIP3    H216936   2.942   2.691   1.345
 5658TIP3   OH216937   4.833   0.358   2.266
 5658TIP3    H116938   4.796   0.431   2.215
 5658TIP3    H216939   4.758   0.303   2.287
 5659TIP3   OH216940   0.183   2.260   4.256
 5659TIP3    H116941   0.126   2.242   4.330
 5659TIP3    H216942   0.270   2.272   4.295
 5660TIP3   OH216943   0.665   3.807   0.996
 5660TIP3    H116944   0.760   3.820   1.001
 5660TIP3    H216945   0.628   3.883   1.040
 5661TIP3   OH216946   6.590   2.583   3.099
 5661TIP3    H116947   6.670   2.562   3.051
 5661TIP3    H216948   6.621   2.621   3.182
 5662TIP3   OH216949   3.108   4.282   0.678
 5662TIP3    H116950   3.052   4.316   0.608
 5662TIP3    H216951   3.168   4.354   0.698
 5663TIP3   OH216952   7.013   5.398   0.530
 5663TIP3    H116953   6.918   5.397   0.519
 5663TIP3    H216954   7.041   5.482   0.493
 5664TIP3   OH216955   0.284   3.797   5.081
 5664TIP3    H116956   0.237   3.730   5.130
 5664TIP3    H216957   0.326   3.851   5.148
 5665TIP3   OH216958   7.145   2.992   1.798
 5665TIP3    H116959   7.172   3.079   1.827
 5665TIP3    H216960   7.146   2.997   1.703
 5666TIP3   OH216961   0.038   3.392   3.803
 5666TIP3    H116962   0.068   3.304   3.783
 5666TIP3    H216963  -0.057   3.388   3.793
 5667TIP3   OH216964   2.805   3.570   5.046
 5667TIP3    H116965   2.816   3.658   5.080
 5667TIP3    H216966   2.877   3.520   5.084
 5668TIP3   OH216967   3.633   1.310   3.734
 5668TIP3    H116968   3.595   1.381   3.685
 5668TIP3    H216969   3.580   1.233   3.712
 5669TIP3   OH216970   0.681   1.112   3.694
 5669TIP3    H116971   0.765   1.150   3.721
 5669TIP3    H216972   0.655   1.163   3.617
 5670TIP3   OH216973   6.873   2.128   2.885
 5670TIP3    H116974   6.911   2.208   2.847
 5670TIP3    H216975   6.779   2.136   2.868
 5671TIP3   OH216976   1.738   2.254   3.406
 5671TIP3    H116977   1.829   2.244   3.432
 5671TIP3    H216978   1.733   2.216   3.318
 5672TIP3   OH216979   0.589   3.539   0.460
 5672TIP3    H116980   0.650   3.485   0.409
 5672TIP3    H216981   0.589   3.498   0.547
 5673TIP3   OH216982   4.684   3.323   2.856
 5673TIP3    H116983   4.706   3.306   2.765
 5673TIP3    H216984   4.665   3.237   2.893
 5674TIP3   OH216985   6.414   4.015   1.422
 5674TIP3    H116986   6.499   4.035   1.382
 5674TIP3    H216987   6.422   3.924   1.452
 5675TIP3   OH216988   6.497   4.548   3.004
 5675TIP3    H116989   6.582   4.578   2.971
 5675TIP3    H216990   6.495   4.579   3.095
 5676TIP3   OH216991   5.167   0.817   3.196
 5676TIP3    H116992   5.164   0.779   3.284
 5676TIP3    H216993   5.214   0.752   3.143
 5677TIP3   OH216994   5.791   5.384   2.406
 5677TIP3    H116995   5.787   5.307   2.463
 5677TIP3    H216996   5.773   5.458   2.463
 5678TIP3   OH216997   4.054   0.495   0.165
 5678TIP3    H116998   3.986   0.491   0.098
 5678TIP3    H216999   4.050   0.585   0.198
 5679TIP3   OH217000   5.773   4.411   0.231
 5679TIP3    H117001   5.815   4.326   0.247
 5679TIP3    H217002   5.832   4.457   0.172
 5680TIP3   OH217003   4.679   3.083   1.166
 5680TIP3    H117004   4.619   3.017   1.203
 5680TIP3    H217005   4.627   3.127   1.099
 5681TIP3   OH217006   2.584   4.363   5.489
 5681TIP3    H117007   2.524   4.434   5.511
 5681TIP3    H217008   2.570   4.348   5.395
 5682TIP3   OH217009   1.022   2.186   0.180
 5682TIP3    H117010   1.101   2.226   0.217
 5682TIP3    H217011   0.954   2.252   0.195
 5683TIP3   OH217012   3.499   0.464   1.752
 5683TIP3    H117013   3.454   0.394   1.800
 5683TIP3    H217014   3.584   0.471   1.794
 5684TIP3   OH217015   2.408   0.974   2.094
 5684TIP3    H117016   2.378   1.058   2.128
 5684TIP3    H217017   2.462   0.998   2.018
 5685TIP3   OH217018   4.400   5.309   0.244
 5685TIP3    H117019   4.394   5.216   0.225
 5685TIP3    H217020   4.310   5.339   0.249
 5686TIP3   OH217021   6.328   3.469   5.750
 5686TIP3    H117022   6.314   3.536   5.817
 5686TIP3    H217023   6.411   3.492   5.710
 5687TIP3   OH217024   2.794   6.127   3.590
 5687TIP3    H117025   2.787   6.113   3.685
 5687TIP3    H217026   2.736   6.061   3.552
 5688TIP3   OH217027   4.318   0.642   2.826
 5688TIP3    H117028   4.395   0.693   2.852
 5688TIP3    H217029   4.259   0.648   2.901
 5689TIP3   OH217030   6.371   1.865   2.360
 5689TIP3    H117031   6.378   1.772   2.380
 5689TIP3    H217032   6.375   1.909   2.445
 5690TIP3   OH217033   1.291   1.601   4.683
 5690TIP3    H117034   1.276   1.680   4.631
 5690TIP3    H217035   1.384   1.603   4.705
 5691TIP3   OH217036   0.168   3.598   4.169
 5691TIP3    H117037   0.186   3.594   4.076
 5691TIP3    H217038   0.160   3.507   4.197
 5692TIP3   OH217039   2.358   0.255   4.434
 5692TIP3    H117040   2.280   0.294   4.395
 5692TIP3    H217041   2.365   0.296   4.520
 5693TIP3   OH217042   1.828   1.780   0.862
 5693TIP3    H117043   1.878   1.700   0.875
 5693TIP3    H217044   1.802   1.807   0.950
 5694TIP3   OH217045   1.085   3.847   1.555
 5694TIP3    H117046   1.005   3.887   1.589
 5694TIP3    H217047   1.123   3.913   1.497
 5695TIP3   OH217048   0.643   1.867   4.881
 5695TIP3    H117049   0.580   1.866   4.809
 5695TIP3    H217050   0.590   1.888   4.958
 5696TIP3   OH217051   1.266   5.320   5.386
 5696TIP3    H117052   1.276   5.344   5.478
 5696TIP3    H217053   1.257   5.403   5.339
 5697TIP3   OH217054   6.309   3.947   2.781
 5697TIP3    H117055   6.256   3.911   2.852
 5697TIP3    H217056   6.388   3.978   2.825
 5698TIP3   OH217057   3.365   5.377   5.650
 5698TIP3    H117058   3.367   5.472   5.666
 5698TIP3    H217059   3.281   5.349   5.687
 5699TIP3   OH217060   3.800   6.682   2.594
 5699TIP3    H117061   3.798   6.777   2.599
 5699TIP3    H217062   3.868   6.662   2.529
 5700TIP3   OH217063   1.268   6.646   0.497
 5700TIP3    H117064   1.209   6.595   0.552
 5700TIP3    H217065   1.300   6.584   0.432
 5701TIP3   OH217066   3.007   6.052   1.159
 5701TIP3    H117067   2.973   5.973   1.118
 5701TIP3    H217068   3.008   6.117   1.088
 5702TIP3   OH217069   3.712   0.415   2.158
 5702TIP3    H117070   3.661   0.353   2.105
 5702TIP3    H217071   3.671   0.411   2.245
 5703TIP3   OH217072   4.263   5.061   0.618
 5703TIP3    H117073   4.287   5.071   0.526
 5703TIP3    H217074   4.273   4.967   0.634
 5704TIP3   OH217075   3.277   2.746   5.550
 5704TIP3    H117076   3.259   2.729   5.458
 5704TIP3    H217077   3.289   2.659   5.589
 5705TIP3   OH217078   0.261   4.903   4.033
 5705TIP3    H117079   0.293   4.818   4.003
 5705TIP3    H217080   0.202   4.881   4.106
 5706TIP3   OH217081   0.790   2.435   3.810
 5706TIP3    H117082   0.798   2.501   3.742
 5706TIP3    H217083   0.699   2.442   3.840
 5707TIP3   OH217084   0.462   5.467   1.666
 5707TIP3    H117085   0.411   5.425   1.597
 5707TIP3    H217086   0.409   5.455   1.745
 5708TIP3   OH217087   6.476   5.374   4.402
 5708TIP3    H117088   6.484   5.458   4.446
 5708TIP3    H217089   6.385   5.348   4.418
 5709TIP3   OH217090   6.747   1.297   4.576
 5709TIP3    H117091   6.840   1.304   4.553
 5709TIP3    H217092   6.735   1.361   4.646
 5710TIP3   OH217093   6.086   5.019   2.067
 5710TIP3    H117094   6.036   5.023   2.149
 5710TIP3    H217095   6.026   5.052   2.001
 5711TIP3   OH217096   2.615   5.365   1.113
 5711TIP3    H117097   2.669   5.441   1.092
 5711TIP3    H217098   2.526   5.391   1.091
 5712TIP3   OH217099   4.559   4.371   0.651
 5712TIP3    H117100   4.631   4.402   0.597
 5712TIP3    H217101   4.600   4.347   0.734
 5713TIP3   OH217102   5.516   5.492   2.064
 5713TIP3    H117103   5.519   5.494   1.968
 5713TIP3    H217104   5.607   5.498   2.091
 5714TIP3   OH217105   2.816   0.552   0.349
 5714TIP3    H117106   2.806   0.633   0.298
 5714TIP3    H217107   2.738   0.549   0.404
 5715TIP3   OH217108   6.246   5.922   1.595
 5715TIP3    H117109   6.319   5.936   1.656
 5715TIP3    H217110   6.254   5.830   1.569
 5716TIP3   OH217111   4.038   1.754   0.787
 5716TIP3    H117112   3.947   1.736   0.764
 5716TIP3    H217113   4.057   1.694   0.859
 5717TIP3   OH217114   1.576   2.748   0.475
 5717TIP3    H117115   1.668   2.760   0.500
 5717TIP3    H217116   1.540   2.690   0.542
 5718TIP3   OH217117   1.085   3.722   5.365
 5718TIP3    H117118   1.009   3.708   5.308
 5718TIP3    H217119   1.097   3.639   5.410
 5719TIP3   OH217120   4.273   3.265   0.174
 5719TIP3    H117121   4.190   3.288   0.217
 5719TIP3    H217122   4.290   3.338   0.115
 5720TIP3   OH217123   3.984   3.840   2.356
 5720TIP3    H117124   3.956   3.924   2.394
 5720TIP3    H217125   3.953   3.774   2.418
 5721TIP3   OH217126   0.604   1.559   1.202
 5721TIP3    H117127   0.687   1.596   1.232
 5721TIP3    H217128   0.538   1.619   1.235
 5722TIP3   OH217129   3.316   1.046   1.694
 5722TIP3    H117130   3.355   1.125   1.731
 5722TIP3    H217131   3.375   1.020   1.624
 5723TIP3   OH217132   4.048   2.902   2.010
 5723TIP3    H117133   4.001   2.892   1.927
 5723TIP3    H217134   3.987   2.868   2.075
 5724TIP3   OH217135   0.654   4.550   1.314
 5724TIP3    H117136   0.632   4.472   1.262
 5724TIP3    H217137   0.739   4.577   1.282
 5725TIP3   OH217138   2.432   1.591   5.492
 5725TIP3    H117139   2.408   1.660   5.429
 5725TIP3    H217140   2.368   1.599   5.562
 5726TIP3   OH217141   2.817   3.550   2.171
 5726TIP3    H117142   2.743   3.539   2.110
 5726TIP3    H217143   2.877   3.608   2.124
 5727TIP3   OH217144   0.377   2.802   5.336
 5727TIP3    H117145   0.403   2.823   5.426
 5727TIP3    H217146   0.327   2.721   5.343
 5728TIP3   OH217147   4.786   4.044   3.018
 5728TIP3    H117148   4.748   3.973   2.966
 5728TIP3    H217149   4.836   4.000   3.086
 5729TIP3   OH217150   1.311   1.219   1.226
 5729TIP3    H117151   1.406   1.217   1.229
 5729TIP3    H217152   1.285   1.258   1.309
 5730TIP3   OH217153   3.913   5.127   0.214
 5730TIP3    H117154   3.857   5.202   0.189
 5730TIP3    H217155   3.964   5.109   0.135
 5731TIP3   OH217156   6.867   0.311   3.003
 5731TIP3    H117157   6.838   0.256   3.076
 5731TIP3    H217158   6.790   0.318   2.947
 5732TIP3   OH217159   6.587   0.615   2.416
 5732TIP3    H117160   6.540   0.698   2.422
 5732TIP3    H217161   6.587   0.593   2.323
 5733TIP3   OH217162   0.028   4.422   4.134
 5733TIP3    H117163  -0.057   4.426   4.177
 5733TIP3    H217164   0.076   4.353   4.181
 5734TIP3   OH217165   1.475   2.909   2.094
 5734TIP3    H117166   1.545   2.974   2.086
 5734TIP3    H217167   1.521   2.825   2.100
 5735TIP3   OH217168   0.881   0.232   0.903
 5735TIP3    H117169   0.839   0.315   0.927
 5735TIP3    H217170   0.823   0.193   0.838
 5736TIP3   OH217171   1.328   4.460   3.726
 5736TIP3    H117172   1.391   4.516   3.770
 5736TIP3    H217173   1.322   4.382   3.781
 5737TIP3   OH217174   2.694   6.770   1.605
 5737TIP3    H117175   2.680   6.796   1.695
 5737TIP3    H217176   2.678   6.675   1.604
 5738TIP3   OH217177   2.386   2.843   0.099
 5738TIP3    H117178   2.354   2.850   0.189
 5738TIP3    H217179   2.375   2.931   0.062
 5739TIP3   OH217180   2.928   6.618   3.561
 5739TIP3    H117181   2.867   6.544   3.565
 5739TIP3    H217182   2.968   6.610   3.474
 5740TIP3   OH217183   4.205   1.760   2.783
 5740TIP3    H117184   4.231   1.678   2.825
 5740TIP3    H217185   4.222   1.746   2.690
 5741TIP3   OH217186   4.301   1.844   3.346
 5741TIP3    H117187   4.365   1.912   3.325
 5741TIP3    H217188   4.229   1.859   3.286
 5742TIP3   OH217189   2.445   0.503   4.936
 5742TIP3    H117190   2.489   0.433   4.984
 5742TIP3    H217191   2.484   0.583   4.969
 5743TIP3   OH217192   4.474   2.038   3.922
 5743TIP3    H117193   4.382   2.015   3.915
 5743TIP3    H217194   4.483   2.070   4.012
 5744TIP3   OH217195   5.723   3.776   1.434
 5744TIP3    H117196   5.716   3.754   1.526
 5744TIP3    H217197   5.640   3.746   1.396
 5745TIP3   OH217198   0.218   3.236   4.805
 5745TIP3    H117199   0.309   3.222   4.829
 5745TIP3    H217200   0.167   3.203   4.879
 5746TIP3   OH217201   2.468   5.952   1.519
 5746TIP3    H117202   2.540   5.892   1.536
 5746TIP3    H217203   2.490   5.994   1.436
 5747TIP3   OH217204   5.958   2.775   2.900
 5747TIP3    H117205   5.952   2.849   2.840
 5747TIP3    H217206   6.028   2.800   2.961
 5748TIP3   OH217207   5.068   0.485   1.376
 5748TIP3    H117208   5.025   0.479   1.462
 5748TIP3    H217209   4.997   0.473   1.313
 5749TIP3   OH217210   4.995   3.882   1.405
 5749TIP3    H117211   4.957   3.947   1.346
 5749TIP3    H217212   5.087   3.877   1.380
 5750TIP3   OH217213   0.855   0.062   1.161
 5750TIP3    H117214   0.821   0.140   1.204
 5750TIP3    H217215   0.909   0.094   1.090
 5751TIP3   OH217216   2.669   4.287   0.030
 5751TIP3    H117217   2.585   4.255   0.062
 5751TIP3    H217218   2.683   4.370   0.076
 5752TIP3   OH217219   5.139   5.715   0.194
 5752TIP3    H117220   5.144   5.742   0.286
 5752TIP3    H217221   5.137   5.619   0.197
 5753TIP3   OH217222   6.476   4.544   0.523
 5753TIP3    H117223   6.554   4.598   0.510
 5753TIP3    H217224   6.484   4.512   0.613
 5754TIP3   OH217225   3.873   0.827   1.194
 5754TIP3    H117226   3.810   0.853   1.127
 5754TIP3    H217227   3.955   0.869   1.167
 5755TIP3   OH217228   2.994   3.831   1.762
 5755TIP3    H117229   2.991   3.802   1.670
 5755TIP3    H217230   2.920   3.891   1.770
 5756TIP3   OH217231   1.985   0.423   0.103
 5756TIP3    H117232   2.076   0.394   0.106
 5756TIP3    H217233   1.945   0.370   0.034
 5757TIP3   OH217234   1.243   4.659   2.409
 5757TIP3    H117235   1.311   4.694   2.466
 5757TIP3    H217236   1.161   4.676   2.455
 5758TIP3   OH217237   4.850   0.527   4.613
 5758TIP3    H117238   4.779   0.497   4.557
 5758TIP3    H217239   4.834   0.620   4.627
 5759TIP3   OH217240   4.249   1.797   0.526
 5759TIP3    H117241   4.178   1.733   0.535
 5759TIP3    H217242   4.328   1.743   0.516
 5760TIP3   OH217243   2.455   2.886   5.669
 5760TIP3    H117244   2.457   2.810   5.611
 5760TIP3    H217245   2.513   2.950   5.627
 5761TIP3   OH217246   6.233   3.385   5.123
 5761TIP3    H117247   6.179   3.440   5.180
 5761TIP3    H217248   6.254   3.308   5.176
 5762TIP3   OH217249   4.887   6.506   1.594
 5762TIP3    H117250   4.843   6.426   1.624
 5762TIP3    H217251   4.841   6.530   1.514
 5763TIP3   OH217252   6.333   5.665   1.499
 5763TIP3    H117253   6.306   5.610   1.425
 5763TIP3    H217254   6.428   5.673   1.490
 5764TIP3   OH217255   4.498   5.598   3.313
 5764TIP3    H117256   4.577   5.613   3.261
 5764TIP3    H217257   4.478   5.505   3.298
 5765TIP3   OH217258   7.024   5.058   0.059
 5765TIP3    H117259   7.117   5.078   0.061
 5765TIP3    H217260   7.019   4.970   0.022
 5766TIP3   OH217261   2.405   2.189   5.825
 5766TIP3    H117262   2.446   2.234   5.751
 5766TIP3    H217263   2.438   2.236   5.902
 5767TIP3   OH217264   4.512   1.497   4.002
 5767TIP3    H117265   4.533   1.560   4.072
 5767TIP3    H217266   4.517   1.549   3.921
 5768TIP3   OH217267   2.155   0.954   4.130
 5768TIP3    H117268   2.093   0.884   4.149
 5768TIP3    H217269   2.203   0.923   4.052
 5769TIP3   OH217270   2.153   4.116   4.242
 5769TIP3    H117271   2.182   4.182   4.306
 5769TIP3    H217272   2.118   4.167   4.170
 5770TIP3   OH217273   6.377   4.369   2.690
 5770TIP3    H117274   6.296   4.338   2.731
 5770TIP3    H217275   6.447   4.322   2.735
 5771TIP3   OH217276   5.113   0.816   5.430
 5771TIP3    H117277   5.105   0.912   5.433
 5771TIP3    H217278   5.156   0.793   5.513
 5772TIP3   OH217279   2.137   2.480   1.877
 5772TIP3    H117280   2.162   2.421   1.806
 5772TIP3    H217281   2.221   2.512   1.911
 5773TIP3   OH217282   3.773   6.185   0.380
 5773TIP3    H117283   3.737   6.134   0.452
 5773TIP3    H217284   3.819   6.258   0.422
 5774TIP3   OH217285   2.137   1.155   1.296
 5774TIP3    H117286   2.175   1.088   1.353
 5774TIP3    H217287   2.198   1.229   1.301
 5775TIP3   OH217288   4.956   1.299   0.808
 5775TIP3    H117289   5.020   1.371   0.812
 5775TIP3    H217290   4.953   1.265   0.897
 5776TIP3   OH217291   7.084   6.761   0.368
 5776TIP3    H117292   7.045   6.843   0.338
 5776TIP3    H217293   7.009   6.708   0.396
 5777TIP3   OH217294   6.669   2.908   4.401
 5777TIP3    H117295   6.674   2.993   4.359
 5777TIP3    H217296   6.650   2.927   4.493
 5778TIP3   OH217297   0.997   3.117   4.108
 5778TIP3    H117298   0.947   3.038   4.086
 5778TIP3    H217299   0.938   3.189   4.086
 5779TIP3   OH217300   3.826   6.223   3.256
 5779TIP3    H117301   3.853   6.253   3.343
 5779TIP3    H217302   3.902   6.178   3.221
 5780TIP3   OH217303   2.914   0.520   1.778
 5780TIP3    H117304   2.902   0.431   1.810
 5780TIP3    H217305   2.852   0.529   1.706
 5781TIP3   OH217306   1.077   4.574   1.593
 5781TIP3    H117307   1.149   4.624   1.632
 5781TIP3    H217308   1.120   4.505   1.543
 5782TIP3   OH217309   1.616   4.727   1.819
 5782TIP3    H117310   1.692   4.759   1.771
 5782TIP3    H217311   1.603   4.791   1.889
 5783TIP3   OH217312   6.241   6.233   1.627
 5783TIP3    H117313   6.334   6.253   1.622
 5783TIP3    H217314   6.221   6.233   1.720
 5784TIP3   OH217315   0.350   1.370   1.316
 5784TIP3    H117316   0.299   1.318   1.378
 5784TIP3    H217317   0.378   1.307   1.250
 5785TIP3   OH217318   1.035   1.644   0.264
 5785TIP3    H117319   1.033   1.736   0.291
 5785TIP3    H217320   1.112   1.608   0.309
 5786TIP3   OH217321   6.166   4.953   4.449
 5786TIP3    H117322   6.235   5.003   4.405
 5786TIP3    H217323   6.153   4.997   4.532
 5787TIP3   OH217324   5.887   2.009   3.985
 5787TIP3    H117325   5.866   1.921   3.953
 5787TIP3    H217326   5.979   2.003   4.012
 5788TIP3   OH217327   1.514   1.645   1.764
 5788TIP3    H117328   1.578   1.710   1.794
 5788TIP3    H217329   1.441   1.653   1.827
 5789TIP3   OH217330   0.249   1.261   0.383
 5789TIP3    H117331   0.239   1.182   0.436
 5789TIP3    H217332   0.215   1.236   0.297
 5790TIP3   OH217333   5.354   5.177   5.486
 5790TIP3    H117334   5.322   5.134   5.407
 5790TIP3    H217335   5.372   5.105   5.547
 5791TIP3   OH217336   1.350   6.318   0.834
 5791TIP3    H117337   1.376   6.251   0.898
 5791TIP3    H217338   1.367   6.401   0.877
 5792TIP3   OH217339   1.404   4.131   3.636
 5792TIP3    H117340   1.491   4.125   3.597
 5792TIP3    H217341   1.409   4.075   3.714
 5793TIP3   OH217342   3.459   1.031   4.981
 5793TIP3    H117343   3.444   0.943   4.947
 5793TIP3    H217344   3.540   1.023   5.032
 5794TIP3   OH217345   0.086   3.269   0.040
 5794TIP3    H117346   0.126   3.356   0.030
 5794TIP3    H217347   0.099   3.247   0.132
 5795TIP3   OH217348   2.009   4.110   3.452
 5795TIP3    H117349   2.097   4.079   3.469
 5795TIP3    H217350   1.970   4.122   3.539
 5796TIP3   OH217351   0.080   4.422   2.250
 5796TIP3    H117352   0.154   4.482   2.237
 5796TIP3    H217353   0.109   4.340   2.212
 5797TIP3   OH217354   2.097   3.056   5.797
 5797TIP3    H117355   2.189   3.076   5.809
 5797TIP3    H217356   2.094   3.003   5.718
 5798TIP3   OH217357   3.451   6.034   2.467
 5798TIP3    H117358   3.448   6.118   2.422
 5798TIP3    H217359   3.492   5.975   2.405
 5799TIP3   OH217360   2.082   6.184   0.124
 5799TIP3    H117361   2.020   6.222   0.061
 5799TIP3    H217362   2.168   6.194   0.083
 5800TIP3   OH217363   1.920   1.169   5.931
 5800TIP3    H117364   1.962   1.230   5.870
 5800TIP3    H217365   1.912   1.087   5.881
 5801TIP3   OH217366   4.598   0.482   5.736
 5801TIP3    H117367   4.569   0.415   5.798
 5801TIP3    H217368   4.551   0.561   5.762
 5802TIP3   OH217369   6.478   5.491   5.872
 5802TIP3    H117370   6.433   5.467   5.953
 5802TIP3    H217371   6.472   5.587   5.869
 5803TIP3   OH217372   3.395   0.967   0.678
 5803TIP3    H117373   3.325   1.007   0.627
 5803TIP3    H217374   3.354   0.891   0.720
 5804TIP3   OH217375   6.744   6.689   3.818
 5804TIP3    H117376   6.669   6.643   3.779
 5804TIP3    H217377   6.704   6.766   3.861
 5805TIP3   OH217378   0.396   5.629   4.929
 5805TIP3    H117379   0.391   5.703   4.991
 5805TIP3    H217380   0.347   5.559   4.971
 5806TIP3   OH217381   3.525   2.304   3.192
 5806TIP3    H117382   3.498   2.387   3.231
 5806TIP3    H217383   3.548   2.327   3.102
 5807TIP3   OH217384   6.933   5.487   3.642
 5807TIP3    H117385   6.867   5.544   3.603
 5807TIP3    H217386   6.908   5.399   3.615
 5808TIP3   OH217387   2.344   2.938   3.121
 5808TIP3    H117388   2.332   2.964   3.212
 5808TIP3    H217389   2.352   3.020   3.073
 5809TIP3   OH217390   6.485   5.440  -0.007
 5809TIP3    H117391   6.451   5.352   0.008
 5809TIP3    H217392   6.524   5.437  -0.095
 5810TIP3   OH217393   7.150   2.724   0.566
 5810TIP3    H117394   7.213   2.663   0.607
 5810TIP3    H217395   7.076   2.668   0.542
 5811TIP3   OH217396   0.046   4.541   3.066
 5811TIP3    H117397   0.031   4.631   3.037
 5811TIP3    H217398   0.140   4.527   3.052
 5812TIP3   OH217399   5.201   6.084   3.125
 5812TIP3    H117400   5.224   6.086   3.032
 5812TIP3    H217401   5.153   6.166   3.139
 5813TIP3   OH217402   0.564   2.622   2.441
 5813TIP3    H117403   0.527   2.546   2.396
 5813TIP3    H217404   0.621   2.662   2.376
 5814TIP3   OH217405   3.664   6.656   1.926
 5814TIP3    H117406   3.649   6.655   2.020
 5814TIP3    H217407   3.760   6.656   1.917
 5815TIP3   OH217408   6.975   4.778   1.448
 5815TIP3    H117409   6.992   4.778   1.542
 5815TIP3    H217410   6.905   4.714   1.436
 5816TIP3   OH217411   2.952   4.500   0.589
 5816TIP3    H117412   3.008   4.574   0.566
 5816TIP3    H217413   2.902   4.530   0.664
 5817TIP3   OH217414   0.943   1.649   4.240
 5817TIP3    H117415   0.932   1.743   4.230
 5817TIP3    H217416   0.861   1.611   4.209
 5818TIP3   OH217417   5.094   2.481   5.544
 5818TIP3    H117418   5.051   2.414   5.598
 5818TIP3    H217419   5.022   2.521   5.495
 5819TIP3   OH217420   1.825   0.209   5.018
 5819TIP3    H117421   1.890   0.271   4.984
 5819TIP3    H217422   1.855   0.189   5.106
 5820TIP3   OH217423   5.750   5.878   3.808
 5820TIP3    H117424   5.745   5.960   3.759
 5820TIP3    H217425   5.791   5.816   3.749
 5821TIP3   OH217426   5.203   4.466   0.367
 5821TIP3    H117427   5.156   4.471   0.284
 5821TIP3    H217428   5.291   4.435   0.343
 5822TIP3   OH217429   2.430   6.298   0.860
 5822TIP3    H117430   2.345   6.342   0.857
 5822TIP3    H217431   2.491   6.365   0.890
 5823TIP3   OH217432   5.839   1.247   5.439
 5823TIP3    H117433   5.921   1.243   5.390
 5823TIP3    H217434   5.849   1.182   5.509
 5824TIP3   OH217435   6.340   4.030   4.283
 5824TIP3    H117436   6.258   3.986   4.304
 5824TIP3    H217437   6.318   4.091   4.213
 5825TIP3   OH217438   3.299   5.307   0.772
 5825TIP3    H117439   3.374   5.260   0.736
 5825TIP3    H217440   3.263   5.355   0.698
 5826TIP3   OH217441   5.923   3.971   3.311
 5826TIP3    H117442   5.905   4.054   3.355
 5826TIP3    H217443   5.921   3.993   3.218
 5827TIP3   OH217444   5.396   6.226   1.762
 5827TIP3    H117445   5.320   6.200   1.814
 5827TIP3    H217446   5.397   6.322   1.767
 5828TIP3   OH217447   0.337   6.465   1.169
 5828TIP3    H117448   0.424   6.428   1.183
 5828TIP3    H217449   0.317   6.445   1.078
 5829TIP3   OH217450   6.425   3.091   4.359
 5829TIP3    H117451   6.463   3.178   4.373
 5829TIP3    H217452   6.416   3.084   4.264
 5830TIP3   OH217453   5.552   4.206   5.468
 5830TIP3    H117454   5.492   4.132   5.459
 5830TIP3    H217455   5.610   4.200   5.392
 5831TIP3   OH217456   5.531   5.434   0.659
 5831TIP3    H117457   5.472   5.441   0.734
 5831TIP3    H217458   5.478   5.462   0.584
 5832TIP3   OH217459   5.038   3.619   0.937
 5832TIP3    H117460   4.989   3.553   0.888
 5832TIP3    H217461   4.997   3.702   0.913
 5833TIP3   OH217462   3.485   1.885   5.127
 5833TIP3    H117463   3.560   1.840   5.088
 5833TIP3    H217464   3.411   1.863   5.071
 5834TIP3   OH217465   4.933   6.365   2.279
 5834TIP3    H117466   4.991   6.294   2.305
 5834TIP3    H217467   4.991   6.440   2.266
 5835TIP3   OH217468   2.818   3.590   0.801
 5835TIP3    H117469   2.827   3.673   0.848
 5835TIP3    H217470   2.724   3.581   0.786
 5836TIP3   OH217471   6.273   1.249   5.298
 5836TIP3    H117472   6.329   1.210   5.365
 5836TIP3    H217473   6.202   1.185   5.286
 5837TIP3   OH217474   4.352   1.681   5.850
 5837TIP3    H117475   4.422   1.652   5.910
 5837TIP3    H217476   4.325   1.601   5.805
 5838TIP3   OH217477   5.939   6.523   4.760
 5838TIP3    H117478   6.022   6.570   4.764
 5838TIP3    H217479   5.893   6.548   4.841
 5839TIP3   OH217480   0.958   4.074   0.069
 5839TIP3    H117481   1.018   4.032   0.007
 5839TIP3    H217482   0.874   4.030   0.055
 5840TIP3   OH217483   0.648   4.328   0.119
 5840TIP3    H117484   0.661   4.244   0.162
 5840TIP3    H217485   0.703   4.389   0.169
 5841TIP3   OH217486   2.970   2.350   4.962
 5841TIP3    H117487   2.946   2.297   4.886
 5841TIP3    H217488   2.931   2.436   4.945
 5842TIP3   OH217489   3.727   1.393   4.288
 5842TIP3    H117490   3.649   1.338   4.294
 5842TIP3    H217491   3.744   1.399   4.194
 5843TIP3   OH217492   4.304   0.343   2.129
 5843TIP3    H117493   4.333   0.338   2.220
 5843TIP3    H217494   4.308   0.253   2.097
 5844TIP3   OH217495   4.454   1.425   0.977
 5844TIP3    H117496   4.361   1.411   0.962
 5844TIP3    H217497   4.493   1.425   0.890
 5845TIP3   OH217498   6.456   1.013   3.625
 5845TIP3    H117499   6.376   1.022   3.676
 5845TIP3    H217500   6.435   1.050   3.540
 5846TIP3   OH217501   5.598   4.017   2.944
 5846TIP3    H117502   5.607   4.088   2.880
 5846TIP3    H217503   5.581   3.939   2.890
 5847TIP3   OH217504   0.198   2.658   3.103
 5847TIP3    H117505   0.194   2.680   3.010
 5847TIP3    H217506   0.112   2.682   3.137
 5848TIP3   OH217507   5.736   1.646   3.666
 5848TIP3    H117508   5.658   1.677   3.620
 5848TIP3    H217509   5.717   1.555   3.686
 5849TIP3   OH217510   1.591   2.545   2.435
 5849TIP3    H117511   1.610   2.463   2.481
 5849TIP3    H217512   1.656   2.606   2.469
 5850TIP3   OH217513   1.769   5.904   3.836
 5850TIP3    H117514   1.835   5.899   3.767
 5850TIP3    H217515   1.720   5.822   3.830
 5851TIP3   OH217516   3.334   3.822   4.051
 5851TIP3    H117517   3.299   3.879   4.119
 5851TIP3    H217518   3.260   3.809   3.991
 5852TIP3   OH217519   1.438   0.649   3.139
 5852TIP3    H117520   1.411   0.558   3.130
 5852TIP3    H217521   1.375   0.698   3.086
 5853TIP3   OH217522   5.053   6.605   0.826
 5853TIP3    H117523   5.127   6.557   0.863
 5853TIP3    H217524   5.004   6.541   0.775
 5854TIP3   OH217525   2.006   2.365   0.218
 5854TIP3    H117526   2.073   2.369   0.150
 5854TIP3    H217527   2.007   2.273   0.246
 5855TIP3   OH217528   2.984   1.603   4.734
 5855TIP3    H117529   2.917   1.626   4.669
 5855TIP3    H217530   2.989   1.679   4.791
 5856TIP3   OH217531   4.586   0.489   4.503
 5856TIP3    H117532   4.562   0.454   4.589
 5856TIP3    H217533   4.544   0.430   4.441
 5857TIP3   OH217534   0.421   3.056   2.195
 5857TIP3    H117535   0.485   3.028   2.260
 5857TIP3    H217536   0.468   3.120   2.141
 5858TIP3   OH217537   2.724   3.126   3.767
 5858TIP3    H117538   2.695   3.170   3.687
 5858TIP3    H217539   2.644   3.092   3.806
 5859TIP3   OH217540   2.736   3.217   4.110
 5859TIP3    H117541   2.818   3.215   4.061
 5859TIP3    H217542   2.758   3.260   4.193
 5860TIP3   OH217543   4.722   5.500   0.207
 5860TIP3    H117544   4.695   5.592   0.210
 5860TIP3    H217545   4.756   5.489   0.118
 5861TIP3   OH217546   3.971   2.404   2.361
 5861TIP3    H117547   3.876   2.398   2.351
 5861TIP3    H217548   3.986   2.400   2.455
 5862TIP3   OH217549   1.871   1.566   4.157
 5862TIP3    H117550   1.872   1.636   4.222
 5862TIP3    H217551   1.780   1.562   4.128
 5863TIP3   OH217552   5.514   5.922   3.965
 5863TIP3    H117553   5.492   5.832   3.991
 5863TIP3    H217554   5.586   5.911   3.903
 5864TIP3   OH217555   2.969   0.331   4.368
 5864TIP3    H117556   3.020   0.269   4.316
 5864TIP3    H217557   3.020   0.343   4.448
 5865TIP3   OH217558   5.694   0.312   5.477
 5865TIP3    H117559   5.615   0.263   5.501
 5865TIP3    H217560   5.670   0.361   5.399
 5866TIP3   OH217561   6.659   1.851   4.580
 5866TIP3    H117562   6.705   1.906   4.643
 5866TIP3    H217563   6.608   1.790   4.634
 5867TIP3   OH217564   3.878   3.060   4.134
 5867TIP3    H117565   3.830   3.142   4.144
 5867TIP3    H217566   3.946   3.064   4.201
 5868TIP3   OH217567   2.244   0.938   3.413
 5868TIP3    H117568   2.310   0.932   3.344
 5868TIP3    H217569   2.187   0.863   3.398
 5869TIP3   OH217570   1.582   1.107   0.280
 5869TIP3    H117571   1.566   1.107   0.375
 5869TIP3    H217572   1.623   1.023   0.263
 5870TIP3   OH217573   5.685   4.226   3.577
 5870TIP3    H117574   5.704   4.138   3.609
 5870TIP3    H217575   5.666   4.276   3.655
 5871TIP3   OH217576   1.314   0.338   3.410
 5871TIP3    H117577   1.240   0.336   3.348
 5871TIP3    H217578   1.337   0.246   3.423
 5872TIP3   OH217579   0.241   4.965   0.357
 5872TIP3    H117580   0.226   4.949   0.451
 5872TIP3    H217581   0.333   4.992   0.352
 5873TIP3   OH217582   0.562   3.932   1.613
 5873TIP3    H117583   0.479   3.899   1.648
 5873TIP3    H217584   0.621   3.858   1.616
 5874TIP3   OH217585   6.666   4.310   0.340
 5874TIP3    H117586   6.739   4.308   0.403
 5874TIP3    H217587   6.588   4.293   0.393
 5875TIP3   OH217588   1.669   2.066   4.501
 5875TIP3    H117589   1.750   2.042   4.456
 5875TIP3    H217590   1.692   2.065   4.594
 5876TIP3   OH217591   2.703   6.650   3.876
 5876TIP3    H117592   2.723   6.645   3.970
 5876TIP3    H217593   2.722   6.562   3.843
 5877TIP3   OH217594   0.237   4.670   0.872
 5877TIP3    H117595   0.229   4.608   0.944
 5877TIP3    H217596   0.161   4.727   0.880
 5878TIP3   OH217597   5.597   0.734   2.508
 5878TIP3    H117598   5.644   0.668   2.559
 5878TIP3    H217599   5.579   0.690   2.424
 5879TIP3   OH217600   3.382   6.292   1.139
 5879TIP3    H117601   3.322   6.366   1.127
 5879TIP3    H217602   3.468   6.333   1.154
 5880TIP3   OH217603   5.147   2.146   1.010
 5880TIP3    H117604   5.216   2.208   0.987
 5880TIP3    H217605   5.162   2.071   0.952
 5881TIP3   OH217606   2.398   2.559   0.127
 5881TIP3    H117607   2.435   2.509   0.054
 5881TIP3    H217608   2.374   2.643   0.088
 5882TIP3   OH217609   5.362   3.730   0.933
 5882TIP3    H117610   5.312   3.692   0.861
 5882TIP3    H217611   5.351   3.824   0.923
 5883TIP3   OH217612   5.313   5.888   3.642
 5883TIP3    H117613   5.309   5.931   3.556
 5883TIP3    H217614   5.289   5.957   3.704
 5884TIP3   OH217615   4.424   1.495   1.750
 5884TIP3    H117616   4.383   1.441   1.817
 5884TIP3    H217617   4.354   1.514   1.687
 5885TIP3   OH217618   1.370   3.339   5.587
 5885TIP3    H117619   1.310   3.386   5.645
 5885TIP3    H217620   1.430   3.293   5.646
 5886TIP3   OH217621   2.473   1.070   1.847
 5886TIP3    H117622   2.486   1.165   1.854
 5886TIP3    H217623   2.396   1.061   1.791
 5887TIP3   OH217624   1.084   6.152   5.222
 5887TIP3    H117625   1.042   6.078   5.178
 5887TIP3    H217626   1.042   6.156   5.307
 5888TIP3   OH217627   7.048   0.309   1.054
 5888TIP3    H117628   7.062   0.233   1.111
 5888TIP3    H217629   7.112   0.299   0.984
 5889TIP3   OH217630   4.820   2.964   3.431
 5889TIP3    H117631   4.845   3.049   3.466
 5889TIP3    H217632   4.820   2.976   3.336
 5890TIP3   OH217633   4.082   3.715   1.064
 5890TIP3    H117634   4.144   3.684   0.998
 5890TIP3    H217635   4.133   3.777   1.117
 5891TIP3   OH217636   0.472   3.171   0.395
 5891TIP3    H117637   0.481   3.197   0.486
 5891TIP3    H217638   0.435   3.082   0.398
 5892TIP3   OH217639   6.997   6.698   1.279
 5892TIP3    H117640   7.062   6.723   1.344
 5892TIP3    H217641   7.048   6.662   1.206
 5893TIP3   OH217642   0.499   0.934   3.841
 5893TIP3    H117643   0.529   0.844   3.854
 5893TIP3    H217644   0.544   0.962   3.761
 5894TIP3   OH217645   6.066   6.397   0.598
 5894TIP3    H117646   6.104   6.369   0.514
 5894TIP3    H217647   6.097   6.487   0.609
 5895TIP3   OH217648   5.807   4.032   1.416
 5895TIP3    H117649   5.796   3.938   1.431
 5895TIP3    H217650   5.860   4.039   1.337
 5896TIP3   OH217651   4.906   6.296   3.312
 5896TIP3    H117652   4.904   6.201   3.302
 5896TIP3    H217653   4.835   6.315   3.373
 5897TIP3   OH217654   5.631   3.147   3.132
 5897TIP3    H117655   5.675   3.104   3.058
 5897TIP3    H217656   5.692   3.137   3.205
 5898TIP3   OH217657   6.371   4.932   3.664
 5898TIP3    H117658   6.331   4.877   3.597
 5898TIP3    H217659   6.307   5.001   3.680
 5899TIP3   OH217660   6.239   1.268   0.912
 5899TIP3    H117661   6.272   1.180   0.929
 5899TIP3    H217662   6.189   1.260   0.831
 5900TIP3   OH217663   1.361   1.829   2.414
 5900TIP3    H117664   1.346   1.782   2.496
 5900TIP3    H217665   1.456   1.834   2.405
 5901TIP3   OH217666   2.043   4.728   4.883
 5901TIP3    H117667   2.129   4.691   4.861
 5901TIP3    H217668   2.056   4.823   4.878
 5902TIP3   OH217669   4.038   5.765   5.493
 5902TIP3    H117670   3.981   5.738   5.421
 5902TIP3    H217671   4.108   5.700   5.493
 5903TIP3   OH217672   1.569   1.984   2.131
 5903TIP3    H117673   1.601   1.961   2.218
 5903TIP3    H217674   1.524   2.067   2.143
 5904TIP3   OH217675   6.105   5.199   5.592
 5904TIP3    H117676   6.143   5.255   5.659
 5904TIP3    H217677   6.131   5.110   5.617
 5905TIP3   OH217678   5.787   6.335   1.435
 5905TIP3    H117679   5.874   6.296   1.443
 5905TIP3    H217680   5.755   6.307   1.349
 5906TIP3   OH217681   4.061   4.848   2.398
 5906TIP3    H117682   3.989   4.880   2.344
 5906TIP3    H217683   4.024   4.842   2.486
 5907TIP3   OH217684   4.813   4.209   2.107
 5907TIP3    H117685   4.891   4.153   2.099
 5907TIP3    H217686   4.776   4.187   2.192
 5908TIP3   OH217687   1.595   5.749   1.573
 5908TIP3    H117688   1.607   5.672   1.518
 5908TIP3    H217689   1.509   5.736   1.614
 5909TIP3   OH217690   1.783   5.185   2.672
 5909TIP3    H117691   1.783   5.275   2.641
 5909TIP3    H217692   1.699   5.149   2.644
 5910TIP3   OH217693   5.352   4.999   4.733
 5910TIP3    H117694   5.433   4.957   4.763
 5910TIP3    H217695   5.306   4.930   4.685
 5911TIP3   OH217696   6.949   6.003   0.340
 5911TIP3    H117697   6.987   6.012   0.428
 5911TIP3    H217698   6.955   6.090   0.302
 5912TIP3   OH217699   0.646   5.025   0.493
 5912TIP3    H117700   0.571   5.043   0.550
 5912TIP3    H217701   0.609   5.030   0.404
 5913TIP3   OH217702   4.676   3.133   4.902
 5913TIP3    H117703   4.763   3.116   4.939
 5913TIP3    H217704   4.642   3.205   4.955
 5914TIP3   OH217705   6.781   0.916   0.910
 5914TIP3    H117706   6.685   0.911   0.915
 5914TIP3    H217707   6.808   0.938   0.999
 5915TIP3   OH217708   7.204   1.669   1.206
 5915TIP3    H117709   7.194   1.703   1.295
 5915TIP3    H217710   7.137   1.601   1.198
 5916TIP3   OH217711   6.269   3.990   1.828
 5916TIP3    H117712   6.272   4.050   1.903
 5916TIP3    H217713   6.322   3.915   1.854
 5917TIP3   OH217714   4.968   3.137   2.838
 5917TIP3    H117715   4.981   3.045   2.858
 5917TIP3    H217716   4.923   3.137   2.753
 5918TIP3   OH217717   4.956   1.239   3.142
 5918TIP3    H117718   4.924   1.220   3.054
 5918TIP3    H217719   4.877   1.251   3.194
 5919TIP3   OH217720   5.665   6.433   3.543
 5919TIP3    H117721   5.709   6.507   3.584
 5919TIP3    H217722   5.736   6.379   3.507
 5920TIP3   OH217723   6.555   3.602   5.582
 5920TIP3    H117724   6.488   3.670   5.578
 5920TIP3    H217725   6.613   3.629   5.653
 5921TIP3   OH217726   3.011   6.515   2.350
 5921TIP3    H117727   2.931   6.462   2.350
 5921TIP3    H217728   3.009   6.561   2.434
 5922TIP3   OH217729   4.236   1.899   1.810
 5922TIP3    H117730   4.238   1.932   1.720
 5922TIP3    H217731   4.160   1.941   1.850
 5923TIP3   OH217732   0.291   4.214   2.471
 5923TIP3    H117733   0.300   4.308   2.485
 5923TIP3    H217734   0.196   4.199   2.475
 5924TIP3   OH217735   1.609   2.643   0.113
 5924TIP3    H117736   1.579   2.575   0.053
 5924TIP3    H217737   1.609   2.723   0.060
 5925TIP3   OH217738   0.431   4.201   2.234
 5925TIP3    H117739   0.376   4.214   2.312
 5925TIP3    H217740   0.382   4.243   2.163
 5926TIP3   OH217741   0.787   0.505   0.812
 5926TIP3    H117742   0.742   0.485   0.894
 5926TIP3    H217743   0.860   0.561   0.837
 5927TIP3   OH217744   0.121   1.513   0.579
 5927TIP3    H117745   0.129   1.460   0.499
 5927TIP3    H217746   0.037   1.489   0.616
 5928TIP3   OH217747   6.583   3.948   3.205
 5928TIP3    H117748   6.625   4.006   3.268
 5928TIP3    H217749   6.490   3.954   3.225
 5929TIP3   OH217750   3.571   2.411   3.601
 5929TIP3    H117751   3.525   2.442   3.523
 5929TIP3    H217752   3.500   2.389   3.663
 5930TIP3   OH217753   2.175   1.010   2.527
 5930TIP3    H117754   2.243   1.056   2.576
 5930TIP3    H217755   2.167   1.059   2.445
 5931TIP3   OH217756   5.195   4.410   1.027
 5931TIP3    H117757   5.262   4.469   1.063
 5931TIP3    H217758   5.241   4.328   1.011
 5932TIP3   OH217759   4.536   5.211   4.812
 5932TIP3    H117760   4.474   5.281   4.791
 5932TIP3    H217761   4.599   5.251   4.871
 5933TIP3   OH217762   7.136   6.536   5.836
 5933TIP3    H117763   7.117   6.588   5.758
 5933TIP3    H217764   7.107   6.590   5.909
 5934TIP3   OH217765   0.249   0.261   1.514
 5934TIP3    H117766   0.243   0.217   1.599
 5934TIP3    H217767   0.282   0.195   1.454
 5935TIP3   OH217768   1.055   0.086   3.864
 5935TIP3    H117769   0.961   0.070   3.862
 5935TIP3    H217770   1.064   0.175   3.898
 5936TIP3   OH217771   1.838   3.078   3.693
 5936TIP3    H117772   1.769   3.026   3.735
 5936TIP3    H217773   1.821   3.168   3.722
 5937TIP3   OH217774   5.209   2.080   2.573
 5937TIP3    H117775   5.254   2.164   2.576
 5937TIP3    H217776   5.264   2.025   2.518
 5938TIP3   OH217777   5.988   2.425   2.604
 5938TIP3    H117778   6.051   2.436   2.675
 5938TIP3    H217779   5.939   2.346   2.628
 5939TIP3   OH217780   1.307   3.579   2.175
 5939TIP3    H117781   1.317   3.575   2.270
 5939TIP3    H217782   1.233   3.638   2.161
 5940TIP3   OH217783   3.667   3.250   3.362
 5940TIP3    H117784   3.726   3.296   3.421
 5940TIP3    H217785   3.725   3.214   3.294
 5941TIP3   OH217786   6.151   1.343   4.034
 5941TIP3    H117787   6.215   1.301   4.090
 5941TIP3    H217788   6.086   1.380   4.095
 5942TIP3   OH217789   3.579   0.967   2.284
 5942TIP3    H117790   3.605   0.993   2.195
 5942TIP3    H217791   3.578   0.871   2.281
 5943TIP3   OH217792   6.170   3.083   4.499
 5943TIP3    H117793   6.237   3.023   4.467
 5943TIP3    H217794   6.218   3.160   4.530
 5944TIP3   OH217795   0.723   1.733   0.615
 5944TIP3    H117796   0.797   1.676   0.594
 5944TIP3    H217797   0.718   1.794   0.541
 5945TIP3   OH217798   5.479   4.248   3.883
 5945TIP3    H117799   5.421   4.179   3.915
 5945TIP3    H217800   5.437   4.329   3.911
 5946TIP3   OH217801   2.376   4.849   0.249
 5946TIP3    H117802   2.298   4.903   0.261
 5946TIP3    H217803   2.381   4.796   0.328
 5947TIP3   OH217804   1.042   2.799   2.048
 5947TIP3    H117805   0.947   2.809   2.038
 5947TIP3    H217806   1.061   2.712   2.013
 5948TIP3   OH217807   2.573   4.180   0.414
 5948TIP3    H117808   2.524   4.202   0.335
 5948TIP3    H217809   2.622   4.260   0.434
 5949TIP3   OH217810   2.913   6.790   4.401
 5949TIP3    H117811   2.859   6.717   4.430
 5949TIP3    H217812   2.920   6.847   4.478
 5950TIP3   OH217813   1.309   4.172   4.996
 5950TIP3    H117814   1.357   4.102   5.040
 5950TIP3    H217815   1.250   4.208   5.062
 5951TIP3   OH217816   1.402   5.181   1.886
 5951TIP3    H117817   1.324   5.166   1.940
 5951TIP3    H217818   1.464   5.115   1.916
 5952TIP3   OH217819   3.290   1.851   2.811
 5952TIP3    H117820   3.316   1.828   2.900
 5952TIP3    H217821   3.288   1.947   2.810
 5953TIP3   OH217822   3.772   3.237   3.873
 5953TIP3    H117823   3.826   3.308   3.908
 5953TIP3    H217824   3.705   3.282   3.820
 5954TIP3   OH217825   4.543   3.675   1.886
 5954TIP3    H117826   4.597   3.655   1.810
 5954TIP3    H217827   4.579   3.620   1.956
 5955TIP3   OH217828   6.844   2.678   1.092
 5955TIP3    H117829   6.767   2.728   1.118
 5955TIP3    H217830   6.867   2.627   1.170
 5956TIP3   OH217831   1.790   5.614   2.369
 5956TIP3    H117832   1.819   5.697   2.331
 5956TIP3    H217833   1.792   5.552   2.295
 5957TIP3   OH217834   4.274   0.618   2.297
 5957TIP3    H117835   4.203   0.650   2.353
 5957TIP3    H217836   4.354   0.651   2.338
 5958TIP3   OH217837   2.029   1.702   5.286
 5958TIP3    H117838   1.963   1.656   5.233
 5958TIP3    H217839   2.097   1.725   5.223
 5959TIP3   OH217840   6.832   0.535   2.470
 5959TIP3    H117841   6.807   0.463   2.527
 5959TIP3    H217842   6.749   0.572   2.440
 5960TIP3   OH217843   2.654   4.864   1.779
 5960TIP3    H117844   2.707   4.910   1.844
 5960TIP3    H217845   2.674   4.908   1.696
 5961TIP3   OH217846   1.443   4.582   5.713
 5961TIP3    H117847   1.392   4.597   5.633
 5961TIP3    H217848   1.470   4.490   5.708
 5962TIP3   OH217849   2.503   4.188   4.127
 5962TIP3    H117850   2.449   4.195   4.049
 5962TIP3    H217851   2.473   4.108   4.170
 5963TIP3   OH217852   5.003   2.138   1.855
 5963TIP3    H117853   4.975   2.100   1.771
 5963TIP3    H217854   4.963   2.225   1.856
 5964TIP3   OH217855   5.316   3.955   0.012
 5964TIP3    H117856   5.317   3.929  -0.080
 5964TIP3    H217857   5.232   3.925   0.046
 5965TIP3   OH217858   2.692   3.320   3.518
 5965TIP3    H117859   2.745   3.400   3.525
 5965TIP3    H217860   2.753   3.254   3.487
 5966TIP3   OH217861   0.918   5.128   2.583
 5966TIP3    H117862   0.885   5.198   2.526
 5966TIP3    H217863   0.910   5.164   2.671
 5967TIP3   OH217864   2.972   2.017   2.927
 5967TIP3    H117865   2.966   2.009   3.022
 5967TIP3    H217866   2.953   2.109   2.910
 5968TIP3   OH217867   6.753   4.032   3.547
 5968TIP3    H117868   6.699   4.075   3.482
 5968TIP3    H217869   6.825   4.093   3.563
 5969TIP3   OH217870   3.212   5.351   4.264
 5969TIP3    H117871   3.138   5.291   4.265
 5969TIP3    H217872   3.194   5.414   4.333
 5970TIP3   OH217873   6.172   2.784   0.596
 5970TIP3    H117874   6.166   2.879   0.588
 5970TIP3    H217875   6.251   2.761   0.547
 5971TIP3   OH217876   4.214   2.419   1.358
 5971TIP3    H117877   4.140   2.358   1.351
 5971TIP3    H217878   4.176   2.499   1.394
 5972TIP3   OH217879   6.793   2.572   1.348
 5972TIP3    H117880   6.709   2.591   1.390
 5972TIP3    H217881   6.858   2.585   1.417
 5973TIP3   OH217882   0.058   4.260   3.117
 5973TIP3    H117883   0.099   4.343   3.141
 5973TIP3    H217884   0.052   4.263   3.022
 5974TIP3   OH217885   5.292   2.949   1.577
 5974TIP3    H117886   5.251   3.035   1.587
 5974TIP3    H217887   5.224   2.895   1.535
 5975TIP3   OH217888   1.067   1.148   5.078
 5975TIP3    H117889   1.051   1.077   5.017
 5975TIP3    H217890   1.033   1.226   5.034
 5976TIP3   OH217891   3.042   5.271   4.871
 5976TIP3    H117892   2.953   5.296   4.846
 5976TIP3    H217893   3.040   5.262   4.966
 5977TIP3   OH217894   1.902   4.411   3.407
 5977TIP3    H117895   1.901   4.506   3.396
 5977TIP3    H217896   1.817   4.391   3.447
 5978TIP3   OH217897   6.451   2.468   1.217
 5978TIP3    H117898   6.538   2.431   1.230
 5978TIP3    H217899   6.455   2.510   1.131
 5979TIP3   OH217900   4.548   6.159   2.783
 5979TIP3    H117901   4.596   6.185   2.862
 5979TIP3    H217902   4.603   6.188   2.710
 5980TIP3   OH217903   6.228   2.810   0.053
 5980TIP3    H117904   6.209   2.882   0.113
 5980TIP3    H217905   6.174   2.738   0.085
 5981TIP3   OH217906   0.512   0.579   1.062
 5981TIP3    H117907   0.420   0.561   1.043
 5981TIP3    H217908   0.513   0.670   1.092
 5982TIP3   OH217909   2.559   5.908   1.881
 5982TIP3    H117910   2.574   5.975   1.947
 5982TIP3    H217911   2.511   5.839   1.927
 5983TIP3   OH217912   1.725   5.898   0.318
 5983TIP3    H117913   1.664   5.895   0.245
 5983TIP3    H217914   1.811   5.904   0.277
 5984TIP3   OH217915   3.336   4.665   4.172
 5984TIP3    H117916   3.413   4.620   4.138
 5984TIP3    H217917   3.353   4.674   4.266
 5985TIP3   OH217918   1.052   2.270   4.656
 5985TIP3    H117919   1.055   2.364   4.639
 5985TIP3    H217920   1.100   2.231   4.582
 5986TIP3   OH217921   2.554   5.485   4.418
 5986TIP3    H117922   2.557   5.575   4.451
 5986TIP3    H217923   2.462   5.470   4.397
 5987TIP3   OH217924   2.656   6.485   1.625
 5987TIP3    H117925   2.723   6.426   1.660
 5987TIP3    H217926   2.596   6.428   1.577
 5988TIP3   OH217927   1.902   0.697   5.770
 5988TIP3    H117928   1.908   0.621   5.829
 5988TIP3    H217929   1.892   0.658   5.683
 5989TIP3   OH217930   2.186   5.268   2.079
 5989TIP3    H117931   2.130   5.233   2.010
 5989TIP3    H217932   2.142   5.348   2.107
 5990TIP3   OH217933   3.506   5.014   4.670
 5990TIP3    H117934   3.411   5.009   4.671
 5990TIP3    H217935   3.531   4.967   4.590
 5991TIP3   OH217936   5.556   5.398   4.233
 5991TIP3    H117937   5.592   5.400   4.322
 5991TIP3    H217938   5.486   5.463   4.234
 5992TIP3   OH217939   3.228   5.178   4.535
 5992TIP3    H117940   3.284   5.254   4.524
 5992TIP3    H217941   3.250   5.144   4.622
 5993TIP3   OH217942   6.042   2.043   1.516
 5993TIP3    H117943   5.975   2.077   1.457
 5993TIP3    H217944   6.005   2.055   1.604
 5994TIP3   OH217945   4.146   0.490   5.164
 5994TIP3    H117946   4.104   0.544   5.230
 5994TIP3    H217947   4.210   0.548   5.122
 5995TIP3   OH217948   4.461   1.389   5.106
 5995TIP3    H117949   4.483   1.351   5.192
 5995TIP3    H217950   4.375   1.353   5.085
 5996TIP3   OH217951   6.192   3.249   3.301
 5996TIP3    H117952   6.287   3.239   3.305
 5996TIP3    H217953   6.166   3.268   3.391
 5997TIP3   OH217954   6.965   3.425   0.519
 5997TIP3    H117955   7.026   3.443   0.448
 5997TIP3    H217956   7.013   3.366   0.577
 5998TIP3   OH217957   5.246   3.900   1.296
 5998TIP3    H117958   5.288   3.937   1.375
 5998TIP3    H217959   5.313   3.907   1.228
 5999TIP3   OH217960   2.452   0.660   5.166
 5999TIP3    H117961   2.510   0.680   5.240
 5999TIP3    H217962   2.366   0.647   5.206
 6000TIP3   OH217963   4.197   6.152   4.045
 6000TIP3    H117964   4.265   6.219   4.058
 6000TIP3    H217965   4.229   6.100   3.971
 6001TIP3   OH217966   5.523   1.841   2.810
 6001TIP3    H117967   5.532   1.862   2.717
 6001TIP3    H217968   5.477   1.916   2.848
 6002TIP3   OH217969   0.212   0.696   1.449
 6002TIP3    H117970   0.145   0.638   1.486
 6002TIP3    H217971   0.164   0.755   1.391
 6003TIP3   OH217972   1.382   2.422   4.852
 6003TIP3    H117973   1.461   2.387   4.893
 6003TIP3    H217974   1.324   2.347   4.843
 6004TIP3   OH217975   4.874   0.761   1.885
 6004TIP3    H117976   4.860   0.681   1.834
 6004TIP3    H217977   4.940   0.809   1.835
 6005TIP3   OH217978   0.570   1.395   5.087
 6005TIP3    H117979   0.533   1.361   5.005
 6005TIP3    H217980   0.655   1.352   5.095
 6006TIP3   OH217981   4.873   3.088   1.379
 6006TIP3    H117982   4.943   3.153   1.371
 6006TIP3    H217983   4.809   3.114   1.313
 6007TIP3   OH217984   2.231   5.218   4.916
 6007TIP3    H117985   2.211   5.204   4.823
 6007TIP3    H217986   2.160   5.275   4.947
 6008TIP3   OH217987   3.864   3.880   5.260
 6008TIP3    H117988   3.884   3.944   5.192
 6008TIP3    H217989   3.836   3.802   5.211
 6009TIP3   OH217990   0.628   2.689   3.297
 6009TIP3    H117991   0.633   2.723   3.208
 6009TIP3    H217992   0.534   2.680   3.314
 6010TIP3   OH217993   4.994   5.136   0.524
 6010TIP3    H117994   4.912   5.184   0.533
 6010TIP3    H217995   4.977   5.071   0.456
 6011TIP3   OH217996   2.258   4.048   3.536
 6011TIP3    H117997   2.298   4.125   3.496
 6011TIP3    H217998   2.328   3.983   3.538
 6012TIP3   OH217999   7.038   5.584   5.551
 6012TIP3    H118000   7.013   5.655   5.610
 6012TIP3    H218001   7.028   5.505   5.603
 6013TIP3   OH218002   4.923   2.900   5.581
 6013TIP3    H118003   4.828   2.887   5.592
 6013TIP3    H218004   4.933   2.919   5.488
 6014TIP3   OH218005   6.591   1.053   4.061
 6014TIP3    H118006   6.508   1.052   4.110
 6014TIP3    H218007   6.629   0.967   4.077
 6015TIP3   OH218008   6.080   3.846   3.535
 6015TIP3    H118009   6.021   3.835   3.461
 6015TIP3    H218010   6.022   3.865   3.609
 6016TIP3   OH218011   4.021   1.567   1.558
 6016TIP3    H118012   3.958   1.506   1.520
 6016TIP3    H218013   3.972   1.649   1.569
 6017TIP3   OH218014   5.000   4.353   2.606
 6017TIP3    H118015   4.977   4.315   2.691
 6017TIP3    H218016   5.049   4.432   2.628
 6018TIP3   OH218017   3.929   6.329   3.894
 6018TIP3    H118018   3.952   6.251   3.844
 6018TIP3    H218019   3.834   6.324   3.904
 6019TIP3   OH218020   3.672   2.915   1.629
 6019TIP3    H118021   3.689   3.006   1.650
 6019TIP3    H218022   3.754   2.869   1.650
 6020TIP3   OH218023   5.643   5.748   1.962
 6020TIP3    H118024   5.617   5.679   1.900
 6020TIP3    H218025   5.705   5.802   1.913
 6021TIP3   OH218026   3.342   3.374   1.283
 6021TIP3    H118027   3.277   3.392   1.352
 6021TIP3    H218028   3.322   3.285   1.254
 6022TIP3   OH218029   6.982   0.057   3.649
 6022TIP3    H118030   7.036   0.126   3.610
 6022TIP3    H218031   6.892   0.086   3.635
 6023TIP3   OH218032   4.357   0.337   2.887
 6023TIP3    H118033   4.346   0.423   2.928
 6023TIP3    H218034   4.445   0.339   2.851
 6024TIP3   OH218035   0.842   1.838   4.491
 6024TIP3    H118036   0.784   1.913   4.499
 6024TIP3    H218037   0.793   1.775   4.438
 6025TIP3   OH218038   2.470   2.074   5.404
 6025TIP3    H118039   2.418   2.096   5.481
 6025TIP3    H218040   2.552   2.041   5.439
 6026TIP3   OH218041   1.293   3.689   0.851
 6026TIP3    H118042   1.229   3.660   0.786
 6026TIP3    H218043   1.370   3.714   0.800
 6027TIP3   OH218044   4.109   5.789   2.544
 6027TIP3    H118045   4.202   5.769   2.551
 6027TIP3    H218046   4.085   5.820   2.631
 6028TIP3   OH218047   5.537   0.630   2.263
 6028TIP3    H118048   5.441   0.630   2.264
 6028TIP3    H218049   5.561   0.538   2.253
 6029TIP3   OH218050   5.142   5.475   0.484
 6029TIP3    H118051   5.186   5.458   0.401
 6029TIP3    H218052   5.058   5.513   0.460
 6030TIP3   OH218053   6.333   3.311   4.663
 6030TIP3    H118054   6.268   3.284   4.729
 6030TIP3    H218055   6.300   3.394   4.629
 6031TIP3   OH218056   4.732   2.348   2.953
 6031TIP3    H118057   4.691   2.315   3.032
 6031TIP3    H218058   4.817   2.381   2.982
 6032TIP3   OH218059   4.694   5.326   1.968
 6032TIP3    H118060   4.712   5.249   2.022
 6032TIP3    H218061   4.659   5.390   2.029
 6033TIP3   OH218062   7.127   4.815   0.216
 6033TIP3    H118063   7.065   4.743   0.227
 6033TIP3    H218064   7.179   4.790   0.140
 6034TIP3   OH218065   1.302   2.561   4.439
 6034TIP3    H118066   1.378   2.559   4.497
 6034TIP3    H218067   1.311   2.643   4.389
 6035TIP3   OH218068   5.400   0.331   4.270
 6035TIP3    H118069   5.421   0.364   4.183
 6035TIP3    H218070   5.417   0.237   4.265
 6036TIP3   OH218071   4.650   5.507   5.636
 6036TIP3    H118072   4.572   5.468   5.597
 6036TIP3    H218073   4.667   5.454   5.714
 6037TIP3   OH218074   5.757   1.652   2.156
 6037TIP3    H118075   5.719   1.667   2.070
 6037TIP3    H218076   5.718   1.569   2.185
 6038TIP3   OH218077   5.286   1.017   3.833
 6038TIP3    H118078   5.204   1.003   3.882
 6038TIP3    H218079   5.257   1.037   3.744
 6039TIP3   OH218080   1.704   2.784   4.102
 6039TIP3    H118081   1.701   2.880   4.103
 6039TIP3    H218082   1.794   2.764   4.077
 6040TIP3   OH218083   5.712   6.528   0.811
 6040TIP3    H118084   5.726   6.578   0.730
 6040TIP3    H218085   5.793   6.480   0.824
 6041TIP3   OH218086   0.438   0.826   1.299
 6041TIP3    H118087   0.374   0.812   1.369
 6041TIP3    H218088   0.384   0.847   1.222
 6042TIP3   OH218089   6.134   3.534   4.909
 6042TIP3    H118090   6.183   3.482   4.974
 6042TIP3    H218091   6.046   3.498   4.911
 6043TIP3   OH218092   3.090   2.100   5.537
 6043TIP3    H118093   3.054   2.021   5.577
 6043TIP3    H218094   3.181   2.104   5.569
 6044TIP3   OH218095   6.681   5.403   0.822
 6044TIP3    H118096   6.754   5.465   0.820
 6044TIP3    H218097   6.719   5.319   0.795
 6045TIP3   OH218098   1.168   6.711   4.238
 6045TIP3    H118099   1.149   6.791   4.189
 6045TIP3    H218100   1.257   6.688   4.213
 6046TIP3   OH218101   3.584   1.829   1.225
 6046TIP3    H118102   3.545   1.770   1.290
 6046TIP3    H218103   3.566   1.786   1.141
 6047TIP3   OH218104   6.566   6.329   3.383
 6047TIP3    H118105   6.581   6.416   3.348
 6047TIP3    H218106   6.472   6.314   3.371
 6048TIP3   OH218107   4.084   2.568   4.031
 6048TIP3    H118108   4.118   2.510   4.099
 6048TIP3    H218109   4.110   2.526   3.949
 6049TIP3   OH218110   3.523   2.734   3.856
 6049TIP3    H118111   3.437   2.768   3.833
 6049TIP3    H218112   3.573   2.811   3.883
 6050TIP3   OH218113   5.957   3.286   5.578
 6050TIP3    H118114   5.888   3.240   5.531
 6050TIP3    H218115   6.029   3.292   5.515
 6051TIP3   OH218116   4.567   3.169   3.583
 6051TIP3    H118117   4.526   3.244   3.625
 6051TIP3    H218118   4.514   3.151   3.505
 6052TIP3   OH218119   2.831   1.460   5.070
 6052TIP3    H118120   2.779   1.432   4.994
 6052TIP3    H218121   2.787   1.540   5.100
 6053TIP3   OH218122   5.080   4.155   2.401
 6053TIP3    H118123   5.097   4.186   2.490
 6053TIP3    H218124   5.004   4.205   2.372
 6054TIP3   OH218125   5.889   1.157   0.919
 6054TIP3    H118126   5.869   1.138   0.827
 6054TIP3    H218127   5.900   1.071   0.959
 6055TIP3   OH218128   1.085   1.312   0.970
 6055TIP3    H118129   1.134   1.294   1.050
 6055TIP3    H218130   1.061   1.225   0.937
 6056TIP3   OH218131   2.788   4.534   5.554
 6056TIP3    H118132   2.774   4.602   5.487
 6056TIP3    H218133   2.714   4.475   5.543
 6057TIP3   OH218134   5.475   6.342   1.369
 6057TIP3    H118135   5.499   6.267   1.424
 6057TIP3    H218136   5.497   6.418   1.422
 6058TIP3   OH218137   4.472   3.086   0.707
 6058TIP3    H118138   4.391   3.084   0.757
 6058TIP3    H218139   4.480   2.996   0.673
 6059TIP3   OH218140   6.120   4.292   1.926
 6059TIP3    H118141   6.188   4.332   1.872
 6059TIP3    H218142   6.052   4.358   1.932
 6060TIP3   OH218143   5.161   2.740   0.580
 6060TIP3    H118144   5.170   2.818   0.525
 6060TIP3    H218145   5.144   2.774   0.668
 6061TIP3   OH218146   5.323   5.272   2.160
 6061TIP3    H118147   5.356   5.264   2.249
 6061TIP3    H218148   5.386   5.328   2.115
 6062TIP3   OH218149   2.751   3.808   5.328
 6062TIP3    H118150   2.771   3.867   5.402
 6062TIP3    H218151   2.819   3.742   5.331
 6063TIP3   OH218152   2.007   3.879   2.177
 6063TIP3    H118153   1.920   3.912   2.200
 6063TIP3    H218154   2.060   3.958   2.168
 6064TIP3   OH218155   3.310   4.533   1.433
 6064TIP3    H118156   3.403   4.512   1.424
 6064TIP3    H218157   3.277   4.536   1.343
 6065TIP3   OH218158   4.639   5.557   4.291
 6065TIP3    H118159   4.592   5.474   4.293
 6065TIP3    H218160   4.731   5.532   4.281
 6066TIP3   OH218161   5.034   5.022   5.380
 6066TIP3    H118162   4.956   4.988   5.424
 6066TIP3    H218163   5.066   4.948   5.329
 6067TIP3   OH218164   5.881   0.119   3.120
 6067TIP3    H118165   5.969   0.111   3.157
 6067TIP3    H218166   5.861   0.032   3.086
 6068TIP3   OH218167   2.636   2.370   4.322
 6068TIP3    H118168   2.597   2.286   4.302
 6068TIP3    H218169   2.674   2.399   4.239
 6069TIP3   OH218170   3.627   1.077   4.295
 6069TIP3    H118171   3.592   1.065   4.207
 6069TIP3    H218172   3.549   1.092   4.349
 6070TIP3   OH218173   0.112   2.510   1.096
 6070TIP3    H118174   0.084   2.500   1.006
 6070TIP3    H218175   0.124   2.420   1.127
 6071TIP3   OH218176   6.333   4.478   5.383
 6071TIP3    H118177   6.361   4.387   5.380
 6071TIP3    H218178   6.414   4.528   5.378
 6072TIP3   OH218179   0.910   2.955   4.559
 6072TIP3    H118180   0.969   3.027   4.535
 6072TIP3    H218181   0.932   2.885   4.497
 6073TIP3   OH218182   7.112   0.303   3.197
 6073TIP3    H118183   7.091   0.234   3.259
 6073TIP3    H218184   7.035   0.361   3.200
 6074TIP3   OH218185   6.815   5.191   2.862
 6074TIP3    H118186   6.883   5.144   2.911
 6074TIP3    H218187   6.772   5.123   2.810
 6075TIP3   OH218188   4.327   3.064   2.584
 6075TIP3    H118189   4.245   3.051   2.537
 6075TIP3    H218190   4.376   2.982   2.571
 6076TIP3   OH218191   3.833   6.400   0.531
 6076TIP3    H118192   3.894   6.337   0.571
 6076TIP3    H218193   3.878   6.484   0.540
 6077TIP3   OH218194   3.332   2.225   4.340
 6077TIP3    H118195   3.354   2.302   4.288
 6077TIP3    H218196   3.391   2.157   4.309
 6078TIP3   OH218197   5.200   3.451   1.335
 6078TIP3    H118198   5.210   3.515   1.264
 6078TIP3    H218199   5.287   3.448   1.376
 6079TIP3   OH218200   3.312   0.781   4.556
 6079TIP3    H118201   3.231   0.773   4.606
 6079TIP3    H218202   3.378   0.736   4.608
 6080TIP3   OH218203   5.967   4.432   2.586
 6080TIP3    H118204   6.054   4.469   2.570
 6080TIP3    H218205   5.964   4.419   2.681
 6081TIP3   OH218206   0.793   4.284   1.692
 6081TIP3    H118207   0.753   4.359   1.647
 6081TIP3    H218208   0.869   4.321   1.737
 6082TIP3   OH218209   2.882   3.346   5.351
 6082TIP3    H118210   2.919   3.403   5.283
 6082TIP3    H218211   2.958   3.318   5.402
 6083TIP3   OH218212   0.654   6.550   0.370
 6083TIP3    H118213   0.734   6.517   0.411
 6083TIP3    H218214   0.683   6.622   0.314
 6084TIP3   OH218215   6.449   1.624   2.987
 6084TIP3    H118216   6.395   1.688   2.942
 6084TIP3    H218217   6.521   1.607   2.926
 6085TIP3   OH218218   0.223   1.545   0.821
 6085TIP3    H118219   0.303   1.597   0.818
 6085TIP3    H218220   0.187   1.551   0.733
 6086TIP3   OH218221   5.805   2.926   0.846
 6086TIP3    H118222   5.776   2.916   0.937
 6086TIP3    H218223   5.723   2.932   0.796
 6087TIP3   OH218224   3.835   6.653   1.155
 6087TIP3    H118225   3.875   6.583   1.206
 6087TIP3    H218226   3.909   6.698   1.114
 6088TIP3   OH218227   6.930   5.064   5.536
 6088TIP3    H118228   6.928   5.065   5.440
 6088TIP3    H218229   6.996   4.998   5.558
 6089TIP3   OH218230   5.974   6.165   1.927
 6089TIP3    H118231   5.912   6.208   1.869
 6089TIP3    H218232   5.943   6.074   1.932
 6090TIP3   OH218233   2.075   6.473   4.343
 6090TIP3    H118234   2.087   6.565   4.365
 6090TIP3    H218235   2.049   6.432   4.426
 6091TIP3   OH218236   0.226   2.921   0.387
 6091TIP3    H118237   0.171   2.846   0.409
 6091TIP3    H218238   0.246   2.962   0.472
 6092TIP3   OH218239   1.456   0.920   3.483
 6092TIP3    H118240   1.497   1.006   3.486
 6092TIP3    H218241   1.364   0.938   3.464
 6093TIP3   OH218242   5.072   3.602   0.135
 6093TIP3    H118243   5.057   3.602   0.229
 6093TIP3    H218244   5.034   3.520   0.104
 6094TIP3   OH218245   1.143   4.378   5.088
 6094TIP3    H118246   1.116   4.374   4.996
 6094TIP3    H218247   1.139   4.471   5.110
 6095TIP3   OH218248   0.672   2.478   0.122
 6095TIP3    H118249   0.760   2.511   0.104
 6095TIP3    H218250   0.622   2.554   0.151
 6096TIP3   OH218251   1.223   0.025   1.840
 6096TIP3    H118252   1.216   0.119   1.855
 6096TIP3    H218253   1.132  -0.006   1.841
 6097TIP3   OH218254   1.462   4.992   3.627
 6097TIP3    H118255   1.485   5.082   3.606
 6097TIP3    H218256   1.380   4.976   3.579
 6098TIP3   OH218257   4.186   2.635   2.897
 6098TIP3    H118258   4.117   2.701   2.903
 6098TIP3    H218259   4.147   2.564   2.846
 6099TIP3   OH218260   5.596   0.732   5.314
 6099TIP3    H118261   5.529   0.797   5.338
 6099TIP3    H218262   5.650   0.777   5.249
 6100TIP3   OH218263   1.716   6.209   2.976
 6100TIP3    H118264   1.770   6.288   2.975
 6100TIP3    H218265   1.639   6.233   3.027
 6101TIP3   OH218266   5.542   5.328   5.881
 6101TIP3    H118267   5.455   5.318   5.842
 6101TIP3    H218268   5.555   5.423   5.886
 6102TIP3   OH218269   4.101   5.379   5.441
 6102TIP3    H118270   4.129   5.455   5.391
 6102TIP3    H218271   4.007   5.393   5.456
 6103TIP3   OH218272   1.614   2.960   3.336
 6103TIP3    H118273   1.682   2.956   3.403
 6103TIP3    H218274   1.644   2.898   3.269
 6104TIP3   OH218275   2.317   6.649   2.626
 6104TIP3    H118276   2.237   6.622   2.671
 6104TIP3    H218277   2.339   6.733   2.666
 6105TIP3   OH218278   2.367   6.528   4.663
 6105TIP3    H118279   2.445   6.519   4.717
 6105TIP3    H218280   2.296   6.541   4.725
 6106TIP3   OH218281   1.884   3.547   3.682
 6106TIP3    H118282   1.915   3.599   3.756
 6106TIP3    H218283   1.964   3.512   3.643
 6107TIP3   OH218284   4.229   3.582   4.134
 6107TIP3    H118285   4.168   3.650   4.106
 6107TIP3    H218286   4.221   3.513   4.068
 6108TIP3   OH218287   5.431   5.138   2.865
 6108TIP3    H118288   5.337   5.142   2.846
 6108TIP3    H218289   5.456   5.049   2.840
 6109TIP3   OH218290   1.520   3.315   0.873
 6109TIP3    H118291   1.436   3.271   0.882
 6109TIP3    H218292   1.531   3.325   0.778
 6110TIP3   OH218293   3.627   5.526   3.488
 6110TIP3    H118294   3.684   5.449   3.489
 6110TIP3    H218295   3.669   5.588   3.547
 6111TIP3   OH218296   5.156   0.582   1.773
 6111TIP3    H118297   5.078   0.527   1.778
 6111TIP3    H218298   5.163   0.623   1.859
 6112TIP3   OH218299   2.636   2.983   5.453
 6112TIP3    H118300   2.616   2.914   5.389
 6112TIP3    H218301   2.635   3.064   5.402
 6113TIP3   OH218302   6.513   6.624   2.027
 6113TIP3    H118303   6.514   6.717   2.052
 6113TIP3    H218304   6.604   6.604   2.005
 6114TIP3   OH218305   3.902   6.566   5.869
 6114TIP3    H118306   3.812   6.551   5.841
 6114TIP3    H218307   3.898   6.572   5.964
 6115TIP3   OH218308   2.752   1.079   0.174
 6115TIP3    H118309   2.826   1.096   0.115
 6115TIP3    H218310   2.793   1.041   0.252
 6116TIP3   OH218311   5.081   3.193   4.202
 6116TIP3    H118312   5.015   3.221   4.139
 6116TIP3    H218313   5.051   3.228   4.286
 6117TIP3   OH218314   2.631   1.937   0.551
 6117TIP3    H118315   2.615   2.000   0.481
 6117TIP3    H218316   2.548   1.889   0.560
 6118TIP3   OH218317   2.510   0.730   2.750
 6118TIP3    H118318   2.458   0.704   2.826
 6118TIP3    H218319   2.529   0.822   2.765
 6119TIP3   OH218320   1.033   4.383   2.156
 6119TIP3    H118321   1.112   4.436   2.170
 6119TIP3    H218322   1.043   4.309   2.215
 6120TIP3   OH218323   5.885   3.837   3.739
 6120TIP3    H118324   5.801   3.883   3.729
 6120TIP3    H218325   5.863   3.744   3.734
 6121TIP3   OH218326   5.831   2.474   4.776
 6121TIP3    H118327   5.835   2.513   4.689
 6121TIP3    H218328   5.752   2.421   4.775
 6122TIP3   OH218329   3.113   4.780   4.688
 6122TIP3    H118330   3.121   4.783   4.592
 6122TIP3    H218331   3.021   4.801   4.705
 6123TIP3   OH218332   1.568   0.682   1.882
 6123TIP3    H118333   1.630   0.614   1.909
 6123TIP3    H218334   1.517   0.641   1.813
 6124TIP3   OH218335   1.999   5.086   2.787
 6124TIP3    H118336   1.918   5.120   2.749
 6124TIP3    H218337   2.017   5.007   2.738
 6125TIP3   OH218338   2.787   1.154   2.172
 6125TIP3    H118339   2.714   1.210   2.194
 6125TIP3    H218340   2.772   1.129   2.081
 6126TIP3   OH218341   7.113   5.738   4.161
 6126TIP3    H118342   7.114   5.815   4.104
 6126TIP3    H218343   7.037   5.688   4.132
 6127TIP3   OH218344   4.028   0.479   2.202
 6127TIP3    H118345   3.946   0.430   2.210
 6127TIP3    H218346   4.035   0.527   2.285
 6128TIP3   OH218347   5.687   2.259   5.804
 6128TIP3    H118348   5.624   2.224   5.868
 6128TIP3    H218349   5.697   2.351   5.828
 6129TIP3   OH218350   5.883   5.688   2.131
 6129TIP3    H118351   5.925   5.717   2.049
 6129TIP3    H218352   5.814   5.753   2.146
 6130TIP3   OH218353   5.025   2.271   3.692
 6130TIP3    H118354   4.943   2.313   3.669
 6130TIP3    H218355   5.000   2.186   3.727
 6131TIP3   OH218356   6.427   0.976   5.023
 6131TIP3    H118357   6.357   0.914   5.045
 6131TIP3    H218358   6.412   1.051   5.080
 6132TIP3   OH218359   2.589   6.757   5.273
 6132TIP3    H118360   2.681   6.741   5.249
 6132TIP3    H218361   2.586   6.740   5.367
 6133TIP3   OH218362   1.041   5.181   0.143
 6133TIP3    H118363   1.063   5.191   0.050
 6133TIP3    H218364   1.066   5.091   0.164
 6134TIP3   OH218365   2.279   1.272   2.031
 6134TIP3    H118366   2.253   1.347   2.084
 6134TIP3    H218367   2.221   1.275   1.955
 6135TIP3   OH218368   5.921   6.393   0.292
 6135TIP3    H118369   5.922   6.309   0.245
 6135TIP3    H218370   6.013   6.415   0.301
 6136TIP3   OH218371   6.314   5.149   1.612
 6136TIP3    H118372   6.406   5.161   1.636
 6136TIP3    H218373   6.284   5.076   1.665
 6137TIP3   OH218374   6.318   0.876   1.946
 6137TIP3    H118375   6.231   0.849   1.976
 6137TIP3    H218376   6.363   0.793   1.927
 6138TIP3   OH218377   0.511   2.093   3.446
 6138TIP3    H118378   0.449   2.022   3.462
 6138TIP3    H218379   0.458   2.163   3.407
 6139TIP3   OH218380   4.724   0.306   3.617
 6139TIP3    H118381   4.645   0.251   3.617
 6139TIP3    H218382   4.794   0.246   3.643
 6140TIP3   OH218383   4.309   3.888   0.079
 6140TIP3    H118384   4.234   3.832   0.061
 6140TIP3    H218385   4.307   3.901   0.174
 6141TIP3   OH218386   4.575   5.464   0.796
 6141TIP3    H118387   4.519   5.527   0.751
 6141TIP3    H218388   4.528   5.442   0.876
 6142TIP3   OH218389   4.366   5.526   4.396
 6142TIP3    H118390   4.420   5.502   4.321
 6142TIP3    H218391   4.305   5.454   4.407
 6143TIP3   OH218392   3.349   2.849   1.052
 6143TIP3    H118393   3.370   2.870   1.142
 6143TIP3    H218394   3.409   2.778   1.029
 6144TIP3   OH218395   5.663   0.211   4.681
 6144TIP3    H118396   5.654   0.259   4.599
 6144TIP3    H218397   5.607   0.259   4.743
 6145TIP3   OH218398   7.057   6.056   3.125
 6145TIP3    H118399   7.058   5.981   3.184
 6145TIP3    H218400   7.111   6.121   3.168
 6146TIP3   OH218401   7.055   6.166   4.679
 6146TIP3    H118402   7.004   6.096   4.719
 6146TIP3    H218403   7.079   6.133   4.593
 6147TIP3   OH218404   5.125   0.739   5.036
 6147TIP3    H118405   5.151   0.831   5.036
 6147TIP3    H218406   5.048   0.736   5.092
 6148TIP3   OH218407   1.098   3.675   0.630
 6148TIP3    H118408   1.165   3.624   0.585
 6148TIP3    H218409   1.060   3.614   0.694
 6149TIP3   OH218410   5.209   0.423   0.727
 6149TIP3    H118411   5.278   0.480   0.692
 6149TIP3    H218412   5.243   0.395   0.812
 6150TIP3   OH218413   5.226   3.659   4.175
 6150TIP3    H118414   5.226   3.570   4.139
 6150TIP3    H218415   5.138   3.692   4.157
 6151TIP3   OH218416   6.382   4.312   3.625
 6151TIP3    H118417   6.357   4.330   3.716
 6151TIP3    H218418   6.388   4.217   3.620
 6152TIP3   OH218419   1.911   1.905   1.731
 6152TIP3    H118420   2.001   1.906   1.698
 6152TIP3    H218421   1.884   1.813   1.725
 6153TIP3   OH218422   0.139   6.733   3.798
 6153TIP3    H118423   0.158   6.640   3.788
 6153TIP3    H218424   0.061   6.748   3.744
 6154TIP3   OH218425   1.514   0.314   4.486
 6154TIP3    H118426   1.499   0.242   4.547
 6154TIP3    H218427   1.490   0.393   4.534
 6155TIP3   OH218428   4.694   1.146   5.846
 6155TIP3    H118429   4.715   1.063   5.888
 6155TIP3    H218430   4.735   1.213   5.901
 6156TIP3   OH218431   1.320   0.663   0.631
 6156TIP3    H118432   1.389   0.690   0.570
 6156TIP3    H218433   1.264   0.606   0.579
 6157TIP3   OH218434   6.513   6.405   4.996
 6157TIP3    H118435   6.585   6.435   5.051
 6157TIP3    H218436   6.548   6.410   4.907
 6158TIP3   OH218437   5.127   4.129   3.078
 6158TIP3    H118438   5.220   4.146   3.096
 6158TIP3    H218439   5.081   4.198   3.126
 6159TIP3   OH218440   3.125   4.234   3.692
 6159TIP3    H118441   3.158   4.186   3.616
 6159TIP3    H218442   3.137   4.326   3.670
 6160TIP3   OH218443   6.557   5.610   4.524
 6160TIP3    H118444   6.616   5.632   4.452
 6160TIP3    H218445   6.487   5.675   4.520
 6161TIP3   OH218446   0.107   0.858   3.001
 6161TIP3    H118447   0.127   0.823   3.088
 6161TIP3    H218448   0.092   0.952   3.016
 6162TIP3   OH218449   1.255   5.135   1.634
 6162TIP3    H118450   1.231   5.175   1.718
 6162TIP3    H218451   1.295   5.207   1.585
 6163TIP3   OH218452   1.934   4.477   4.951
 6163TIP3    H118453   1.955   4.562   4.988
 6163TIP3    H218454   1.988   4.471   4.872
 6164TIP3   OH218455   4.411   6.619   4.753
 6164TIP3    H118456   4.471   6.606   4.826
 6164TIP3    H218457   4.404   6.533   4.711
 6165TIP3   OH218458   1.270   3.759   3.532
 6165TIP3    H118459   1.224   3.754   3.448
 6165TIP3    H218460   1.312   3.674   3.541
 6166TIP3   OH218461   6.094   5.737   1.053
 6166TIP3    H118462   6.057   5.706   0.970
 6166TIP3    H218463   6.188   5.740   1.037
 6167TIP3   OH218464   0.093   6.286   4.605
 6167TIP3    H118465   0.028   6.317   4.668
 6167TIP3    H218466   0.077   6.336   4.526
 6168TIP3   OH218467   5.325   4.144   2.178
 6168TIP3    H118468   5.247   4.182   2.138
 6168TIP3    H218469   5.363   4.216   2.229
 6169TIP3   OH218470   3.512   0.420   4.995
 6169TIP3    H118471   3.606   0.406   5.003
 6169TIP3    H218472   3.501   0.463   4.910
 6170TIP3   OH218473   5.084   0.530   1.076
 6170TIP3    H118474   5.012   0.511   1.015
 6170TIP3    H218475   5.159   0.485   1.037
 6171TIP3   OH218476   7.030   5.149   3.353
 6171TIP3    H118477   7.087   5.213   3.311
 6171TIP3    H218478   7.002   5.192   3.434
 6172TIP3   OH218479   6.155   6.518   1.468
 6172TIP3    H118480   6.194   6.559   1.545
 6172TIP3    H218481   6.154   6.425   1.489
 6173TIP3   OH218482   2.322   2.372   3.671
 6173TIP3    H118483   2.415   2.389   3.686
 6173TIP3    H218484   2.303   2.413   3.587
 6174TIP3   OH218485   4.363   6.617   2.539
 6174TIP3    H118486   4.407   6.606   2.455
 6174TIP3    H218487   4.415   6.683   2.585
 6175TIP3   OH218488   4.740   0.915   3.417
 6175TIP3    H118489   4.691   0.998   3.420
 6175TIP3    H218490   4.800   0.925   3.343
 6176TIP3   OH218491   3.872   0.052   4.434
 6176TIP3    H118492   3.830  -0.002   4.368
 6176TIP3    H218493   3.886   0.136   4.390
 6177TIP3   OH218494   6.031   4.631   5.450
 6177TIP3    H118495   6.056   4.556   5.394
 6177TIP3    H218496   6.075   4.706   5.410
 6178TIP3   OH218497   1.301   1.303   0.619
 6178TIP3    H118498   1.349   1.384   0.637
 6178TIP3    H218499   1.356   1.234   0.656
 6179TIP3   OH218500   4.527   2.701   5.151
 6179TIP3    H118501   4.610   2.653   5.161
 6179TIP3    H218502   4.499   2.682   5.061
 6180TIP3   OH218503   4.043   2.289   5.679
 6180TIP3    H118504   3.972   2.279   5.616
 6180TIP3    H218505   4.003   2.269   5.763
 6181TIP3   OH218506   3.197   4.333   0.380
 6181TIP3    H118507   3.221   4.240   0.382
 6181TIP3    H218508   3.177   4.351   0.288
 6182TIP3   OH218509   0.311   6.755   1.138
 6182TIP3    H118510   0.336   6.663   1.125
 6182TIP3    H218511   0.260   6.777   1.061
 6183TIP3   OH218512   3.623   1.311   4.039
 6183TIP3    H118513   3.580   1.227   4.024
 6183TIP3    H218514   3.551   1.373   4.055
 6184TIP3   OH218515   5.141   2.665   4.138
 6184TIP3    H118516   5.087   2.632   4.209
 6184TIP3    H218517   5.110   2.754   4.123
 6185TIP3   OH218518   2.867   6.092   0.572
 6185TIP3    H118519   2.784   6.139   0.575
 6185TIP3    H218520   2.932   6.159   0.548
 6186TIP3   OH218521   0.537   3.363   5.232
 6186TIP3    H118522   0.604   3.308   5.191
 6186TIP3    H218523   0.493   3.405   5.158
 6187TIP3   OH218524   3.384   4.920   1.941
 6187TIP3    H118525   3.378   4.967   1.858
 6187TIP3    H218526   3.296   4.925   1.979
 6188TIP3   OH218527   6.448   5.584   2.595
 6188TIP3    H118528   6.514   5.603   2.661
 6188TIP3    H218529   6.364   5.593   2.641
 6189TIP3   OH218530   0.456   5.794   2.621
 6189TIP3    H118531   0.485   5.731   2.554
 6189TIP3    H218532   0.426   5.740   2.694
 6190TIP3   OH218533   4.161   5.696   0.716
 6190TIP3    H118534   4.228   5.649   0.666
 6190TIP3    H218535   4.106   5.738   0.649
 6191TIP3   OH218536   0.359   0.192   4.980
 6191TIP3    H118537   0.394   0.262   5.035
 6191TIP3    H218538   0.415   0.191   4.902
 6192TIP3   OH218539   7.204   4.869   4.951
 6192TIP3    H118540   7.121   4.916   4.942
 6192TIP3    H218541   7.179   4.780   4.972
 6193TIP3   OH218542   6.334   5.647   2.098
 6193TIP3    H118543   6.371   5.597   2.171
 6193TIP3    H218544   6.273   5.586   2.056
 6194TIP3   OH218545   5.721   6.198   0.043
 6194TIP3    H118546   5.656   6.145  -0.003
 6194TIP3    H218547   5.686   6.208   0.131
 6195TIP3   OH218548   3.400   5.801   3.126
 6195TIP3    H118549   3.315   5.764   3.151
 6195TIP3    H218550   3.460   5.772   3.195
 6196TIP3   OH218551   3.182   5.690   2.702
 6196TIP3    H118552   3.253   5.754   2.700
 6196TIP3    H218553   3.195   5.642   2.784
 6197TIP3   OH218554   1.696   3.688   2.844
 6197TIP3    H118555   1.686   3.776   2.807
 6197TIP3    H218556   1.747   3.701   2.924
 6198TIP3   OH218557   4.375   3.585   1.421
 6198TIP3    H118558   4.411   3.549   1.502
 6198TIP3    H218559   4.416   3.671   1.413
 6199TIP3   OH218560   1.698   5.543   1.059
 6199TIP3    H118561   1.622   5.498   1.021
 6199TIP3    H218562   1.760   5.474   1.079
 6200TIP3   OH218563   4.618   1.326   2.468
 6200TIP3    H118564   4.684   1.390   2.493
 6200TIP3    H218565   4.622   1.323   2.372
 6201TIP3   OH218566   4.143   2.597   2.303
 6201TIP3    H118567   4.086   2.526   2.334
 6201TIP3    H218568   4.226   2.555   2.282
 6202TIP3   OH218569   3.259   6.494   0.532
 6202TIP3    H118570   3.237   6.539   0.451
 6202TIP3    H218571   3.351   6.472   0.523
 6203TIP3   OH218572   3.793   6.044   0.825
 6203TIP3    H118573   3.715   6.018   0.876
 6203TIP3    H218574   3.867   6.017   0.880
 6204TIP3   OH218575   4.218   5.066   4.316
 6204TIP3    H118576   4.186   5.023   4.395
 6204TIP3    H218577   4.279   5.003   4.278
 6205TIP3   OH218578   3.207   3.191   3.572
 6205TIP3    H118579   3.278   3.130   3.588
 6205TIP3    H218580   3.245   3.260   3.518
 6206TIP3   OH218581   1.415   6.144   0.645
 6206TIP3    H118582   1.347   6.076   0.654
 6206TIP3    H218583   1.396   6.206   0.715
 6207TIP3   OH218584   1.998   3.739   3.842
 6207TIP3    H118585   2.072   3.793   3.869
 6207TIP3    H218586   1.976   3.687   3.919
 6208TIP3   OH218587   6.548   5.164   3.970
 6208TIP3    H118588   6.550   5.105   4.045
 6208TIP3    H218589   6.456   5.192   3.964
 6209TIP3   OH218590   7.008   4.252   3.614
 6209TIP3    H118591   6.969   4.337   3.596
 6209TIP3    H218592   6.957   4.216   3.686
 6210TIP3   OH218593   0.096   3.051   3.213
 6210TIP3    H118594   0.048   3.129   3.242
 6210TIP3    H218595   0.055   2.979   3.261
 6211TIP3   OH218596   0.714   4.747   0.420
 6211TIP3    H118597   0.625   4.735   0.388
 6211TIP3    H218598   0.727   4.842   0.421
 6212TIP3   OH218599   3.538   0.172   1.596
 6212TIP3    H118600   3.442   0.166   1.596
 6212TIP3    H218601   3.564   0.135   1.512
 6213TIP3   OH218602   6.078   4.809   5.845
 6213TIP3    H118603   6.125   4.886   5.878
 6213TIP3    H218604   6.011   4.792   5.911
 6214TIP3   OH218605   1.864   4.131   2.726
 6214TIP3    H118606   1.905   4.045   2.717
 6214TIP3    H218607   1.884   4.176   2.644
 6215TIP3   OH218608   3.132   1.702   1.965
 6215TIP3    H118609   3.063   1.648   2.002
 6215TIP3    H218610   3.157   1.658   1.884
 6216TIP3   OH218611   0.685   6.740   2.972
 6216TIP3    H118612   0.612   6.733   2.910
 6216TIP3    H218613   0.762   6.754   2.917
 6217TIP3   OH218614   3.254   1.585   1.750
 6217TIP3    H118615   3.199   1.576   1.672
 6217TIP3    H218616   3.340   1.555   1.721
 6218TIP3   OH218617   3.317   1.395   0.583
 6218TIP3    H118618   3.258   1.415   0.655
 6218TIP3    H218619   3.375   1.327   0.618
 6219TIP3   OH218620   6.613   5.738   5.583
 6219TIP3    H118621   6.590   5.735   5.676
 6219TIP3    H218622   6.546   5.793   5.543
 6220TIP3   OH218623   5.103   6.461   3.229
 6220TIP3    H118624   5.059   6.385   3.268
 6220TIP3    H218625   5.115   6.522   3.302
 6221TIP3   OH218626   7.006   6.084   2.556
 6221TIP3    H118627   7.068   6.149   2.524
 6221TIP3    H218628   6.943   6.134   2.607
 6222TIP3   OH218629   2.749   1.414   4.405
 6222TIP3    H118630   2.836   1.377   4.416
 6222TIP3    H218631   2.717   1.378   4.322
 6223TIP3   OH218632   4.813   5.774   4.231
 6223TIP3    H118633   4.753   5.699   4.236
 6223TIP3    H218634   4.773   5.840   4.288
 6224TIP3   OH218635   0.947   2.020   4.212
 6224TIP3    H118636   0.987   2.096   4.172
 6224TIP3    H218637   0.854   2.041   4.217
 6225TIP3   OH218638   5.833   6.038   1.543
 6225TIP3    H118639   5.909   6.097   1.535
 6225TIP3    H218640   5.757   6.095   1.532
 6226TIP3   OH218641   2.763   1.425   0.640
 6226TIP3    H118642   2.669   1.406   0.641
 6226TIP3    H218643   2.774   1.494   0.704
 6227TIP3   OH218644   1.944   0.136   3.953
 6227TIP3    H118645   1.889   0.136   4.032
 6227TIP3    H218646   2.021   0.085   3.978
 6228TIP3   OH218647   2.872   0.080   3.382
 6228TIP3    H118648   2.866  -0.008   3.345
 6228TIP3    H218649   2.836   0.138   3.314
 6229TIP3   OH218650   0.332   1.291   2.581
 6229TIP3    H118651   0.280   1.365   2.612
 6229TIP3    H218652   0.407   1.288   2.640
 6230TIP3   OH218653   1.037   4.918   0.503
 6230TIP3    H118654   1.012   4.829   0.528
 6230TIP3    H218655   1.027   4.920   0.408
 6231TIP3   OH218656   1.569   4.443   5.197
 6231TIP3    H118657   1.602   4.529   5.172
 6231TIP3    H218658   1.549   4.400   5.113
 6232TIP3   OH218659   4.878   5.296   1.508
 6232TIP3    H118660   4.845   5.232   1.445
 6232TIP3    H218661   4.822   5.286   1.585
 6233TIP3   OH218662   1.678   3.481   4.794
 6233TIP3    H118663   1.615   3.520   4.733
 6233TIP3    H218664   1.694   3.394   4.758
 6234TIP3   OH218665   6.715   0.953   5.869
 6234TIP3    H118666   6.798   0.936   5.915
 6234TIP3    H218667   6.740   0.958   5.777
 6235TIP3   OH218668   1.437   1.656   3.699
 6235TIP3    H118669   1.522   1.684   3.734
 6235TIP3    H218670   1.382   1.645   3.776
 6236TIP3   OH218671   3.540   3.220   3.105
 6236TIP3    H118672   3.539   3.271   3.185
 6236TIP3    H218673   3.509   3.281   3.037
 6237TIP3   OH218674   4.774   1.518   4.832
 6237TIP3    H118675   4.865   1.522   4.803
 6237TIP3    H218676   4.740   1.438   4.791
 6238TIP3   OH218677   3.652   2.741   5.353
 6238TIP3    H118678   3.636   2.733   5.447
 6238TIP3    H218679   3.566   2.760   5.316
 6239TIP3   OH218680   1.374   4.844   2.588
 6239TIP3    H118681   1.435   4.881   2.653
 6239TIP3    H218682   1.298   4.903   2.591
 6240TIP3   OH218683   1.812   1.275   2.076
 6240TIP3    H118684   1.856   1.300   1.994
 6240TIP3    H218685   1.723   1.252   2.049
 6241TIP3   OH218686   2.360   5.291   0.698
 6241TIP3    H118687   2.440   5.343   0.690
 6241TIP3    H218688   2.371   5.242   0.779
 6242TIP3   OH218689   4.816   3.035   3.147
 6242TIP3    H118690   4.862   3.119   3.157
 6242TIP3    H218691   4.785   3.035   3.057
 6243TIP3   OH218692   5.588   3.790   2.107
 6243TIP3    H118693   5.581   3.713   2.051
 6243TIP3    H218694   5.681   3.796   2.127
 6244TIP3   OH218695   1.472   0.289   1.040
 6244TIP3    H118696   1.469   0.384   1.037
 6244TIP3    H218697   1.469   0.267   1.133
 6245TIP3   OH218698   3.308   4.288   4.008
 6245TIP3    H118699   3.263   4.360   4.053
 6245TIP3    H218700   3.237   4.229   3.983
 6246TIP3   OH218701   1.875   1.900   2.513
 6246TIP3    H118702   1.925   1.868   2.588
 6246TIP3    H218703   1.886   1.995   2.516
 6247TIP3   OH218704   1.818   3.397   0.940
 6247TIP3    H118705   1.878   3.438   1.001
 6247TIP3    H218706   1.762   3.341   0.994
 6248TIP3   OH218707   7.093   6.073   4.424
 6248TIP3    H118708   7.033   5.999   4.429
 6248TIP3    H218709   7.107   6.086   4.330
 6249TIP3   OH218710   4.561   3.562   5.782
 6249TIP3    H118711   4.610   3.611   5.848
 6249TIP3    H218712   4.563   3.471   5.812
 6250TIP3   OH218713   0.304   3.461   4.491
 6250TIP3    H118714   0.353   3.499   4.564
 6250TIP3    H218715   0.241   3.403   4.532
 6251TIP3   OH218716   0.293   2.624   2.119
 6251TIP3    H118717   0.225   2.679   2.156
 6251TIP3    H218718   0.370   2.681   2.115
 6252TIP3   OH218719   5.737   5.965   4.792
 6252TIP3    H118720   5.671   6.028   4.763
 6252TIP3    H218721   5.741   5.901   4.721
 6253TIP3   OH218722   2.224   4.877   1.800
 6253TIP3    H118723   2.242   4.834   1.716
 6253TIP3    H218724   2.284   4.951   1.802
 6254TIP3   OH218725   5.399   3.651   5.344
 6254TIP3    H118726   5.336   3.581   5.364
 6254TIP3    H218727   5.469   3.639   5.408
 6255TIP3   OH218728   2.586   0.607   5.705
 6255TIP3    H118729   2.669   0.653   5.713
 6255TIP3    H218730   2.597   0.526   5.754
 6256TIP3   OH218731   2.470   5.208   5.769
 6256TIP3    H118732   2.409   5.281   5.761
 6256TIP3    H218733   2.456   5.157   5.688
 6257TIP3   OH218734   0.849   3.443   5.554
 6257TIP3    H118735   0.762   3.479   5.572
 6257TIP3    H218736   0.841   3.350   5.578
 6258TIP3   OH218737   4.854   6.225   0.844
 6258TIP3    H118738   4.804   6.171   0.783
 6258TIP3    H218739   4.883   6.300   0.791
 6259TIP3   OH218740   2.350   6.224   4.859
 6259TIP3    H118741   2.277   6.200   4.802
 6259TIP3    H218742   2.427   6.221   4.802
 6260TIP3   OH218743   2.270   3.644   3.755
 6260TIP3    H118744   2.248   3.568   3.702
 6260TIP3    H218745   2.362   3.661   3.735
 6261TIP3   OH218746   1.700   0.565   1.277
 6261TIP3    H118747   1.776   0.606   1.237
 6261TIP3    H218748   1.717   0.569   1.371
 6262TIP3   OH218749   3.556   4.569   4.051
 6262TIP3    H118750   3.574   4.478   4.076
 6262TIP3    H218751   3.548   4.566   3.955
 6263TIP3   OH218752   3.838   6.540   1.514
 6263TIP3    H118753   3.855   6.493   1.433
 6263TIP3    H218754   3.768   6.491   1.557
 6264TIP3   OH218755   1.372   0.980   3.794
 6264TIP3    H118756   1.322   1.061   3.787
 6264TIP3    H218757   1.306   0.911   3.782
 6265TIP3   OH218758   0.841   6.303   0.070
 6265TIP3    H118759   0.889   6.249   0.133
 6265TIP3    H218760   0.750   6.275   0.080
 6266TIP3   OH218761   4.963   1.874   5.557
 6266TIP3    H118762   5.037   1.878   5.617
 6266TIP3    H218763   4.902   1.941   5.589
 6267TIP3   OH218764   4.495   6.362   5.388
 6267TIP3    H118765   4.527   6.441   5.346
 6267TIP3    H218766   4.492   6.383   5.481
 6268TIP3   OH218767   0.168   6.117   0.719
 6268TIP3    H118768   0.162   6.149   0.809
 6268TIP3    H218769   0.115   6.037   0.719
 6269TIP3   OH218770   1.109   0.334   3.921
 6269TIP3    H118771   1.040   0.383   3.877
 6269TIP3    H218772   1.185   0.392   3.920
 6270TIP3   OH218773   3.754   0.765   4.573
 6270TIP3    H118774   3.825   0.716   4.614
 6270TIP3    H218775   3.674   0.720   4.600
 6271TIP3   OH218776   2.871   1.932   1.184
 6271TIP3    H118777   2.962   1.911   1.162
 6271TIP3    H218778   2.868   2.028   1.184
 6272TIP3   OH218779   2.665   1.047   5.180
 6272TIP3    H118780   2.738   1.095   5.140
 6272TIP3    H218781   2.612   1.018   5.105
 6273TIP3   OH218782   0.777   0.047   4.805
 6273TIP3    H118783   0.802  -0.021   4.868
 6273TIP3    H218784   0.841   0.117   4.818
 6274TIP3   OH218785   2.103   2.215   2.223
 6274TIP3    H118786   2.037   2.173   2.278
 6274TIP3    H218787   2.109   2.159   2.146
 6275TIP3   OH218788   4.964   2.635   2.881
 6275TIP3    H118789   5.025   2.563   2.895
 6275TIP3    H218790   5.019   2.712   2.868
 6276TIP3   OH218791   1.145   3.316   0.393
 6276TIP3    H118792   1.090   3.394   0.393
 6276TIP3    H218793   1.178   3.310   0.483
 6277TIP3   OH218794   2.595   4.044   1.166
 6277TIP3    H118795   2.611   4.008   1.253
 6277TIP3    H218796   2.570   3.969   1.112
 6278TIP3   OH218797   3.910   1.538   4.095
 6278TIP3    H118798   3.876   1.626   4.113
 6278TIP3    H218799   4.003   1.543   4.116
 6279TIP3   OH218800   1.758   5.756   5.388
 6279TIP3    H118801   1.854   5.761   5.386
 6279TIP3    H218802   1.729   5.847   5.383
 6280TIP3   OH218803   4.428   3.958   2.598
 6280TIP3    H118804   4.397   4.046   2.618
 6280TIP3    H218805   4.499   3.971   2.535
 6281TIP3   OH218806   4.899   0.312   2.552
 6281TIP3    H118807   4.942   0.281   2.472
 6281TIP3    H218808   4.917   0.406   2.555
 6282TIP3   OH218809   2.557   0.024   0.925
 6282TIP3    H118810   2.587   0.115   0.916
 6282TIP3    H218811   2.463   0.028   0.909
 6283TIP3   OH218812   3.063   2.431   1.821
 6283TIP3    H118813   3.097   2.485   1.893
 6283TIP3    H218814   2.984   2.477   1.793
 6284TIP3   OH218815   6.571   2.072   4.953
 6284TIP3    H118816   6.614   2.119   4.882
 6284TIP3    H218817   6.629   2.084   5.028
 6285TIP3   OH218818   5.559   0.451   5.284
 6285TIP3    H118819   5.467   0.437   5.262
 6285TIP3    H218820   5.571   0.546   5.275
 6286TIP3   OH218821   6.120   3.609   1.652
 6286TIP3    H118822   6.082   3.695   1.675
 6286TIP3    H218823   6.206   3.609   1.694
 6287TIP3   OH218824   1.212   2.965   2.199
 6287TIP3    H118825   1.301   2.946   2.167
 6287TIP3    H218826   1.154   2.921   2.137
 6288TIP3   OH218827   1.363   1.357   4.514
 6288TIP3    H118828   1.394   1.309   4.591
 6288TIP3    H218829   1.387   1.448   4.531
 6289TIP3   OH218830   4.731   2.847   0.169
 6289TIP3    H118831   4.637   2.828   0.167
 6289TIP3    H218832   4.737   2.932   0.211
 6290TIP3   OH218833   3.872   2.380   5.141
 6290TIP3    H118834   3.838   2.297   5.174
 6290TIP3    H218835   3.874   2.437   5.217
 6291TIP3   OH218836   4.968   4.515   4.629
 6291TIP3    H118837   5.053   4.503   4.585
 6291TIP3    H218838   4.907   4.462   4.579
 6292TIP3   OH218839   5.723   4.850   3.636
 6292TIP3    H118840   5.675   4.918   3.589
 6292TIP3    H218841   5.814   4.880   3.636
 6293TIP3   OH218842   5.552   6.551   1.574
 6293TIP3    H118843   5.600   6.565   1.655
 6293TIP3    H218844   5.516   6.636   1.551
 6294TIP3   OH218845   2.721   4.987   3.327
 6294TIP3    H118846   2.734   4.899   3.361
 6294TIP3    H218847   2.639   4.981   3.277
 6295TIP3   OH218848   6.380   2.596   5.289
 6295TIP3    H118849   6.336   2.589   5.204
 6295TIP3    H218850   6.445   2.665   5.275
 6296TIP3   OH218851   7.185   6.792   3.563
 6296TIP3    H118852   7.147   6.780   3.476
 6296TIP3    H218853   7.113   6.828   3.616
 6297TIP3   OH218854   5.106   5.094   2.215
 6297TIP3    H118855   5.094   5.024   2.151
 6297TIP3    H218856   5.159   5.159   2.169
 6298TIP3   OH218857   4.628   4.054   2.448
 6298TIP3    H118858   4.714   4.016   2.429
 6298TIP3    H218859   4.647   4.140   2.486
 6299TIP3   OH218860   6.846   1.123   1.772
 6299TIP3    H118861   6.877   1.111   1.861
 6299TIP3    H218862   6.804   1.040   1.749
 6300TIP3   OH218863   3.458   1.234   2.601
 6300TIP3    H118864   3.420   1.267   2.520
 6300TIP3    H218865   3.528   1.174   2.573
 6301TIP3   OH218866   6.141   5.453   2.568
 6301TIP3    H118867   6.151   5.472   2.475
 6301TIP3    H218868   6.107   5.534   2.606
 6302TIP3   OH218869   4.469   1.986   0.350
 6302TIP3    H118870   4.465   1.924   0.423
 6302TIP3    H218871   4.558   1.976   0.314
 6303TIP3   OH218872   2.462   0.262   1.433
 6303TIP3    H118873   2.546   0.229   1.401
 6303TIP3    H218874   2.417   0.292   1.354
 6304TIP3   OH218875   2.817   0.360   4.868
 6304TIP3    H118876   2.783   0.271   4.882
 6304TIP3    H218877   2.799   0.378   4.776
 6305TIP3   OH218878   5.041   4.235   0.684
 6305TIP3    H118879   5.063   4.147   0.716
 6305TIP3    H218880   5.051   4.228   0.589
 6306TIP3   OH218881   1.072   6.239   2.727
 6306TIP3    H118882   1.049   6.147   2.720
 6306TIP3    H218883   1.080   6.254   2.822
 6307TIP3   OH218884   0.792   4.594   3.247
 6307TIP3    H118885   0.808   4.687   3.264
 6307TIP3    H218886   0.864   4.549   3.291
 6308TIP3   OH218887   1.388   6.763   2.024
 6308TIP3    H118888   1.476   6.727   2.037
 6308TIP3    H218889   1.393   6.809   1.941
 6309TIP3   OH218890   3.036   0.339   5.477
 6309TIP3    H118891   3.022   0.400   5.405
 6309TIP3    H218892   3.131   0.330   5.483
 6310TIP3   OH218893   3.704   1.979   0.232
 6310TIP3    H118894   3.679   2.029   0.310
 6310TIP3    H218895   3.795   2.005   0.215
 6311TIP3   OH218896   6.028   4.375   3.749
 6311TIP3    H118897   6.106   4.398   3.799
 6311TIP3    H218898   6.010   4.284   3.773
 6312TIP3   OH218899   6.619   5.813   3.206
 6312TIP3    H118900   6.559   5.784   3.274
 6312TIP3    H218901   6.634   5.905   3.226
 6313TIP3   OH218902   2.802   2.310   4.068
 6313TIP3    H118903   2.841   2.225   4.050
 6313TIP3    H218904   2.874   2.363   4.102
 6314TIP3   OH218905   0.245   1.151   4.810
 6314TIP3    H118906   0.303   1.075   4.807
 6314TIP3    H218907   0.291   1.216   4.862
 6315TIP3   OH218908   5.875  -0.051   2.744
 6315TIP3    H118909   5.948   0.010   2.734
 6315TIP3    H218910   5.797   0.005   2.739
 6316TIP3   OH218911   4.408   3.292   2.948
 6316TIP3    H118912   4.425   3.374   2.902
 6316TIP3    H218913   4.488   3.275   2.999
 6317TIP3   OH218914   1.119   1.990   1.988
 6317TIP3    H118915   1.049   1.924   1.988
 6317TIP3    H218916   1.090   2.055   2.052
 6318TIP3   OH218917   0.859   4.458   2.868
 6318TIP3    H118918   0.855   4.391   2.800
 6318TIP3    H218919   0.884   4.412   2.947
 6319TIP3   OH218920   7.030   4.202   3.273
 6319TIP3    H118921   6.960   4.236   3.217
 6319TIP3    H218922   7.111   4.217   3.223
 6320TIP3   OH218923   4.378   5.812   3.148
 6320TIP3    H118924   4.315   5.764   3.094
 6320TIP3    H218925   4.414   5.746   3.208
 6321TIP3   OH218926   5.035   3.662   3.333
 6321TIP3    H118927   5.100   3.732   3.336
 6321TIP3    H218928   4.953   3.703   3.359
 6322TIP3   OH218929   2.737   1.826   5.053
 6322TIP3    H118930   2.771   1.912   5.027
 6322TIP3    H218931   2.655   1.817   5.004
 6323TIP3   OH218932   1.382   3.268   1.216
 6323TIP3    H118933   1.346   3.226   1.294
 6323TIP3    H218934   1.427   3.198   1.169
 6324TIP3   OH218935   5.423   5.020   1.089
 6324TIP3    H118936   5.511   4.987   1.108
 6324TIP3    H218937   5.383   5.032   1.175
 6325TIP3   OH218938   3.699   1.116   2.503
 6325TIP3    H118939   3.677   1.059   2.429
 6325TIP3    H218940   3.766   1.175   2.469
 6326TIP3   OH218941   2.004   1.234   1.578
 6326TIP3    H118942   1.980   1.244   1.486
 6326TIP3    H218943   1.921   1.245   1.625
 6327TIP3   OH218944   7.000   5.204   4.501
 6327TIP3    H118945   7.052   5.182   4.578
 6327TIP3    H218946   6.912   5.222   4.535
 6328TIP3   OH218947   6.162   3.132   0.012
 6328TIP3    H118948   6.147   3.226   0.007
 6328TIP3    H218949   6.256   3.124   0.029
 6329TIP3   OH218950   1.119   4.363   4.030
 6329TIP3    H118951   1.151   4.413   4.105
 6329TIP3    H218952   1.196   4.317   3.998
 6330TIP3   OH218953   6.659   4.538   4.483
 6330TIP3    H118954   6.627   4.598   4.550
 6330TIP3    H218955   6.717   4.478   4.529
 6331TIP3   OH218956   6.334   0.400   1.702
 6331TIP3    H118957   6.420   0.398   1.660
 6331TIP3    H218958   6.284   0.333   1.657
 6332TIP3   OH218959   2.222   4.094   1.293
 6332TIP3    H118960   2.183   4.043   1.222
 6332TIP3    H218961   2.150   4.147   1.327
 6333TIP3   OH218962   1.503   0.313   3.675
 6333TIP3    H118963   1.466   0.397   3.705
 6333TIP3    H218964   1.529   0.330   3.584
 6334TIP3   OH218965   5.959   2.008   3.075
 6334TIP3    H118966   5.892   1.955   3.030
 6334TIP3    H218967   6.020   2.033   3.006
 6335TIP3   OH218968   4.017   5.196   5.788
 6335TIP3    H118969   3.968   5.278   5.782
 6335TIP3    H218970   3.953   5.132   5.817
 6336TIP3   OH218971   0.832   1.486   0.145
 6336TIP3    H118972   0.902   1.538   0.186
 6336TIP3    H218973   0.836   1.509   0.053
 6337TIP3   OH218974   3.054   4.745   0.496
 6337TIP3    H118975   3.043   4.822   0.440
 6337TIP3    H218976   3.145   4.749   0.524
 6338TIP3   OH218977   4.864   2.158   0.959
 6338TIP3    H118978   4.948   2.204   0.965
 6338TIP3    H218979   4.849   2.149   0.865
 6339TIP3   OH218980   0.647   0.592   0.173
 6339TIP3    H118981   0.614   0.511   0.213
 6339TIP3    H218982   0.577   0.655   0.186
 6340TIP3   OH218983   2.419   3.306   1.543
 6340TIP3    H118984   2.385   3.239   1.601
 6340TIP3    H218985   2.393   3.277   1.455
 6341TIP3   OH218986   4.904   1.159   1.390
 6341TIP3    H118987   4.996   1.185   1.390
 6341TIP3    H218988   4.859   1.229   1.437
 6342TIP3   OH218989   4.683   2.988   4.633
 6342TIP3    H118990   4.630   3.044   4.577
 6342TIP3    H218991   4.662   3.018   4.722
 6343TIP3   OH218992   7.032   3.798   3.614
 6343TIP3    H118993   6.954   3.744   3.627
 6343TIP3    H218994   7.007   3.861   3.546
 6344TIP3   OH218995   6.083   3.949   4.307
 6344TIP3    H118996   6.022   3.975   4.239
 6344TIP3    H218997   6.041   3.975   4.389
 6345TIP3   OH218998   5.313   2.488   1.485
 6345TIP3    H118999   5.371   2.556   1.452
 6345TIP3    H219000   5.246   2.479   1.417
 6346TIP3   OH219001   3.859   2.920   2.527
 6346TIP3    H119002   3.816   2.882   2.450
 6346TIP3    H219003   3.796   2.909   2.598
 6347TIP3   OH219004   5.511   1.990   1.873
 6347TIP3    H119005   5.569   2.057   1.910
 6347TIP3    H219006   5.427   2.004   1.917
 6348TIP3   OH219007   3.834   0.355   0.323
 6348TIP3    H119008   3.891   0.431   0.340
 6348TIP3    H219009   3.860   0.291   0.390
 6349TIP3   OH219010   1.852   6.090   3.265
 6349TIP3    H119011   1.864   6.029   3.192
 6349TIP3    H219012   1.866   6.037   3.343
 6350TIP3   OH219013   5.489   2.119   2.910
 6350TIP3    H119014   5.528   2.120   2.822
 6350TIP3    H219015   5.404   2.161   2.898
 6351TIP3   OH219016   3.355   0.224   1.856
 6351TIP3    H119017   3.294   0.229   1.782
 6351TIP3    H219018   3.379   0.132   1.861
 6352TIP3   OH219019   4.882   0.917   0.626
 6352TIP3    H119020   4.947   0.855   0.657
 6352TIP3    H219021   4.890   0.914   0.530
 6353TIP3   OH219022   2.285   3.724   2.732
 6353TIP3    H119023   2.279   3.692   2.822
 6353TIP3    H219024   2.197   3.711   2.696
 6354TIP3   OH219025   4.716   1.926   0.272
 6354TIP3    H119026   4.782   1.910   0.204
 6354TIP3    H219027   4.767   1.938   0.352
 6355TIP3   OH219028   6.398   2.732   1.314
 6355TIP3    H119029   6.436   2.647   1.293
 6355TIP3    H219030   6.390   2.731   1.410
 6356TIP3   OH219031   6.965   2.659   4.273
 6356TIP3    H119032   7.041   2.613   4.310
 6356TIP3    H219033   6.999   2.744   4.245
 6357TIP3   OH219034   1.255   6.317   1.205
 6357TIP3    H119035   1.329   6.257   1.212
 6357TIP3    H219036   1.294   6.402   1.184
 6358TIP3   OH219037   4.798   5.519   2.611
 6358TIP3    H119038   4.883   5.477   2.604
 6358TIP3    H219039   4.750   5.467   2.676
 6359TIP3   OH219040   5.251   2.169   1.356
 6359TIP3    H119041   5.293   2.161   1.442
 6359TIP3    H219042   5.316   2.213   1.301
 6360TIP3   OH219043   5.088   1.339   2.045
 6360TIP3    H119044   5.183   1.331   2.033
 6360TIP3    H219045   5.066   1.423   2.003
 6361TIP3   OH219046   3.096   4.122   3.934
 6361TIP3    H119047   3.113   4.173   3.855
 6361TIP3    H219048   3.082   4.032   3.902
 6362TIP3   OH219049   5.050   6.620   4.795
 6362TIP3    H119050   5.141   6.595   4.811
 6362TIP3    H219051   5.006   6.538   4.774
 6363TIP3   OH219052   3.319   0.314   5.582
 6363TIP3    H119053   3.378   0.253   5.627
 6363TIP3    H219054   3.279   0.365   5.653
 6364TIP3   OH219055   0.929   3.374   2.372
 6364TIP3    H119056   0.930   3.321   2.291
 6364TIP3    H219057   0.983   3.324   2.433
 6365TIP3   OH219058   6.172   2.942   3.538
 6365TIP3    H119059   6.162   2.929   3.632
 6365TIP3    H219060   6.136   3.029   3.521
 6366TIP3   OH219061   1.534   5.002   4.999
 6366TIP3    H119062   1.508   4.914   4.973
 6366TIP3    H219063   1.615   5.018   4.950
 6367TIP3   OH219064   6.476   0.217   4.240
 6367TIP3    H119065   6.396   0.188   4.284
 6367TIP3    H219066   6.494   0.303   4.277
 6368TIP3   OH219067   5.377   5.942   4.735
 6368TIP3    H119068   5.330   6.008   4.684
 6368TIP3    H219069   5.439   5.903   4.673
 6369TIP3   OH219070   1.128   2.533   3.517
 6369TIP3    H119071   1.083   2.455   3.552
 6369TIP3    H219072   1.068   2.568   3.451
 6370TIP3   OH219073   3.434   0.047   2.413
 6370TIP3    H119074   3.503   0.028   2.349
 6370TIP3    H219075   3.463   0.001   2.492
 6371TIP3   OH219076   2.554   5.477   0.795
 6371TIP3    H119077   2.501   5.501   0.871
 6371TIP3    H219078   2.628   5.538   0.797
 6372TIP3   OH219079   0.052   3.092   4.001
 6372TIP3    H119080   0.024   3.055   3.917
 6372TIP3    H219081   0.122   3.034   4.031
 6373TIP3   OH219082   2.692   6.629   1.326
 6373TIP3    H119083   2.634   6.693   1.367
 6373TIP3    H219084   2.704   6.661   1.236
 6374TIP3   OH219085   2.250   1.892   2.271
 6374TIP3    H119086   2.165   1.934   2.282
 6374TIP3    H219087   2.259   1.880   2.177
 6375TIP3   OH219088   1.740   3.823   1.728
 6375TIP3    H119089   1.656   3.802   1.768
 6375TIP3    H219090   1.798   3.753   1.758
 6376TIP3   OH219091   1.460   6.174   1.043
 6376TIP3    H119092   1.554   6.163   1.059
 6376TIP3    H219093   1.420   6.096   1.080
 6377TIP3   OH219094   4.580   1.001   5.493
 6377TIP3    H119095   4.504   1.058   5.478
 6377TIP3    H219096   4.548   0.914   5.469
 6378TIP3   OH219097   5.416   2.368   2.993
 6378TIP3    H119098   5.465   2.290   3.022
 6378TIP3    H219099   5.345   2.333   2.939
 6379TIP3   OH219100   3.052   6.022   2.704
 6379TIP3    H119101   3.067   5.960   2.776
 6379TIP3    H219102   3.062   6.108   2.744
 6380TIP3   OH219103   5.246   1.381   4.478
 6380TIP3    H119104   5.256   1.313   4.545
 6380TIP3    H219105   5.186   1.342   4.414
 6381TIP3   OH219106   3.939   5.322   2.925
 6381TIP3    H119107   3.853   5.281   2.920
 6381TIP3    H219108   4.000   5.250   2.938
 6382TIP3   OH219109   0.740   4.003   4.240
 6382TIP3    H119110   0.685   4.069   4.198
 6382TIP3    H219111   0.830   4.031   4.220
 6383TIP3   OH219112   4.402   3.194   2.260
 6383TIP3    H119113   4.485   3.240   2.273
 6383TIP3    H219114   4.359   3.241   2.188
 6384TIP3   OH219115   1.944   1.664   0.222
 6384TIP3    H119116   1.943   1.727   0.294
 6384TIP3    H219117   2.034   1.630   0.222
 6385TIP3   OH219118   4.222   0.912   4.314
 6385TIP3    H119119   4.213   0.992   4.262
 6385TIP3    H219120   4.228   0.842   4.250
 6386TIP3   OH219121   0.945   2.342   3.292
 6386TIP3    H119122   0.994   2.265   3.321
 6386TIP3    H219123   0.897   2.370   3.369
 6387TIP3   OH219124   4.745   0.252   1.067
 6387TIP3    H119125   4.711   0.172   1.107
 6387TIP3    H219126   4.672   0.286   1.015
 6388TIP3   OH219127   5.994   0.273   4.247
 6388TIP3    H119128   6.040   0.239   4.170
 6388TIP3    H219129   5.927   0.207   4.267
 6389TIP3   OH219130   3.728   4.412   4.561
 6389TIP3    H119131   3.697   4.380   4.645
 6389TIP3    H219132   3.780   4.489   4.582
 6390TIP3   OH219133   0.183   3.297   3.410
 6390TIP3    H119134   0.182   3.371   3.470
 6390TIP3    H219135   0.155   3.222   3.463
 6391TIP3   OH219136   1.399   2.855   3.983
 6391TIP3    H119137   1.321   2.909   3.975
 6391TIP3    H219138   1.373   2.781   4.038
 6392TIP3   OH219139   1.249   3.692   1.348
 6392TIP3    H119140   1.168   3.707   1.397
 6392TIP3    H219141   1.222   3.698   1.256
 6393TIP3   OH219142   4.698   5.250   1.716
 6393TIP3    H119143   4.704   5.279   1.807
 6393TIP3    H219144   4.628   5.185   1.716
 6394TIP3   OH219145   3.876   4.949   4.757
 6394TIP3    H119146   3.836   4.966   4.672
 6394TIP3    H219147   3.841   4.864   4.784
 6395TIP3   OH219148   0.204   5.806   3.844
 6395TIP3    H119149   0.274   5.742   3.829
 6395TIP3    H219150   0.132   5.755   3.882
 6396TIP3   OH219151   2.281   1.853   2.755
 6396TIP3    H119152   2.303   1.880   2.665
 6396TIP3    H219153   2.356   1.800   2.782
 6397TIP3   OH219154   4.245   4.727   5.225
 6397TIP3    H119155   4.226   4.815   5.255
 6397TIP3    H219156   4.262   4.736   5.132
 6398TIP3   OH219157   7.135   0.610   2.916
 6398TIP3    H119158   7.100   0.643   2.833
 6398TIP3    H219159   7.196   0.677   2.945
 6399TIP3   OH219160   0.744   1.166   0.770
 6399TIP3    H119161   0.768   1.122   0.852
 6399TIP3    H219162   0.787   1.115   0.702
 6400TIP3   OH219163   2.148   0.700   5.197
 6400TIP3    H119164   2.096   0.624   5.222
 6400TIP3    H219165   2.152   0.697   5.101
 6401TIP3   OH219166   6.446   3.364   4.320
 6401TIP3    H119167   6.520   3.403   4.274
 6401TIP3    H219168   6.425   3.428   4.388
 6402TIP3   OH219169   6.686   4.697   2.860
 6402TIP3    H119170   6.696   4.631   2.791
 6402TIP3    H219171   6.774   4.710   2.894
 6403TIP3   OH219172   1.242   4.278   5.609
 6403TIP3    H119173   1.250   4.372   5.592
 6403TIP3    H219174   1.221   4.239   5.524
 6404TIP3   OH219175   3.053   5.032   5.741
 6404TIP3    H119176   3.124   4.969   5.732
 6404TIP3    H219177   3.087   5.113   5.703
 6405TIP3   OH219178   6.450   3.739   4.580
 6405TIP3    H119179   6.397   3.717   4.656
 6405TIP3    H219180   6.417   3.683   4.510
 6406TIP3   OH219181   4.549   1.753   2.499
 6406TIP3    H119182   4.641   1.733   2.480
 6406TIP3    H219183   4.550   1.782   2.590
 6407TIP3   OH219184   3.349   6.100   1.682
 6407TIP3    H119185   3.350   6.030   1.616
 6407TIP3    H219186   3.423   6.079   1.739
 6408TIP3   OH219187   2.370   0.326   3.987
 6408TIP3    H119188   2.439   0.380   3.950
 6408TIP3    H219189   2.415   0.266   4.046
 6409TIP3   OH219190   5.121   4.152   5.429
 6409TIP3    H119191   5.161   4.238   5.419
 6409TIP3    H219192   5.061   4.145   5.354
 6410TIP3   OH219193   3.366   0.806   3.916
 6410TIP3    H119194   3.289   0.848   3.879
 6410TIP3    H219195   3.335   0.768   3.999
 6411TIP3   OH219196   0.764   6.084   2.432
 6411TIP3    H119197   0.826   6.011   2.438
 6411TIP3    H219198   0.693   6.051   2.378
 6412TIP3   OH219199   0.134   0.404   5.444
 6412TIP3    H119200   0.189   0.332   5.412
 6412TIP3    H219201   0.116   0.382   5.535
 6413TIP3   OH219202   1.310   0.342   1.923
 6413TIP3    H119203   1.304   0.403   1.850
 6413TIP3    H219204   1.370   0.274   1.893
 6414TIP3   OH219205   3.791   1.425   1.523
 6414TIP3    H119206   3.819   1.360   1.588
 6414TIP3    H219207   3.706   1.454   1.555
 6415TIP3   OH219208   0.106   5.936   3.031
 6415TIP3    H119209   0.018   5.899   3.045
 6415TIP3    H219210   0.090   6.026   3.004
 6416TIP3   OH219211   4.540   4.917   2.052
 6416TIP3    H119212   4.494   5.001   2.048
 6416TIP3    H219213   4.584   4.910   1.967
 6417TIP3   OH219214   3.573   0.177   4.079
 6417TIP3    H119215   3.578   0.227   4.160
 6417TIP3    H219216   3.480   0.181   4.054
 6418TIP3   OH219217   2.806   1.338   2.422
 6418TIP3    H119218   2.750   1.414   2.404
 6418TIP3    H219219   2.746   1.272   2.457
 6419TIP3   OH219220   6.898   0.491   3.260
 6419TIP3    H119221   6.889   0.515   3.167
 6419TIP3    H219222   6.896   0.574   3.307
 6420TIP3   OH219223   1.288   0.558   0.108
 6420TIP3    H119224   1.260   0.527   0.022
 6420TIP3    H219225   1.222   0.524   0.169
 6421TIP3   OH219226   1.344   0.237   5.489
 6421TIP3    H119227   1.359   0.144   5.472
 6421TIP3    H219228   1.250   0.245   5.500
 6422TIP3   OH219229   1.079   4.078   0.502
 6422TIP3    H119230   1.097   4.140   0.432
 6422TIP3    H219231   1.094   4.128   0.583
 6423TIP3   OH219232   0.703   5.123   3.863
 6423TIP3    H119233   0.699   5.187   3.934
 6423TIP3    H219234   0.716   5.176   3.784
 6424TIP3   OH219235   1.752   0.771   3.486
 6424TIP3    H119236   1.726   0.767   3.578
 6424TIP3    H219237   1.719   0.856   3.456
 6425TIP3   OH219238   6.201   4.402   0.057
 6425TIP3    H119239   6.153   4.469   0.106
 6425TIP3    H219240   6.149   4.390  -0.023
 6426TIP3   OH219241   2.899   0.647   3.794
 6426TIP3    H119242   2.889   0.574   3.733
 6426TIP3    H219243   2.860   0.721   3.749
 6427TIP3   OH219244   3.224   0.577   0.088
 6427TIP3    H119245   3.251   0.497   0.133
 6427TIP3    H219246   3.165   0.621   0.149
 6428TIP3   OH219247   0.582   5.242   5.847
 6428TIP3    H119248   0.593   5.254   5.941
 6428TIP3    H219249   0.544   5.325   5.817
 6429TIP3   OH219250   6.277   5.032   1.875
 6429TIP3    H119251   6.220   5.047   1.950
 6429TIP3    H219252   6.365   5.028   1.911
 6430TIP3   OH219253   5.817   2.246   0.497
 6430TIP3    H119254   5.797   2.248   0.403
 6430TIP3    H219255   5.741   2.287   0.539
 6431TIP3   OH219256   4.653   6.190   5.724
 6431TIP3    H119257   4.624   6.116   5.777
 6431TIP3    H219258   4.657   6.264   5.786
 6432TIP3   OH219259   5.495   5.626   5.887
 6432TIP3    H119260   5.406   5.628   5.922
 6432TIP3    H219261   5.485   5.649   5.795
 6433TIP3   OH219262   4.399   6.011   4.659
 6433TIP3    H119263   4.312   6.033   4.693
 6433TIP3    H219264   4.382   5.953   4.585
 6434TIP3   OH219265   0.367   2.478   1.326
 6434TIP3    H119266   0.381   2.570   1.303
 6434TIP3    H219267   0.449   2.435   1.301
 6435TIP3   OH219268   3.331   4.126   0.653
 6435TIP3    H119269   3.262   4.191   0.669
 6435TIP3    H219270   3.314   4.057   0.717
 6436TIP3   OH219271   0.883   1.404   5.782
 6436TIP3    H119272   0.885   1.318   5.822
 6436TIP3    H219273   0.965   1.410   5.733
 6437TIP3   OH219274   4.427   3.006   4.812
 6437TIP3    H119275   4.455   2.937   4.752
 6437TIP3    H219276   4.416   3.083   4.757
 6438TIP3   OH219277   2.762   0.333   4.095
 6438TIP3    H119278   2.729   0.260   4.042
 6438TIP3    H219279   2.683   0.373   4.132
 6439TIP3   OH219280   4.380   1.304   4.408
 6439TIP3    H119281   4.445   1.278   4.342
 6439TIP3    H219282   4.348   1.221   4.443
 6440TIP3   OH219283   0.251   0.635   2.468
 6440TIP3    H119284   0.297   0.718   2.479
 6440TIP3    H219285   0.320   0.571   2.454
 6441TIP3   OH219286   2.869   2.814   3.524
 6441TIP3    H119287   2.848   2.892   3.576
 6441TIP3    H219288   2.941   2.772   3.572
 6442TIP3   OH219289   4.700   4.942   1.510
 6442TIP3    H119290   4.610   4.965   1.531
 6442TIP3    H219291   4.729   4.887   1.584
 6443TIP3   OH219292   3.807   0.948   3.354
 6443TIP3    H119293   3.800   0.978   3.445
 6443TIP3    H219294   3.899   0.960   3.332
 6444TIP3   OH219295   3.155   1.241   0.193
 6444TIP3    H119296   3.201   1.324   0.205
 6444TIP3    H219297   3.065   1.266   0.176
 6445TIP3   OH219298   4.318   4.215   2.639
 6445TIP3    H119299   4.380   4.258   2.579
 6445TIP3    H219300   4.233   4.253   2.617
 6446TIP3   OH219301   0.856   0.522   0.558
 6446TIP3    H119302   0.793   0.573   0.507
 6446TIP3    H219303   0.827   0.532   0.649
 6447TIP3   OH219304   6.223   4.752   3.497
 6447TIP3    H119305   6.310   4.714   3.496
 6447TIP3    H219306   6.164   4.678   3.512
 6448TIP3   OH219307   6.420   2.588   4.804
 6448TIP3    H119308   6.462   2.502   4.804
 6448TIP3    H219309   6.418   2.614   4.712
 6449TIP3   OH219310   1.791   2.093   4.747
 6449TIP3    H119311   1.868   2.040   4.729
 6449TIP3    H219312   1.824   2.168   4.796
 6450TIP3   OH219313   4.261   4.420   3.834
 6450TIP3    H119314   4.243   4.458   3.747
 6450TIP3    H219315   4.318   4.346   3.817
 6451TIP3   OH219316   5.823   2.439   5.328
 6451TIP3    H119317   5.868   2.356   5.345
 6451TIP3    H219318   5.840   2.458   5.236
 6452TIP3   OH219319   3.593   4.904   4.948
 6452TIP3    H119320   3.617   4.902   4.855
 6452TIP3    H219321   3.677   4.913   4.993
 6453TIP3   OH219322   4.130   4.519   5.336
 6453TIP3    H119323   4.170   4.594   5.293
 6453TIP3    H219324   4.077   4.557   5.406
 6454TIP3   OH219325   1.244   4.909   0.022
 6454TIP3    H119326   1.326   4.940   0.060
 6454TIP3    H219327   1.195   4.872   0.096
 6455TIP3   OH219328   3.815   4.771   1.404
 6455TIP3    H119329   3.780   4.698   1.455
 6455TIP3    H219330   3.880   4.811   1.461
 6456TIP3   OH219331   6.083   5.027   4.733
 6456TIP3    H119332   5.991   5.049   4.745
 6456TIP3    H219333   6.130   5.091   4.787
 6457TIP3   OH219334   4.005   3.091   0.960
 6457TIP3    H119335   3.963   3.013   0.924
 6457TIP3    H219336   3.934   3.153   0.974
 6458TIP3   OH219337   3.569   0.696   5.366
 6458TIP3    H119338   3.641   0.633   5.370
 6458TIP3    H219339   3.497   0.653   5.412
 6459TIP3   OH219340   4.644   2.550   1.320
 6459TIP3    H119341   4.555   2.539   1.287
 6459TIP3    H219342   4.663   2.469   1.367
 6460TIP3   OH219343   4.943   3.351   3.993
 6460TIP3    H119344   4.867   3.347   3.934
 6460TIP3    H219345   4.917   3.412   4.061
 6461TIP3   OH219346   5.756   0.334   3.012
 6461TIP3    H119347   5.796   0.260   3.058
 6461TIP3    H219348   5.725   0.392   3.082
 6462TIP3   OH219349   1.577   4.498   0.412
 6462TIP3    H119350   1.643   4.440   0.374
 6462TIP3    H219351   1.612   4.518   0.500
 6463TIP3   OH219352   0.051   3.597   1.693
 6463TIP3    H119353   0.077   3.526   1.752
 6463TIP3    H219354   0.069   3.677   1.742
 6464TIP3   OH219355   6.276   6.068   5.735
 6464TIP3    H119356   6.305   6.136   5.795
 6464TIP3    H219357   6.254   5.994   5.791
 6465TIP3   OH219358   0.394   6.520   1.956
 6465TIP3    H119359   0.434   6.465   1.888
 6465TIP3    H219360   0.460   6.523   2.025
 6466TIP3   OH219361   6.859   0.107   2.463
 6466TIP3    H119362   6.830   0.193   2.492
 6466TIP3    H219363   6.954   0.113   2.461
 6467TIP3   OH219364   3.388   5.495   4.562
 6467TIP3    H119365   3.336   5.569   4.529
 6467TIP3    H219366   3.453   5.479   4.494
 6468TIP3   OH219367   3.847   0.238   0.083
 6468TIP3    H119368   3.778   0.174   0.100
 6468TIP3    H219369   3.849   0.293   0.162
 6469TIP3   OH219370   5.615   0.364   0.105
 6469TIP3    H119371   5.671   0.301   0.058
 6469TIP3    H219372   5.615   0.333   0.195
 6470TIP3   OH219373   1.762   0.137   4.672
 6470TIP3    H119374   1.684   0.082   4.661
 6470TIP3    H219375   1.727   0.225   4.687
 6471TIP3   OH219376   1.911   6.795   2.304
 6471TIP3    H119377   1.926   6.888   2.322
 6471TIP3    H219378   1.999   6.756   2.304
 6472TIP3   OH219379   4.094   6.059   1.404
 6472TIP3    H119380   4.085   6.007   1.324
 6472TIP3    H219381   4.130   6.143   1.374
 6473TIP3   OH219382   0.476   5.157   1.504
 6473TIP3    H119383   0.493   5.138   1.596
 6473TIP3    H219384   0.522   5.088   1.456
 6474TIP3   OH219385   0.546   5.543   5.223
 6474TIP3    H119386   0.575   5.603   5.292
 6474TIP3    H219387   0.454   5.524   5.245
 6475TIP3   OH219388   1.383   4.732   5.174
 6475TIP3    H119389   1.453   4.693   5.122
 6475TIP3    H219390   1.427   4.770   5.250
 6476TIP3   OH219391   6.278   1.736   0.854
 6476TIP3    H119392   6.265   1.668   0.788
 6476TIP3    H219393   6.226   1.810   0.822
 6477TIP3   OH219394   7.171   4.915   3.559
 6477TIP3    H119395   7.180   4.903   3.654
 6477TIP3    H219396   7.201   5.005   3.544
 6478TIP3   OH219397   5.942   2.825   5.827
 6478TIP3    H119398   5.941   2.785   5.913
 6478TIP3    H219399   5.926   2.918   5.843
 6479TIP3   OH219400   2.220   1.228   5.724
 6479TIP3    H119401   2.221   1.280   5.805
 6479TIP3    H219402   2.244   1.140   5.753
 6480TIP3   OH219403   6.327   2.945   4.681
 6480TIP3    H119404   6.294   3.031   4.706
 6480TIP3    H219405   6.411   2.937   4.726
 6481TIP3   OH219406   2.297   0.215   2.444
 6481TIP3    H119407   2.355   0.289   2.425
 6481TIP3    H219408   2.219   0.232   2.393
 6482TIP3   OH219409   3.464   4.473   5.465
 6482TIP3    H119410   3.519   4.425   5.528
 6482TIP3    H219411   3.463   4.563   5.498
 6483TIP3   OH219412   2.510   1.405   0.547
 6483TIP3    H119413   2.430   1.455   0.567
 6483TIP3    H219414   2.486   1.351   0.472
 6484TIP3   OH219415   5.664   1.597   3.274
 6484TIP3    H119416   5.602   1.639   3.335
 6484TIP3    H219417   5.749   1.605   3.318
 6485TIP3   OH219418   2.899   6.115   1.413
 6485TIP3    H119419   2.903   6.105   1.318
 6485TIP3    H219420   2.839   6.046   1.442
 6486TIP3   OH219421   5.262   2.597   2.171
 6486TIP3    H119422   5.183   2.582   2.223
 6486TIP3    H219423   5.319   2.523   2.191
 6487TIP3   OH219424   3.324   0.156   3.971
 6487TIP3    H119425   3.249   0.102   3.948
 6487TIP3    H219426   3.338   0.211   3.894
 6488TIP3   OH219427   1.877   2.961   4.301
 6488TIP3    H119428   1.929   3.035   4.331
 6488TIP3    H219429   1.823   2.997   4.230
 6489TIP3   OH219430   0.443   1.466   1.634
 6489TIP3    H119431   0.536   1.479   1.616
 6489TIP3    H219432   0.416   1.397   1.573
 6490TIP3   OH219433   3.360   4.759   1.590
 6490TIP3    H119434   3.272   4.788   1.616
 6490TIP3    H219435   3.348   4.668   1.563
 6491TIP3   OH219436   5.364   3.948   0.589
 6491TIP3    H119437   5.276   3.950   0.625
 6491TIP3    H219438   5.383   4.040   0.567
 6492TIP3   OH219439   6.001   1.033   2.495
 6492TIP3    H119440   6.000   0.979   2.416
 6492TIP3    H219441   6.030   0.975   2.565
 6493TIP3   OH219442   4.528   4.834   4.692
 6493TIP3    H119443   4.524   4.906   4.629
 6493TIP3    H219444   4.459   4.774   4.665
 6494TIP3   OH219445   1.173   6.132   5.551
 6494TIP3    H119446   1.211   6.217   5.530
 6494TIP3    H219447   1.106   6.151   5.617
 6495TIP3   OH219448   6.399   0.723   3.504
 6495TIP3    H119449   6.306   0.746   3.500
 6495TIP3    H219450   6.436   0.785   3.567
 6496TIP3   OH219451   5.057   5.516   4.843
 6496TIP3    H119452   5.093   5.601   4.817
 6496TIP3    H219453   5.061   5.462   4.764
 6497TIP3   OH219454   3.379   3.431   4.053
 6497TIP3    H119455   3.442   3.438   3.981
 6497TIP3    H219456   3.293   3.429   4.009
 6498TIP3   OH219457   7.138   2.225   4.116
 6498TIP3    H119458   7.108   2.265   4.034
 6498TIP3    H219459   7.233   2.235   4.115
 6499TIP3   OH219460   1.139   1.353   5.351
 6499TIP3    H119461   1.205   1.420   5.336
 6499TIP3    H219462   1.056   1.402   5.357
 6500TIP3   OH219463   5.265   4.445   3.350
 6500TIP3    H119464   5.206   4.423   3.278
 6500TIP3    H219465   5.233   4.393   3.424
 6501TIP3   OH219466   2.063   3.924   2.873
 6501TIP3    H119467   1.971   3.897   2.876
 6501TIP3    H219468   2.086   3.939   2.964
 6502TIP3   OH219469   1.695   5.455   0.416
 6502TIP3    H119470   1.767   5.464   0.353
 6502TIP3    H219471   1.624   5.507   0.379
 6503TIP3   OH219472   2.365   4.928   5.137
 6503TIP3    H119473   2.309   4.985   5.084
 6503TIP3    H219474   2.426   4.890   5.074
 6504TIP3   OH219475   5.470   3.356   5.647
 6504TIP3    H119476   5.490   3.264   5.635
 6504TIP3    H219477   5.377   3.364   5.626
 6505TIP3   OH219478   5.270   4.724   4.107
 6505TIP3    H119479   5.246   4.717   4.014
 6505TIP3    H219480   5.365   4.735   4.107
 6506TIP3   OH219481   2.730   2.706   1.575
 6506TIP3    H119482   2.773   2.777   1.529
 6506TIP3    H219483   2.784   2.629   1.557
 6507TIP3   OH219484   6.527   0.994   0.846
 6507TIP3    H119485   6.547   1.080   0.883
 6507TIP3    H219486   6.431   0.989   0.847
 6508TIP3   OH219487   4.128   5.293   3.647
 6508TIP3    H119488   4.078   5.359   3.696
 6508TIP3    H219489   4.196   5.265   3.708
 6509TIP3   OH219490   1.775   6.123   4.023
 6509TIP3    H119491   1.738   6.073   4.096
 6509TIP3    H219492   1.761   6.067   3.946
 6510TIP3   OH219493   3.652   1.257   0.506
 6510TIP3    H119494   3.595   1.267   0.429
 6510TIP3    H219495   3.697   1.341   0.514
 6511TIP3   OH219496   6.732   4.478   2.681
 6511TIP3    H119497   6.702   4.397   2.721
 6511TIP3    H219498   6.815   4.455   2.639
 6512TIP3   OH219499   5.770   5.714   4.926
 6512TIP3    H119500   5.761   5.806   4.902
 6512TIP3    H219501   5.693   5.697   4.981
 6513TIP3   OH219502   3.037   1.307   5.134
 6513TIP3    H119503   2.967   1.346   5.083
 6513TIP3    H219504   3.110   1.368   5.125
 6514TIP3   OH219505   0.936   6.459   5.250
 6514TIP3    H119506   0.908   6.467   5.159
 6514TIP3    H219507   0.876   6.395   5.288
 6515TIP3   OH219508   2.679   6.477   4.814
 6515TIP3    H119509   2.651   6.388   4.794
 6515TIP3    H219510   2.749   6.466   4.879
 6516TIP3   OH219511   2.347   2.258   2.276
 6516TIP3    H119512   2.260   2.224   2.255
 6516TIP3    H219513   2.331   2.330   2.338
 6517TIP3   OH219514   7.053   0.093   1.242
 6517TIP3    H119515   6.974   0.077   1.293
 6517TIP3    H219516   7.125   0.076   1.303
 6518TIP3   OH219517   2.137   2.761   1.199
 6518TIP3    H119518   2.229   2.775   1.218
 6518TIP3    H219519   2.104   2.845   1.168
 6519TIP3   OH219520   1.782   6.733   2.939
 6519TIP3    H119521   1.836   6.772   3.008
 6519TIP3    H219522   1.696   6.724   2.979
 6520TIP3   OH219523   4.814   5.700   3.435
 6520TIP3    H119524   4.776   5.682   3.349
 6520TIP3    H219525   4.773   5.635   3.493
 6521TIP3   OH219526   3.788   0.451   4.969
 6521TIP3    H119527   3.866   0.451   4.914
 6521TIP3    H219528   3.802   0.523   5.030
 6522TIP3   OH219529   4.078   1.561   1.832
 6522TIP3    H119530   4.019   1.627   1.870
 6522TIP3    H219531   4.066   1.569   1.738
 6523TIP3   OH219532   4.904   1.142   5.651
 6523TIP3    H119533   4.914   1.107   5.739
 6523TIP3    H219534   4.833   1.091   5.612
 6524TIP3   OH219535   4.060   5.394   1.198
 6524TIP3    H119536   4.119   5.352   1.259
 6524TIP3    H219537   3.996   5.327   1.175
 6525TIP3   OH219538   6.270   3.769   4.876
 6525TIP3    H119539   6.228   3.686   4.897
 6525TIP3    H219540   6.253   3.825   4.952
 6526TIP3   OH219541   1.983   6.173   1.182
 6526TIP3    H119542   2.046   6.149   1.250
 6526TIP3    H219543   2.033   6.170   1.101
 6527TIP3   OH219544   4.392   6.341   4.510
 6527TIP3    H119545   4.461   6.284   4.477
 6527TIP3    H219546   4.310   6.301   4.481
 6528TIP3   OH219547   1.856   2.802   5.006
 6528TIP3    H119548   1.806   2.823   5.084
 6528TIP3    H219549   1.808   2.730   4.965
 6529TIP3   OH219550   0.471   3.672   3.989
 6529TIP3    H119551   0.392   3.663   3.935
 6529TIP3    H219552   0.459   3.608   4.060
 6530TIP3   OH219553   0.103   6.587   0.127
 6530TIP3    H119554   0.054   6.668   0.112
 6530TIP3    H219555   0.191   6.616   0.149
 6531TIP3   OH219556   4.766   0.127   1.899
 6531TIP3    H119557   4.750   0.069   1.974
 6531TIP3    H219558   4.825   0.194   1.933
 6532TIP3   OH219559   6.213   2.448   5.071
 6532TIP3    H119560   6.151   2.521   5.072
 6532TIP3    H219561   6.215   2.420   4.980
 6533TIP3   OH219562   2.907   2.916   4.232
 6533TIP3    H119563   2.947   3.002   4.217
 6533TIP3    H219564   2.873   2.919   4.321
 6534TIP3   OH219565   3.407   0.590   1.089
 6534TIP3    H119566   3.370   0.502   1.101
 6534TIP3    H219567   3.340   0.637   1.038
 6535TIP3   OH219568   1.637   5.305   4.171
 6535TIP3    H119569   1.653   5.253   4.092
 6535TIP3    H219570   1.544   5.290   4.192
 6536TIP3   OH219571   5.531   1.282   2.706
 6536TIP3    H119572   5.596   1.353   2.713
 6536TIP3    H219573   5.477   1.308   2.631
 6537TIP3   OH219574   5.471   2.515   4.527
 6537TIP3    H119575   5.496   2.500   4.436
 6537TIP3    H219576   5.415   2.592   4.525
 6538TIP3   OH219577   1.119   1.278   4.554
 6538TIP3    H119578   1.079   1.364   4.539
 6538TIP3    H219579   1.212   1.292   4.535
 6539TIP3   OH219580   1.215   6.500   3.127
 6539TIP3    H119581   1.256   6.449   3.197
 6539TIP3    H219582   1.171   6.572   3.172
 6540TIP3   OH219583   3.758   3.167   2.170
 6540TIP3    H119584   3.744   3.238   2.107
 6540TIP3    H219585   3.853   3.164   2.182
 6541TIP3   OH219586   7.046   2.326   2.768
 6541TIP3    H119587   7.106   2.291   2.702
 6541TIP3    H219588   7.103   2.350   2.842
 6542TIP3   OH219589   2.880   1.756   4.420
 6542TIP3    H119590   2.825   1.829   4.392
 6542TIP3    H219591   2.961   1.797   4.451
 6543TIP3   OH219592   0.460   5.187   3.498
 6543TIP3    H119593   0.463   5.191   3.594
 6543TIP3    H219594   0.382   5.237   3.475
 6544TIP3   OH219595   2.597   2.226   3.121
 6544TIP3    H119596   2.504   2.206   3.131
 6544TIP3    H219597   2.641   2.163   3.178
 6545TIP3   OH219598   6.465   2.549   0.533
 6545TIP3    H119599   6.431   2.591   0.612
 6545TIP3    H219600   6.457   2.617   0.465
 6546TIP3   OH219601   0.514   2.219   5.782
 6546TIP3    H119602   0.555   2.214   5.695
 6546TIP3    H219603   0.560   2.154   5.834
 6547TIP3   OH219604   0.373   4.590   5.337
 6547TIP3    H119605   0.405   4.501   5.328
 6547TIP3    H219606   0.402   4.618   5.424
 6548TIP3   OH219607   2.419   6.555   4.104
 6548TIP3    H119608   2.423   6.651   4.105
 6548TIP3    H219609   2.438   6.529   4.194
 6549TIP3   OH219610   1.414   0.237   5.881
 6549TIP3    H119611   1.347   0.283   5.831
 6549TIP3    H219612   1.379   0.149   5.892
 6550TIP3   OH219613   4.258   1.176   5.130
 6550TIP3    H119614   4.181   1.229   5.111
 6550TIP3    H219615   4.261   1.171   5.226
 6551TIP3   OH219616   6.644   1.596   1.734
 6551TIP3    H119617   6.638   1.591   1.830
 6551TIP3    H219618   6.737   1.592   1.716
 6552TIP3   OH219619   0.511   0.850   4.279
 6552TIP3    H119620   0.445   0.850   4.210
 6552TIP3    H219621   0.593   0.874   4.235
 6553TIP3   OH219622   2.388   4.233   2.258
 6553TIP3    H119623   2.397   4.326   2.234
 6553TIP3    H219624   2.465   4.216   2.313
 6554TIP3   OH219625   4.024   3.124   5.293
 6554TIP3    H119626   4.092   3.088   5.351
 6554TIP3    H219627   4.003   3.209   5.332
 6555TIP3   OH219628   1.912   0.276   1.865
 6555TIP3    H119629   1.977   0.249   1.930
 6555TIP3    H219630   1.894   0.196   1.815
 6556TIP3   OH219631   2.286   3.394   1.278
 6556TIP3    H119632   2.199   3.384   1.317
 6556TIP3    H219633   2.296   3.318   1.222
 6557TIP3   OH219634   1.625   4.130   3.480
 6557TIP3    H119635   1.710   4.136   3.524
 6557TIP3    H219636   1.620   4.039   3.452
 6558TIP3   OH219637   1.231   1.167   2.409
 6558TIP3    H119638   1.184   1.250   2.418
 6558TIP3    H219639   1.217   1.122   2.492
 6559TIP3   OH219640   6.908   4.716   4.041
 6559TIP3    H119641   6.865   4.669   4.112
 6559TIP3    H219642   6.876   4.674   3.961
 6560TIP3   OH219643   1.409   2.173   1.371
 6560TIP3    H119644   1.353   2.143   1.299
 6560TIP3    H219645   1.485   2.116   1.368
 6561TIP3   OH219646   1.365   4.308   0.387
 6561TIP3    H119647   1.423   4.382   0.403
 6561TIP3    H219648   1.277   4.342   0.403
 6562TIP3   OH219649   6.315   2.444   3.869
 6562TIP3    H119650   6.325   2.519   3.811
 6562TIP3    H219651   6.404   2.412   3.883
 6563TIP3   OH219652   0.563   1.837   3.886
 6563TIP3    H119653   0.480   1.792   3.900
 6563TIP3    H219654   0.575   1.836   3.792
 6564TIP3   OH219655   2.414   5.812   1.047
 6564TIP3    H119656   2.442   5.889   0.997
 6564TIP3    H219657   2.366   5.847   1.122
 6565TIP3   OH219658   2.204   2.329   2.891
 6565TIP3    H119659   2.226   2.343   2.983
 6565TIP3    H219660   2.281   2.285   2.854
 6566TIP3   OH219661   4.247   5.600   1.180
 6566TIP3    H119662   4.169   5.556   1.215
 6566TIP3    H219663   4.306   5.606   1.255
 6567TIP3   OH219664   0.358   4.679   3.907
 6567TIP3    H119665   0.271   4.649   3.933
 6567TIP3    H219666   0.414   4.602   3.918
 6568TIP3   OH219667   6.980   3.303   3.174
 6568TIP3    H119668   7.037   3.361   3.226
 6568TIP3    H219669   6.907   3.359   3.147
 6569TIP3   OH219670   2.045   0.155   2.271
 6569TIP3    H119671   1.983   0.196   2.331
 6569TIP3    H219672   2.062   0.222   2.204
 6570TIP3   OH219673   3.917   5.127   4.200
 6570TIP3    H119674   4.004   5.118   4.238
 6570TIP3    H219675   3.934   5.148   4.107
 6571TIP3   OH219676   0.417   6.242   0.983
 6571TIP3    H119677   0.435   6.149   0.999
 6571TIP3    H219678   0.442   6.254   0.891
 6572TIP3   OH219679   4.358   2.420   5.228
 6572TIP3    H119680   4.400   2.358   5.287
 6572TIP3    H219681   4.330   2.492   5.285
 6573TIP3   OH219682   2.779   4.730   3.391
 6573TIP3    H119683   2.702   4.689   3.429
 6573TIP3    H219684   2.793   4.685   3.308
 6574TIP3   OH219685   4.382   4.789   4.336
 6574TIP3    H119686   4.397   4.817   4.246
 6574TIP3    H219687   4.465   4.753   4.365
 6575TIP3   OH219688   6.423   5.667   0.278
 6575TIP3    H119689   6.354   5.714   0.324
 6575TIP3    H219690   6.453   5.602   0.341
 6576TIP3   OH219691   1.279   0.807   1.670
 6576TIP3    H119692   1.267   0.715   1.694
 6576TIP3    H219693   1.280   0.807   1.574
 6577TIP3   OH219694   2.346   2.583   4.104
 6577TIP3    H119695   2.442   2.579   4.094
 6577TIP3    H219696   2.329   2.672   4.137
 6578TIP3   OH219697   3.504   4.471   1.732
 6578TIP3    H119698   3.458   4.392   1.704
 6578TIP3    H219699   3.448   4.510   1.799
 6579TIP3   OH219700   3.889   1.368   2.715
 6579TIP3    H119701   3.798   1.395   2.708
 6579TIP3    H219702   3.939   1.450   2.713
 6580TIP3   OH219703   0.528   6.319   0.723
 6580TIP3    H119704   0.597   6.253   0.710
 6580TIP3    H219705   0.479   6.319   0.641
 6581TIP3   OH219706   3.091   5.873   3.848
 6581TIP3    H119707   3.170   5.888   3.900
 6581TIP3    H219708   3.084   5.950   3.792
 6582TIP3   OH219709   5.789   3.257   5.056
 6582TIP3    H119710   5.778   3.301   5.140
 6582TIP3    H219711   5.799   3.165   5.078
 6583TIP3   OH219712   1.042   0.001   0.254
 6583TIP3    H119713   0.958   0.028   0.293
 6583TIP3    H219714   1.107   0.056   0.298
 6584TIP3   OH219715   4.132   3.337   3.298
 6584TIP3    H119716   4.144   3.353   3.205
 6584TIP3    H219717   4.104   3.421   3.334
 6585TIP3   OH219718   2.774   5.506   3.421
 6585TIP3    H119719   2.694   5.505   3.475
 6585TIP3    H219720   2.845   5.522   3.484
 6586TIP3   OH219721   0.631   2.175   1.949
 6586TIP3    H119722   0.580   2.146   1.873
 6586TIP3    H219723   0.722   2.169   1.920
 6587TIP3   OH219724   0.940   2.791   4.330
 6587TIP3    H119725   0.937   2.698   4.307
 6587TIP3    H219726   0.940   2.837   4.245
 6588TIP3   OH219727   1.978   2.602   4.556
 6588TIP3    H119728   1.933   2.663   4.614
 6588TIP3    H219729   2.071   2.623   4.564
 6589TIP3   OH219730   0.483   5.136   0.963
 6589TIP3    H119731   0.424   5.172   1.029
 6589TIP3    H219732   0.548   5.206   0.949
 6590TIP3   OH219733   0.974   5.610   0.297
 6590TIP3    H119734   0.926   5.528   0.309
 6590TIP3    H219735   1.031   5.595   0.222
 6591TIP3   OH219736   1.618   5.279   1.654
 6591TIP3    H119737   1.598   5.233   1.573
 6591TIP3    H219738   1.533   5.291   1.697
 6592TIP3   OH219739   6.652   0.050   0.858
 6592TIP3    H119740   6.662  -0.013   0.787
 6592TIP3    H219741   6.724   0.029   0.919
 6593TIP3   OH219742   1.972   3.705   2.598
 6593TIP3    H119743   1.905   3.663   2.543
 6593TIP3    H219744   1.980   3.794   2.562
 6594TIP3   OH219745   1.700   2.153   4.190
 6594TIP3    H119746   1.684   2.215   4.119
 6594TIP3    H219747   1.724   2.072   4.145
 6595TIP3   OH219748   5.246   1.742   2.565
 6595TIP3    H119749   5.241   1.724   2.659
 6595TIP3    H219750   5.156   1.728   2.534
 6596TIP3   OH219751   6.290   5.711   0.011
 6596TIP3    H119752   6.197   5.703   0.032
 6596TIP3    H219753   6.335   5.696   0.094
 6597TIP3   OH219754   6.247   2.207   0.174
 6597TIP3    H119755   6.264   2.244   0.088
 6597TIP3    H219756   6.253   2.281   0.234
 6598TIP3   OH219757   5.481   4.832   5.341
 6598TIP3    H119758   5.574   4.837   5.322
 6598TIP3    H219759   5.447   4.919   5.318
 6599TIP3   OH219760   0.910   2.196   1.931
 6599TIP3    H119761   0.961   2.157   2.003
 6599TIP3    H219762   0.930   2.141   1.855
 6600TIP3   OH219763   5.319   5.054   3.768
 6600TIP3    H119764   5.254   5.044   3.837
 6600TIP3    H219765   5.290   5.131   3.719
 6601TIP3   OH219766   4.005   5.868   1.204
 6601TIP3    H119767   3.982   5.801   1.268
 6601TIP3    H219768   4.089   5.839   1.168
 6602TIP3   OH219769   4.573   4.041   0.429
 6602TIP3    H119770   4.534   4.086   0.354
 6602TIP3    H219771   4.524   4.074   0.504
 6603TIP3   OH219772   6.495   6.316   4.332
 6603TIP3    H119773   6.408   6.301   4.368
 6603TIP3    H219774   6.501   6.412   4.323
 6604TIP3   OH219775   0.368   3.734   1.908
 6604TIP3    H119776   0.413   3.651   1.890
 6604TIP3    H219777   0.360   3.776   1.823
 6605TIP3   OH219778   6.935   4.709   0.569
 6605TIP3    H119779   6.980   4.648   0.627
 6605TIP3    H219780   6.957   4.680   0.481
 6606TIP3   OH219781   2.061   4.196   3.998
 6606TIP3    H119782   2.045   4.159   3.911
 6606TIP3    H219783   2.070   4.290   3.982
 6607TIP3   OH219784   1.482  -0.053   0.814
 6607TIP3    H119785   1.514  -0.035   0.902
 6607TIP3    H219786   1.415  -0.120   0.827
 6608TIP3   OH219787   4.758   0.709   4.164
 6608TIP3    H119788   4.740   0.649   4.091
 6608TIP3    H219789   4.671   0.738   4.193
 6609TIP3   OH219790   4.376   3.603   4.796
 6609TIP3    H119791   4.314   3.552   4.743
 6609TIP3    H219792   4.369   3.565   4.884
 6610TIP3   OH219793   1.333   3.611   2.455
 6610TIP3    H119794   1.396   3.585   2.522
 6610TIP3    H219795   1.358   3.700   2.431
 6611TIP3   OH219796   3.897   0.764   0.203
 6611TIP3    H119797   3.813   0.758   0.247
 6611TIP3    H219798   3.962   0.750   0.272
 6612TIP3   OH219799   4.136   4.547   4.866
 6612TIP3    H119800   4.143   4.507   4.953
 6612TIP3    H219801   4.176   4.633   4.877
 6613TIP3   OH219802   5.682   2.767   5.229
 6613TIP3    H119803   5.666   2.714   5.307
 6613TIP3    H219804   5.765   2.811   5.246
 6614TIP3   OH219805   4.092   2.197   4.049
 6614TIP3    H119806   4.171   2.250   4.056
 6614TIP3    H219807   4.033   2.248   3.994
 6615TIP3   OH219808   3.921   4.171   1.335
 6615TIP3    H119809   3.934   4.241   1.399
 6615TIP3    H219810   3.990   4.184   1.270
 6616TIP3   OH219811   5.950   1.676   1.302
 6616TIP3    H119812   6.026   1.639   1.346
 6616TIP3    H219813   5.983   1.707   1.218
 6617TIP3   OH219814   0.047   0.805   5.231
 6617TIP3    H119815   0.014   0.784   5.319
 6617TIP3    H219816   0.109   0.735   5.212
 6618TIP3   OH219817   6.752   2.945   4.727
 6618TIP3    H119818   6.820   3.011   4.715
 6618TIP3    H219819   6.689   2.986   4.787
 6619TIP3   OH219820   2.801   1.225   5.826
 6619TIP3    H119821   2.854   1.262   5.756
 6619TIP3    H219822   2.725   1.283   5.833
 6620TIP3   OH219823   5.227   0.779   5.662
 6620TIP3    H119824   5.288   0.719   5.706
 6620TIP3    H219825   5.148   0.776   5.715
 6621TIP3   OH219826   6.218   6.022   3.313
 6621TIP3    H119827   6.270   6.031   3.393
 6621TIP3    H219828   6.249   5.941   3.273
 6622TIP3   OH219829   4.630   2.415   4.943
 6622TIP3    H119830   4.654   2.425   5.035
 6622TIP3    H219831   4.600   2.503   4.916
 6623TIP3   OH219832   1.945   3.780   0.939
 6623TIP3    H119833   1.919   3.739   0.857
 6623TIP3    H219834   1.869   3.772   0.996
 6624TIP3   OH219835   1.965   2.361   4.393
 6624TIP3    H119836   1.939   2.428   4.456
 6624TIP3    H219837   1.933   2.393   4.309
 6625TIP3   OH219838   1.375   4.154   4.693
 6625TIP3    H119839   1.313   4.180   4.624
 6625TIP3    H219840   1.323   4.159   4.774
 6626TIP3   OH219841   4.004   4.694   0.154
 6626TIP3    H119842   3.911   4.675   0.139
 6626TIP3    H219843   4.036   4.618   0.203
 6627TIP3   OH219844   6.627   4.090   2.154
 6627TIP3    H119845   6.635   4.029   2.227
 6627TIP3    H219846   6.553   4.059   2.103
 6628TIP3   OH219847   4.644   4.478   3.028
 6628TIP3    H119848   4.637   4.401   3.084
 6628TIP3    H219849   4.728   4.469   2.984
 6629TIP3   OH219850   1.806   4.078   3.700
 6629TIP3    H119851   1.889   4.035   3.722
 6629TIP3    H219852   1.743   4.043   3.763
 6630TIP3   OH219853   1.046   4.554   5.654
 6630TIP3    H119854   1.008   4.561   5.566
 6630TIP3    H219855   0.981   4.506   5.705
 6631TIP3   OH219856   2.574   0.052   0.590
 6631TIP3    H119857   2.627  -0.024   0.614
 6631TIP3    H219858   2.614   0.084   0.509
 6632TIP3   OH219859   0.688   2.914   1.494
 6632TIP3    H119860   0.669   2.822   1.473
 6632TIP3    H219861   0.696   2.957   1.408
 6633TIP3   OH219862   3.573   4.065   0.373
 6633TIP3    H119863   3.563   4.052   0.279
 6633TIP3    H219864   3.501   4.015   0.412
 6634TIP3   OH219865   5.692   5.600   1.539
 6634TIP3    H119866   5.741   5.533   1.492
 6634TIP3    H219867   5.611   5.611   1.488
 6635TIP3   OH219868   6.013   0.069   0.248
 6635TIP3    H119869   6.101   0.098   0.223
 6635TIP3    H219870   6.002  -0.015   0.203
 6636TIP3   OH219871   1.058   0.545   3.213
 6636TIP3    H119872   1.115   0.586   3.149
 6636TIP3    H219873   1.078   0.451   3.207
 6637TIP3   OH219874   6.919   4.093   1.302
 6637TIP3    H119875   6.941   4.116   1.392
 6637TIP3    H219876   6.951   4.167   1.250
 6638TIP3   OH219877   0.818   3.170   5.620
 6638TIP3    H119878   0.728   3.138   5.613
 6638TIP3    H219879   0.872   3.096   5.593
 6639TIP3   OH219880   5.947   6.690   3.306
 6639TIP3    H119881   5.929   6.635   3.382
 6639TIP3    H219882   5.863   6.695   3.260
 6640TIP3   OH219883   4.252   6.679   3.147
 6640TIP3    H119884   4.213   6.708   3.064
 6640TIP3    H219885   4.200   6.603   3.172
 6641TIP3   OH219886   4.134   0.795   0.026
 6641TIP3    H119887   4.054   0.844   0.042
 6641TIP3    H219888   4.105   0.720  -0.028
 6642TIP3   OH219889   4.813   0.044   4.182
 6642TIP3    H119890   4.897   0.047   4.227
 6642TIP3    H219891   4.791   0.135   4.163
 6643TIP3   OH219892   3.234   1.465   5.830
 6643TIP3    H119893   3.233   1.496   5.740
 6643TIP3    H219894   3.274   1.378   5.826
 6644TIP3   OH219895   5.938   4.826   3.276
 6644TIP3    H119896   5.849   4.859   3.291
 6644TIP3    H219897   5.933   4.778   3.194
 6645TIP3   OH219898   2.623   4.764   2.405
 6645TIP3    H119899   2.616   4.712   2.485
 6645TIP3    H219900   2.582   4.710   2.337
 6646TIP3   OH219901   4.327   3.803   0.693
 6646TIP3    H119902   4.325   3.738   0.763
 6646TIP3    H219903   4.303   3.755   0.614
 6647TIP3   OH219904   4.266   1.089   0.437
 6647TIP3    H119905   4.312   1.035   0.374
 6647TIP3    H219906   4.174   1.084   0.410
 6648TIP3   OH219907   6.432   4.738   4.158
 6648TIP3    H119908   6.508   4.793   4.138
 6648TIP3    H219909   6.368   4.761   4.090
 6649TIP3   OH219910   1.682   5.736   4.558
 6649TIP3    H119911   1.608   5.771   4.608
 6649TIP3    H219912   1.745   5.709   4.625
 6650TIP3   OH219913   5.802   6.199   4.941
 6650TIP3    H119914   5.884   6.244   4.963
 6650TIP3    H219915   5.830   6.120   4.895
 6651TIP3   OH219916   6.333   2.938   0.914
 6651TIP3    H119917   6.287   2.987   0.981
 6651TIP3    H219918   6.305   2.978   0.831
 6652TIP3   OH219919   4.487   3.516   2.505
 6652TIP3    H119920   4.503   3.426   2.533
 6652TIP3    H219921   4.565   3.565   2.532
 6653TIP3   OH219922   0.354   3.778   1.522
 6653TIP3    H119923   0.275   3.784   1.469
 6653TIP3    H219924   0.425   3.769   1.458
 6654TIP3   OH219925   3.796   1.029   3.670
 6654TIP3    H119926   3.755   1.112   3.697
 6654TIP3    H219927   3.723   0.968   3.663
 6655TIP3   OH219928   0.870   1.061   1.760
 6655TIP3    H119929   0.795   1.023   1.804
 6655TIP3    H219930   0.937   1.070   1.828
 6656TIP3   OH219931   2.742   2.484   4.832
 6656TIP3    H119932   2.750   2.579   4.824
 6656TIP3    H219933   2.713   2.455   4.745
 6657TIP3   OH219934   1.326   3.118   1.459
 6657TIP3    H119935   1.254   3.139   1.518
 6657TIP3    H219936   1.307   3.030   1.427
 6658TIP3   OH219937   3.256   1.332   1.372
 6658TIP3    H119938   3.288   1.420   1.392
 6658TIP3    H219939   3.178   1.322   1.426
 6659TIP3   OH219940   4.647   3.022   1.959
 6659TIP3    H119941   4.643   2.970   1.878
 6659TIP3    H219942   4.569   2.996   2.008
 6660TIP3   OH219943   0.162   6.689   1.979
 6660TIP3    H119944   0.235   6.631   1.960
 6660TIP3    H219945   0.127   6.713   1.893
 6661TIP3   OH219946   6.289   1.063   5.666
 6661TIP3    H119947   6.234   0.991   5.638
 6661TIP3    H219948   6.236   1.110   5.730
 6662TIP3   OH219949   6.604   4.188   3.363
 6662TIP3    H119950   6.512   4.212   3.373
 6662TIP3    H219951   6.652   4.269   3.381
 6663TIP3   OH219952   0.338   1.678   4.901
 6663TIP3    H119953   0.390   1.727   4.966
 6663TIP3    H219954   0.355   1.723   4.818
 6664TIP3   OH219955   1.206   2.424   2.231
 6664TIP3    H119956   1.124   2.472   2.238
 6664TIP3    H219957   1.242   2.423   2.319
 6665TIP3   OH219958  -0.011   2.760   1.135
 6665TIP3    H119959   0.015   2.667   1.129
 6665TIP3    H219960   0.069   2.808   1.112
 6666TIP3   OH219961   2.561   0.011   3.204
 6666TIP3    H119962   2.481   0.061   3.219
 6666TIP3    H219963   2.587  -0.021   3.291
 6667TIP3   OH219964   1.053   1.244   3.552
 6667TIP3    H119965   1.125   1.207   3.501
 6667TIP3    H219966   1.010   1.304   3.491
 6668TIP3   OH219967   0.054   2.304   1.946
 6668TIP3    H119968   0.057   2.260   2.031
 6668TIP3    H219969   0.125   2.368   1.950
 6669TIP3   OH219970   4.806   4.511   5.286
 6669TIP3    H119971   4.830   4.561   5.208
 6669TIP3    H219972   4.787   4.423   5.252
 6670TIP3   OH219973   1.173   3.255   2.572
 6670TIP3    H119974   1.182   3.230   2.480
 6670TIP3    H219975   1.203   3.179   2.622
 6671TIP3   OH219976   5.382   6.232   2.154
 6671TIP3    H119977   5.447   6.221   2.223
 6671TIP3    H219978   5.431   6.270   2.081
 6672TIP3   OH219979   4.630   4.627   4.070
 6672TIP3    H119980   4.690   4.654   4.000
 6672TIP3    H219981   4.686   4.614   4.146
 6673TIP3   OH219982   1.842   5.467   0.186
 6673TIP3    H119983   1.763   5.466   0.133
 6673TIP3    H219984   1.909   5.507   0.130
 6674TIP3   OH219985   2.085   1.145   0.929
 6674TIP3    H119986   2.179   1.131   0.943
 6674TIP3    H219987   2.074   1.143   0.834
 6675TIP3   OH219988   2.791   2.300   0.699
 6675TIP3    H119989   2.879   2.318   0.665
 6675TIP3    H219990   2.733   2.344   0.636
 6676TIP3   OH219991   3.071   2.389   5.233
 6676TIP3    H119992   3.149   2.343   5.265
 6676TIP3    H219993   3.045   2.341   5.155
 6677TIP3   OH219994   5.823   4.458   5.842
 6677TIP3    H119995   5.905   4.435   5.798
 6677TIP3    H219996   5.758   4.457   5.772
 6678TIP3   OH219997   4.302   5.644   1.821
 6678TIP3    H119998   4.229   5.697   1.787
 6678TIP3    H219999   4.376   5.668   1.765
 6679TIP3   OH220000   6.832   5.447   2.969
 6679TIP3    H120001   6.816   5.359   2.935
 6679TIP3    H220002   6.918   5.471   2.935
 6680TIP3   OH220003   4.061   1.573   4.637
 6680TIP3    H120004   3.965   1.570   4.646
 6680TIP3    H220005   4.086   1.658   4.672
 6681TIP3   OH220006   6.212   1.101   3.761
 6681TIP3    H120007   6.146   1.053   3.710
 6681TIP3    H220008   6.169   1.183   3.784
 6682TIP3   OH220009   3.295   6.020   5.884
 6682TIP3    H120010   3.352   6.030   5.807
 6682TIP3    H220011   3.277   6.110   5.911
 6683TIP3   OH220012   0.273   5.049   5.728
 6683TIP3    H120013   0.305   5.020   5.813
 6683TIP3    H220014   0.280   4.972   5.671
 6684TIP3   OH220015   0.427   6.563   4.661
 6684TIP3    H120016   0.432   6.467   4.661
 6684TIP3    H220017   0.350   6.583   4.713
 6685TIP3   OH220018   0.877   3.641   4.720
 6685TIP3    H120019   0.822   3.714   4.693
 6685TIP3    H220020   0.929   3.676   4.793
 6686TIP3   OH220021   4.035   3.320   0.296
 6686TIP3    H120022   4.005   3.327   0.386
 6686TIP3    H220023   3.976   3.256   0.256
 6687TIP3   OH220024   2.215   4.880   3.121
 6687TIP3    H120025   2.144   4.934   3.155
 6687TIP3    H220026   2.191   4.790   3.145
 6688TIP3   OH220027   5.438   2.391   2.261
 6688TIP3    H120028   5.504   2.446   2.219
 6688TIP3    H220029   5.462   2.302   2.237
 6689TIP3   OH220030   3.319   2.524   0.427
 6689TIP3    H120031   3.299   2.558   0.340
 6689TIP3    H220032   3.243   2.471   0.451
 6690TIP3   OH220033   7.159   0.644   0.182
 6690TIP3    H120034   7.102   0.717   0.205
 6690TIP3    H220035   7.180   0.658   0.089
 6691TIP3   OH220036   3.840   3.142   4.839
 6691TIP3    H120037   3.931   3.153   4.866
 6691TIP3    H220038   3.843   3.071   4.774
 6692TIP3   OH220039   3.383   1.992   2.250
 6692TIP3    H120040   3.310   1.941   2.215
 6692TIP3    H220041   3.343   2.056   2.308
 6693TIP3   OH220042   1.112   5.911   0.297
 6693TIP3    H120043   1.037   5.876   0.345
 6693TIP3    H220044   1.167   5.835   0.279
 6694TIP3   OH220045   2.774   1.690   3.386
 6694TIP3    H120046   2.831   1.750   3.435
 6694TIP3    H220047   2.752   1.738   3.306
 6695TIP3   OH220048   5.745   4.244   1.829
 6695TIP3    H120049   5.779   4.157   1.847
 6695TIP3    H220050   5.760   4.293   1.910
 6696TIP3   OH220051   5.415   6.572   0.585
 6696TIP3    H120052   5.427   6.505   0.651
 6696TIP3    H220053   5.485   6.555   0.521
 6697TIP3   OH220054   0.622   0.523   2.860
 6697TIP3    H120055   0.695   0.568   2.903
 6697TIP3    H220056   0.659   0.442   2.826
 6698TIP3   OH220057   4.695   2.246   4.738
 6698TIP3    H120058   4.655   2.306   4.801
 6698TIP3    H220059   4.742   2.182   4.792
 6699TIP3   OH220060   1.520   3.746   3.236
 6699TIP3    H120061   1.594   3.734   3.295
 6699TIP3    H220062   1.503   3.840   3.238
 6700TIP3   OH220063   5.071   0.781   0.018
 6700TIP3    H120064   5.067   0.750   0.108
 6700TIP3    H220065   5.133   0.722  -0.025
 6701TIP3   OH220066   2.586   1.336   1.122
 6701TIP3    H120067   2.630   1.252   1.110
 6701TIP3    H220068   2.652   1.401   1.100
 6702TIP3   OH220069   3.133   6.272   1.495
 6702TIP3    H120070   3.141   6.234   1.582
 6702TIP3    H220071   3.090   6.204   1.443
 6703TIP3   OH220072   3.189   1.779   4.161
 6703TIP3    H120073   3.253   1.733   4.215
 6703TIP3    H220074   3.126   1.711   4.136
 6704TIP3   OH220075   1.375   6.069   0.276
 6704TIP3    H120076   1.402   6.126   0.348
 6704TIP3    H220077   1.281   6.061   0.286
 6705TIP3   OH220078   1.679   0.732   3.220
 6705TIP3    H120079   1.585   0.721   3.214
 6705TIP3    H220080   1.696   0.739   3.314
 6706TIP3   OH220081   5.949   1.619   2.896
 6706TIP3    H120082   5.900   1.701   2.904
 6706TIP3    H220083   5.892   1.553   2.936
 6707TIP3   OH220084   2.934   3.106   1.699
 6707TIP3    H120085   3.002   3.152   1.651
 6707TIP3    H220086   2.853   3.126   1.653
 6708TIP3   OH220087   6.432   5.544   2.331
 6708TIP3    H120088   6.388   5.461   2.313
 6708TIP3    H220089   6.419   5.558   2.425
 6709TIP3   OH220090   6.323   3.211   1.066
 6709TIP3    H120091   6.301   3.272   1.137
 6709TIP3    H220092   6.411   3.180   1.087
 6710TIP3   OH220093   1.280   3.325   2.055
 6710TIP3    H120094   1.337   3.396   2.082
 6710TIP3    H220095   1.192   3.362   2.059
 6711TIP3   OH220096   2.608   2.503   1.107
 6711TIP3    H120097   2.594   2.586   1.154
 6711TIP3    H220098   2.593   2.435   1.173
 6712TIP3   OH220099   6.779   1.962   3.378
 6712TIP3    H120100   6.845   1.894   3.393
 6712TIP3    H220101   6.829   2.043   3.368
 6713TIP3   OH220102   1.300   6.542   1.539
 6713TIP3    H120103   1.319   6.603   1.610
 6713TIP3    H220104   1.231   6.585   1.488
 6714TIP3   OH220105   3.732   3.674   1.909
 6714TIP3    H120106   3.692   3.733   1.973
 6714TIP3    H220107   3.819   3.655   1.944
 6715TIP3   OH220108   4.802   3.861   2.054
 6715TIP3    H120109   4.715   3.858   2.093
 6715TIP3    H220110   4.859   3.893   2.123
 6716TIP3   OH220111   5.806   1.382   5.164
 6716TIP3    H120112   5.897   1.371   5.135
 6716TIP3    H220113   5.769   1.445   5.102
 6717TIP3   OH220114   4.494   4.893   4.078
 6717TIP3    H120115   4.550   4.817   4.072
 6717TIP3    H220116   4.433   4.884   4.004
 6718TIP3   OH220117   5.662   6.609   3.814
 6718TIP3    H120118   5.621   6.656   3.741
 6718TIP3    H220119   5.590   6.561   3.855
 6719TIP3   OH220120   4.797   3.447   0.323
 6719TIP3    H120121   4.889   3.459   0.346
 6719TIP3    H220122   4.759   3.404   0.399
 6720TIP3   OH220123   3.491   1.965   4.512
 6720TIP3    H120124   3.510   1.918   4.431
 6720TIP3    H220125   3.493   1.897   4.580
 6721TIP3   OH220126   0.315   1.437   3.059
 6721TIP3    H120127   0.236   1.481   3.026
 6721TIP3    H220128   0.380   1.451   2.990
 6722TIP3   OH220129   2.402   4.760   5.351
 6722TIP3    H120130   2.334   4.694   5.340
 6722TIP3    H220131   2.387   4.823   5.280
 6723TIP3   OH220132   6.854   0.861   0.642
 6723TIP3    H120133   6.840   0.865   0.737
 6723TIP3    H220134   6.825   0.947   0.610
 6724TIP3   OH220135   5.048   2.031   0.580
 6724TIP3    H120136   5.020   2.119   0.554
 6724TIP3    H220137   5.045   1.981   0.498
 6725TIP3   OH220138   7.066   0.882   0.923
 6725TIP3    H120139   7.074   0.804   0.868
 6725TIP3    H220140   6.973   0.889   0.941
 6726TIP3   OH220141   6.166   1.481   2.821
 6726TIP3    H120142   6.101   1.549   2.841
 6726TIP3    H220143   6.130   1.402   2.861
 6727TIP3   OH220144   3.935   6.335   5.511
 6727TIP3    H120145   4.028   6.344   5.492
 6727TIP3    H220146   3.917   6.242   5.504
 6728TIP3   OH220147   6.929   0.127   4.074
 6728TIP3    H120148   6.835   0.114   4.090
 6728TIP3    H220149   6.968   0.131   4.161
 6729TIP3   OH220150   5.926   0.870   2.079
 6729TIP3    H120151   5.877   0.837   2.004
 6729TIP3    H220152   5.859   0.901   2.141
 6730TIP3   OH220153   1.496   2.736   0.980
 6730TIP3    H120154   1.459   2.662   0.933
 6730TIP3    H220155   1.502   2.805   0.914
 6731TIP3   OH220156   1.933   1.262   1.141
 6731TIP3    H120157   1.967   1.236   1.056
 6731TIP3    H220158   1.975   1.202   1.203
 6732TIP3   OH220159   3.176   6.022   5.220
 6732TIP3    H120160   3.094   5.998   5.262
 6732TIP3    H220161   3.176   5.974   5.137
 6733TIP3   OH220162   3.741   6.003   5.740
 6733TIP3    H120163   3.691   6.081   5.717
 6733TIP3    H220164   3.832   6.026   5.721
 6734TIP3   OH220165  -0.037   1.379   3.554
 6734TIP3    H120166  -0.085   1.411   3.477
 6734TIP3    H220167   0.055   1.395   3.534
 6735TIP3   OH220168   1.417   1.073   0.870
 6735TIP3    H120169   1.400   0.980   0.885
 6735TIP3    H220170   1.367   1.118   0.938
 6736TIP3   OH220171   3.336   0.323   4.724
 6736TIP3    H120172   3.251   0.352   4.758
 6736TIP3    H220173   3.392   0.400   4.732
 6737TIP3   OH220174   1.577   6.174   4.755
 6737TIP3    H120175   1.556   6.203   4.844
 6737TIP3    H220176   1.494   6.182   4.707
 6738TIP3   OH220177   1.197   1.491   0.452
 6738TIP3    H120178   1.276   1.530   0.490
 6738TIP3    H220179   1.190   1.405   0.494
 6739TIP3   OH220180   5.974   3.657   2.618
 6739TIP3    H120181   6.040   3.725   2.630
 6739TIP3    H220182   6.003   3.585   2.674
 6740TIP3   OH220183   5.360   1.154   3.219
 6740TIP3    H120184   5.299   1.136   3.148
 6740TIP3    H220185   5.321   1.228   3.266
 6741TIP3   OH220186   1.834   5.336   1.235
 6741TIP3    H120187   1.853   5.428   1.255
 6741TIP3    H220188   1.884   5.287   1.300
 6742TIP3   OH220189   1.029   1.439   3.355
 6742TIP3    H120190   1.124   1.429   3.364
 6742TIP3    H220191   1.011   1.526   3.389
 6743TIP3   OH220192   5.051   2.599   3.287
 6743TIP3    H120193   5.057   2.518   3.339
 6743TIP3    H220194   5.138   2.608   3.247
 6744TIP3   OH220195   6.351   6.791   2.243
 6744TIP3    H120196   6.406   6.725   2.286
 6744TIP3    H220197   6.278   6.741   2.206
 6745TIP3   OH220198   4.600   5.084   0.368
 6745TIP3    H120199   4.506   5.070   0.355
 6745TIP3    H220200   4.618   5.047   0.455
 6746TIP3   OH220201   6.198   6.791   0.306
 6746TIP3    H120202   6.161   6.749   0.384
 6746TIP3    H220203   6.162   6.879   0.306
 6747TIP3   OH220204   6.942   2.480   4.789
 6747TIP3    H120205   6.934   2.464   4.883
 6747TIP3    H220206   6.875   2.545   4.770
 6748TIP3   OH220207   0.500   0.176   4.751
 6748TIP3    H120208   0.581   0.126   4.742
 6748TIP3    H220209   0.521   0.262   4.716
 6749TIP3   OH220210   1.820   2.243   3.028
 6749TIP3    H120211   1.857   2.189   2.958
 6749TIP3    H220212   1.880   2.232   3.101
 6750TIP3   OH220213   4.196   6.270   0.875
 6750TIP3    H120214   4.274   6.322   0.852
 6750TIP3    H220215   4.163   6.310   0.955
 6751TIP3   OH220216   3.825   4.363   4.301
 6751TIP3    H120217   3.790   4.406   4.379
 6751TIP3    H220218   3.772   4.284   4.290
 6752TIP3   OH220219   1.397   0.512   4.634
 6752TIP3    H120220   1.431   0.600   4.614
 6752TIP3    H220221   1.302   0.522   4.633
 6753TIP3   OH220222   0.220   4.849   1.648
 6753TIP3    H120223   0.222   4.753   1.651
 6753TIP3    H220224   0.311   4.875   1.666
 6754TIP3   OH220225   4.326   4.396   3.372
 6754TIP3    H120226   4.417   4.374   3.392
 6754TIP3    H220227   4.332   4.472   3.314
 6755TIP3   OH220228   6.725   5.848   3.478
 6755TIP3    H120229   6.783   5.893   3.540
 6755TIP3    H220230   6.691   5.917   3.421
 6756TIP3   OH220231   4.602   3.637   3.535
 6756TIP3    H120232   4.583   3.720   3.577
 6756TIP3    H220233   4.637   3.661   3.449
 6757TIP3   OH220234   3.647   1.964   1.848
 6757TIP3    H120235   3.610   1.899   1.908
 6757TIP3    H220236   3.620   2.048   1.886
 6758TIP3   OH220237   1.884   4.713   1.431
 6758TIP3    H120238   1.904   4.667   1.513
 6758TIP3    H220239   1.948   4.784   1.427
 6759TIP3   OH220240   6.910   6.191   4.220
 6759TIP3    H120241   6.882   6.262   4.278
 6759TIP3    H220242   6.997   6.218   4.190
 6760TIP3   OH220243   0.513   5.702   3.783
 6760TIP3    H120244   0.541   5.614   3.756
 6760TIP3    H220245   0.546   5.712   3.872
 6761TIP3   OH220246   5.514   4.176   0.518
 6761TIP3    H120247   5.506   4.262   0.559
 6761TIP3    H220248   5.465   4.185   0.436
 6762TIP3   OH220249   4.719   2.583   1.986
 6762TIP3    H120250   4.643   2.619   2.031
 6762TIP3    H220251   4.722   2.630   1.902
 6763TIP3   OH220252   6.059   1.469   2.342
 6763TIP3    H120253   6.019   1.419   2.271
 6763TIP3    H220254   6.032   1.423   2.422
 6764TIP3   OH220255   4.941   2.740   3.511
 6764TIP3    H120256   4.888   2.813   3.480
 6764TIP3    H220257   4.988   2.710   3.433
 6765TIP3   OH220258   0.253   2.358   5.833
 6765TIP3    H120259   0.188   2.299   5.794
 6765TIP3    H220260   0.335   2.309   5.828
 6766TIP3   OH220261   0.310   5.281   4.615
 6766TIP3    H120262   0.307   5.376   4.629
 6766TIP3    H220263   0.381   5.251   4.672
 6767TIP3   OH220264   3.499   3.863   5.366
 6767TIP3    H120265   3.575   3.840   5.420
 6767TIP3    H220266   3.479   3.954   5.391
 6768TIP3   OH220267   3.400   3.620   4.275
 6768TIP3    H120268   3.320   3.626   4.327
 6768TIP3    H220269   3.373   3.578   4.193
 6769TIP3   OH220270   4.963   0.865   4.290
 6769TIP3    H120271   5.051   0.840   4.262
 6769TIP3    H220272   4.905   0.805   4.245
 6770TIP3   OH220273   3.454   0.517   5.788
 6770TIP3    H120274   3.361   0.525   5.765
 6770TIP3    H220275   3.464   0.425   5.813
 6771TIP3   OH220276   3.554   1.822   2.094
 6771TIP3    H120277   3.605   1.779   2.162
 6771TIP3    H220278   3.520   1.901   2.136
 6772TIP3   OH220279   6.917   0.549   5.858
 6772TIP3    H120280   6.827   0.519   5.844
 6772TIP3    H220281   6.928   0.622   5.797
 6773TIP3   OH220282   3.568   1.778   3.300
 6773TIP3    H120283   3.645   1.775   3.357
 6773TIP3    H220284   3.512   1.846   3.338
 6774TIP3   OH220285   4.510   1.653   5.287
 6774TIP3    H120286   4.572   1.629   5.217
 6774TIP3    H220287   4.546   1.733   5.325
 6775TIP3   OH220288   6.606   0.631   1.707
 6775TIP3    H120289   6.546   0.626   1.782
 6775TIP3    H220290   6.616   0.540   1.678
 6776TIP3   OH220291   5.372   1.604   5.848
 6776TIP3    H120292   5.390   1.631   5.758
 6776TIP3    H220293   5.294   1.549   5.842
 6777TIP3   OH220294   2.888   4.106   0.006
 6777TIP3    H120295   2.816   4.170   0.004
 6777TIP3    H220296   2.912   4.099   0.099
 6778TIP3   OH220297   1.024   3.480   0.796
 6778TIP3    H120298   0.967   3.508   0.867
 6778TIP3    H220299   1.067   3.401   0.830
 6779TIP3   OH220300   3.167   5.445   3.865
 6779TIP3    H120301   3.180   5.504   3.939
 6779TIP3    H220302   3.245   5.455   3.811
 6780TIP3   OH220303   0.999   1.858   3.945
 6780TIP3    H120304   0.962   1.937   3.985
 6780TIP3    H220305   0.926   1.818   3.899
 6781TIP3   OH220306   0.236   1.720   5.355
 6781TIP3    H120307   0.231   1.629   5.385
 6781TIP3    H220308   0.288   1.765   5.421
 6782TIP3   OH220309   4.295   3.773   1.678
 6782TIP3    H120310   4.377   3.746   1.718
 6782TIP3    H220311   4.227   3.748   1.742
 6783TIP3   OH220312   0.533   4.932   2.146
 6783TIP3    H120313   0.438   4.940   2.134
 6783TIP3    H220314   0.544   4.852   2.197
 6784TIP3   OH220315   5.991   4.159   4.487
 6784TIP3    H120316   5.914   4.124   4.532
 6784TIP3    H220317   6.036   4.211   4.554
 6785TIP3   OH220318   4.771   3.385   1.643
 6785TIP3    H120319   4.830   3.394   1.568
 6785TIP3    H220320   4.698   3.333   1.610
 6786TIP3   OH220321   2.200   2.891   1.747
 6786TIP3    H120322   2.134   2.960   1.734
 6786TIP3    H220323   2.195   2.872   1.841
 6787TIP3   OH220324   6.786   2.556   3.778
 6787TIP3    H120325   6.863   2.558   3.834
 6787TIP3    H220326   6.716   2.521   3.833
 6788TIP3   OH220327   7.038   3.514   4.465
 6788TIP3    H120328   7.047   3.436   4.410
 6788TIP3    H220329   7.036   3.480   4.554
 6789TIP3   OH220330   4.301   4.911   2.955
 6789TIP3    H120331   4.340   4.935   3.038
 6789TIP3    H220332   4.375   4.901   2.895
 6790TIP3   OH220333   5.110   0.582   4.774
 6790TIP3    H120334   5.116   0.643   4.847
 6790TIP3    H220335   5.121   0.636   4.696
 6791TIP3   OH220336   5.728   0.354   3.481
 6791TIP3    H120337   5.769   0.272   3.506
 6791TIP3    H220338   5.642   0.352   3.524
 6792TIP3   OH220339   6.276   4.820   3.931
 6792TIP3    H120340   6.302   4.903   3.893
 6792TIP3    H220341   6.181   4.819   3.925
 6793TIP3   OH220342   6.354   0.805   0.386
 6793TIP3    H120343   6.416   0.745   0.427
 6793TIP3    H220344   6.409   0.860   0.329
 6794TIP3   OH220345   0.093   4.398   0.490
 6794TIP3    H120346   0.069   4.397   0.583
 6794TIP3    H220347   0.123   4.487   0.474
 6795TIP3   OH220348   1.103   5.271   3.050
 6795TIP3    H120349   1.074   5.359   3.074
 6795TIP3    H220350   1.168   5.248   3.116
 6796TIP3   OH220351   3.941   6.652   0.547
 6796TIP3    H120352   3.876   6.677   0.613
 6796TIP3    H220353   3.977   6.735   0.516
 6797TIP3   OH220354   6.780   1.562   0.575
 6797TIP3    H120355   6.754   1.653   0.583
 6797TIP3    H220356   6.731   1.516   0.643
 6798TIP3   OH220357   5.988   4.051   1.916
 6798TIP3    H120358   6.036   4.019   1.839
 6798TIP3    H220359   6.023   4.139   1.930
 6799TIP3   OH220360   1.287   2.725   5.415
 6799TIP3    H120361   1.349   2.672   5.364
 6799TIP3    H220362   1.331   2.809   5.425
 6800TIP3   OH220363   4.779   4.974   5.492
 6800TIP3    H120364   4.761   4.881   5.504
 6800TIP3    H220365   4.714   5.003   5.428
 6801TIP3   OH220366   5.607   0.944   1.713
 6801TIP3    H120367   5.529   0.969   1.762
 6801TIP3    H220368   5.645   1.027   1.686
 6802TIP3   OH220369   2.142   6.165   4.687
 6802TIP3    H120370   2.073   6.215   4.643
 6802TIP3    H220371   2.180   6.110   4.618
 6803TIP3   OH220372   2.898   4.416   2.076
 6803TIP3    H120373   2.982   4.449   2.044
 6803TIP3    H220374   2.883   4.464   2.158
 6804TIP3   OH220375   3.117   2.784   0.734
 6804TIP3    H120376   3.022   2.788   0.727
 6804TIP3    H220377   3.138   2.844   0.806
 6805TIP3   OH220378   4.970   4.585   0.171
 6805TIP3    H120379   4.929   4.635   0.242
 6805TIP3    H220380   4.939   4.629   0.091
 6806TIP3   OH220381   1.743   3.971   3.165
 6806TIP3    H120382   1.654   4.005   3.172
 6806TIP3    H220383   1.792   4.042   3.124
 6807TIP3   OH220384   4.299   1.952   1.550
 6807TIP3    H120385   4.306   2.046   1.566
 6807TIP3    H220386   4.289   1.944   1.455
 6808TIP3   OH220387   6.750   0.046   4.615
 6808TIP3    H120388   6.759  -0.039   4.656
 6808TIP3    H220389   6.838   0.085   4.619
 6809TIP3   OH220390   6.657   0.089   0.288
 6809TIP3    H120391   6.703   0.005   0.296
 6809TIP3    H220392   6.698   0.131   0.212
 6810TIP3   OH220393   2.983   1.304   1.489
 6810TIP3    H120394   2.910   1.319   1.429
 6810TIP3    H220395   3.009   1.214   1.473
 6811TIP3   OH220396   4.804   5.871   1.422
 6811TIP3    H120397   4.796   5.779   1.449
 6811TIP3    H220398   4.797   5.869   1.327
 6812TIP3   OH220399   6.318   2.758   5.027
 6812TIP3    H120400   6.395   2.780   5.078
 6812TIP3    H220401   6.352   2.711   4.950
 6813TIP3   OH220402   2.521   4.784   1.316
 6813TIP3    H120403   2.524   4.726   1.239
 6813TIP3    H220404   2.559   4.731   1.387
 6814TIP3   OH220405   4.624   4.149   1.211
 6814TIP3    H120406   4.600   4.197   1.131
 6814TIP3    H220407   4.574   4.067   1.206
 6815TIP3   OH220408   1.548   2.139   2.966
 6815TIP3    H120409   1.633   2.182   2.975
 6815TIP3    H220410   1.489   2.190   3.022
 6816TIP3   OH220411   4.320   0.651   3.351
 6816TIP3    H120412   4.230   0.648   3.320
 6816TIP3    H220413   4.338   0.563   3.383
 6817TIP3   OH220414   1.564   3.703   4.562
 6817TIP3    H120415   1.492   3.763   4.542
 6817TIP3    H220416   1.521   3.627   4.600
 6818TIP3   OH220417   2.494   0.971   0.129
 6818TIP3    H120418   2.580   1.010   0.141
 6818TIP3    H220419   2.502   0.883   0.167
 6819TIP3   OH220420   6.552   3.961   0.319
 6819TIP3    H120421   6.496   4.037   0.335
 6819TIP3    H220422   6.499   3.903   0.265
 6820TIP3   OH220423   1.394   5.978   4.931
 6820TIP3    H120424   1.327   6.041   4.957
 6820TIP3    H220425   1.454   5.974   5.005
 6821TIP3   OH220426   6.827   5.506   4.626
 6821TIP3    H120427   6.861   5.594   4.644
 6821TIP3    H220428   6.735   5.520   4.601
 6822TIP3   OH220429   7.198   5.808   1.119
 6822TIP3    H120430   7.130   5.775   1.060
 6822TIP3    H220431   7.241   5.877   1.069
 6823TIP3   OH220432   6.690   2.850   0.665
 6823TIP3    H120433   6.686   2.835   0.570
 6823TIP3    H220434   6.783   2.841   0.686
 6824TIP3   OH220435   7.118   6.402   0.145
 6824TIP3    H120436   7.204   6.442   0.137
 6824TIP3    H220437   7.092   6.381   0.055
 6825TIP3   OH220438   3.941   0.574   1.192
 6825TIP3    H120439   3.861   0.524   1.205
 6825TIP3    H220440   3.913   0.665   1.194
 6826TIP3   OH220441   6.181   5.437   2.078
 6826TIP3    H120442   6.256   5.379   2.064
 6826TIP3    H220443   6.130   5.394   2.147
 6827TIP3   OH220444   4.704   4.051   4.663
 6827TIP3    H120445   4.736   3.990   4.729
 6827TIP3    H220446   4.782   4.075   4.613
 6828TIP3   OH220447   4.358   5.223   0.880
 6828TIP3    H120448   4.287   5.281   0.907
 6828TIP3    H220449   4.345   5.210   0.786
 6829TIP3   OH220450   2.852   3.107   4.638
 6829TIP3    H120451   2.846   3.032   4.580
 6829TIP3    H220452   2.765   3.113   4.679
 6830TIP3   OH220453   4.850   5.289   3.505
 6830TIP3    H120454   4.782   5.351   3.531
 6830TIP3    H220455   4.932   5.332   3.528
 6831TIP3   OH220456   7.051   6.472   2.546
 6831TIP3    H120457   7.027   6.415   2.618
 6831TIP3    H220458   6.969   6.515   2.520
 6832TIP3   OH220459   6.156   5.442   0.845
 6832TIP3    H120460   6.161   5.366   0.786
 6832TIP3    H220461   6.099   5.412   0.917
 6833TIP3   OH220462   6.498   1.594   0.939
 6833TIP3    H120463   6.414   1.640   0.940
 6833TIP3    H220464   6.500   1.546   1.022
 6834TIP3   OH220465   0.624   3.767   5.600
 6834TIP3    H120466   0.632   3.709   5.675
 6834TIP3    H220467   0.544   3.738   5.555
 6835TIP3   OH220468   6.778   3.862   2.885
 6835TIP3    H120469   6.749   3.775   2.913
 6835TIP3    H220470   6.839   3.845   2.813
 6836TIP3   OH220471   2.875   4.880   4.379
 6836TIP3    H120472   2.801   4.825   4.352
 6836TIP3    H220473   2.836   4.966   4.394
 6837TIP3   OH220474   2.854   0.884   1.530
 6837TIP3    H120475   2.910   0.914   1.458
 6837TIP3    H220476   2.913   0.833   1.586
 6838TIP3   OH220477   0.022   6.197   3.268
 6838TIP3    H120478   0.058   6.153   3.344
 6838TIP3    H220479   0.067   6.282   3.265
 6839TIP3   OH220480   7.069   2.293   0.452
 6839TIP3    H120481   7.091   2.306   0.360
 6839TIP3    H220482   7.026   2.375   0.478
 6840TIP3   OH220483   3.067   5.237   2.629
 6840TIP3    H120484   3.075   5.327   2.599
 6840TIP3    H220485   2.983   5.234   2.676
 6841TIP3   OH220486   4.519   2.321   3.195
 6841TIP3    H120487   4.557   2.371   3.267
 6841TIP3    H220488   4.529   2.378   3.119
 6842TIP3   OH220489   6.789   1.924   5.606
 6842TIP3    H120490   6.737   1.844   5.599
 6842TIP3    H220491   6.797   1.956   5.517
 6843TIP3   OH220492   2.719   0.408   4.613
 6843TIP3    H120493   2.630   0.375   4.600
 6843TIP3    H220494   2.750   0.430   4.525
 6844TIP3   OH220495   5.067   5.797   1.726
 6844TIP3    H120496   5.082   5.735   1.655
 6844TIP3    H220497   5.152   5.837   1.742
 6845TIP3   OH220498   5.800   3.598   3.716
 6845TIP3    H120499   5.706   3.610   3.729
 6845TIP3    H220500   5.810   3.503   3.704
 6846TIP3   OH220501   4.707   6.291   2.120
 6846TIP3    H120502   4.791   6.307   2.162
 6846TIP3    H220503   4.709   6.199   2.096
 6847TIP3   OH220504   0.302   5.339   0.107
 6847TIP3    H120505   0.229   5.282   0.131
 6847TIP3    H220506   0.357   5.343   0.185
 6848TIP3   OH220507   5.486   3.920   2.478
 6848TIP3    H120508   5.549   3.851   2.498
 6848TIP3    H220509   5.464   3.906   2.386
 6849TIP3   OH220510   5.735   2.017   1.386
 6849TIP3    H120511   5.702   2.095   1.340
 6849TIP3    H220512   5.750   2.047   1.476
 6850TIP3   OH220513   6.358   6.603   3.075
 6850TIP3    H120514   6.288   6.666   3.063
 6850TIP3    H220515   6.438   6.653   3.058
 6851TIP3   OH220516   6.511   5.486   4.138
 6851TIP3    H120517   6.493   5.459   4.228
 6851TIP3    H220518   6.585   5.432   4.111
 6852TIP3   OH220519   3.433   3.302   4.284
 6852TIP3    H120520   3.426   3.369   4.216
 6852TIP3    H220521   3.457   3.350   4.363
 6853TIP3   OH220522   5.416   1.828   4.729
 6853TIP3    H120523   5.398   1.919   4.705
 6853TIP3    H220524   5.509   1.829   4.755
 6854TIP3   OH220525   5.610   1.944   3.774
 6854TIP3    H120526   5.701   1.927   3.751
 6854TIP3    H220527   5.595   2.034   3.747
 6855TIP3   OH220528   4.417   0.012   0.565
 6855TIP3    H120529   4.398   0.038   0.475
 6855TIP3    H220530   4.332   0.011   0.608
 6856TIP3   OH220531   5.831   1.605   0.311
 6856TIP3    H120532   5.884   1.684   0.298
 6856TIP3    H220533   5.895   1.534   0.318
 6857TIP3   OH220534   5.255   1.675   2.830
 6857TIP3    H120535   5.351   1.672   2.834
 6857TIP3    H220536   5.227   1.598   2.880
 6858TIP3   OH220537   2.603   3.085   2.781
 6858TIP3    H120538   2.678   3.026   2.786
 6858TIP3    H220539   2.537   3.036   2.731
 6859TIP3   OH220540   5.007   4.624   4.076
 6859TIP3    H120541   5.063   4.697   4.103
 6859TIP3    H220542   4.958   4.601   4.155
 6860TIP3   OH220543   6.465   4.234   5.349
 6860TIP3    H120544   6.456   4.200   5.438
 6860TIP3    H220545   6.560   4.234   5.333
 6861TIP3   OH220546   6.356   0.165   2.547
 6861TIP3    H120547   6.318   0.150   2.460
 6861TIP3    H220548   6.447   0.137   2.538
 6862TIP3   OH220549   0.323   5.586   2.775
 6862TIP3    H120550   0.234   5.579   2.741
 6862TIP3    H220551   0.352   5.495   2.783
 6863TIP3   OH220552   3.238   6.317   3.443
 6863TIP3    H120553   3.163   6.316   3.384
 6863TIP3    H220554   3.200   6.325   3.530
 6864TIP3   OH220555   1.769   6.251   2.450
 6864TIP3    H120556   1.853   6.284   2.419
 6864TIP3    H220557   1.786   6.218   2.538
 6865TIP3   OH220558   2.374   6.296   0.433
 6865TIP3    H120559   2.392   6.202   0.441
 6865TIP3    H220560   2.282   6.301   0.409
 6866TIP3   OH220561   4.403   6.344   4.072
 6866TIP3    H120562   4.436   6.422   4.118
 6866TIP3    H220563   4.395   6.372   3.980
 6867TIP3   OH220564   0.772   0.126   1.784
 6867TIP3    H120565   0.730   0.062   1.841
 6867TIP3    H220566   0.829   0.073   1.727
 6868TIP3   OH220567   5.821   2.477   5.059
 6868TIP3    H120568   5.810   2.465   4.965
 6868TIP3    H220569   5.880   2.552   5.067
 6869TIP3   OH220570   3.543   0.647   0.071
 6869TIP3    H120571   3.486   0.579   0.108
 6869TIP3    H220572   3.528   0.723   0.127
 6870TIP3   OH220573   2.873   5.326   1.560
 6870TIP3    H120574   2.806   5.374   1.607
 6870TIP3    H220575   2.954   5.345   1.607
 6871TIP3   OH220576   0.903   3.899   0.402
 6871TIP3    H120577   0.967   3.865   0.340
 6871TIP3    H220578   0.952   3.960   0.457
 6872TIP3   OH220579   4.208   3.837   1.309
 6872TIP3    H120580   4.290   3.865   1.351
 6872TIP3    H220581   4.143   3.841   1.379
 6873TIP3   OH220582   3.482   3.001   5.800
 6873TIP3    H120583   3.416   2.945   5.841
 6873TIP3    H220584   3.522   3.049   5.872
 6874TIP3   OH220585   1.650   2.889   1.253
 6874TIP3    H120586   1.582   2.824   1.234
 6874TIP3    H220587   1.703   2.848   1.321
 6875TIP3   OH220588   0.186   2.997   0.976
 6875TIP3    H120589   0.134   3.025   1.051
 6875TIP3    H220590   0.123   2.959   0.915
 6876TIP3   OH220591   6.640   5.271   5.822
 6876TIP3    H120592   6.607   5.361   5.834
 6876TIP3    H220593   6.700   5.277   5.747
 6877TIP3   OH220594   3.939   3.333   0.580
 6877TIP3    H120595   3.863   3.391   0.575
 6877TIP3    H220596   3.975   3.348   0.668
 6878TIP3   OH220597   2.095   1.584   2.352
 6878TIP3    H120598   2.164   1.556   2.291
 6878TIP3    H220599   2.037   1.638   2.299
 6879TIP3   OH220600   3.174   4.895   2.184
 6879TIP3    H120601   3.142   4.816   2.140
 6879TIP3    H220602   3.204   4.864   2.269
 6880TIP3   OH220603   2.523   3.965   3.813
 6880TIP3    H120604   2.531   4.047   3.764
 6880TIP3    H220605   2.603   3.960   3.865
 6881TIP3   OH220606   0.406   3.641   3.463
 6881TIP3    H120607   0.330   3.584   3.475
 6881TIP3    H220608   0.410   3.694   3.543
 6882TIP3   OH220609   3.110   5.132   5.427
 6882TIP3    H120610   3.186   5.118   5.371
 6882TIP3    H220611   3.135   5.204   5.485
 6883TIP3   OH220612   1.992   2.468   3.617
 6883TIP3    H120613   1.942   2.512   3.548
 6883TIP3    H220614   2.075   2.516   3.620
 6884TIP3   OH220615   5.275   2.078   2.009
 6884TIP3    H120616   5.247   2.096   2.099
 6884TIP3    H220617   5.228   2.142   1.956
 6885TIP3   OH220618   6.368   1.681   5.129
 6885TIP3    H120619   6.375   1.586   5.123
 6885TIP3    H220620   6.438   1.706   5.190
 6886TIP3   OH220621   3.409   5.861   2.682
 6886TIP3    H120622   3.425   5.923   2.611
 6886TIP3    H220623   3.399   5.915   2.760
 6887TIP3   OH220624   3.880   2.050   4.242
 6887TIP3    H120625   3.876   2.144   4.261
 6887TIP3    H220626   3.972   2.027   4.254
 6888TIP3   OH220627   3.987   0.786   4.857
 6888TIP3    H120628   4.080   0.792   4.834
 6888TIP3    H220629   3.959   0.702   4.820
 6889TIP3   OH220630   3.026   4.413   0.962
 6889TIP3    H120631   2.982   4.494   0.936
 6889TIP3    H220632   3.094   4.402   0.896
 6890TIP3   OH220633   4.845   1.151   1.983
 6890TIP3    H120634   4.781   1.204   1.936
 6890TIP3    H220635   4.918   1.210   2.001
 6891TIP3   OH220636   2.172   0.052   4.046
 6891TIP3    H120637   2.255   0.009   4.028
 6891TIP3    H220638   2.165   0.053   4.141
 6892TIP3   OH220639   2.727   6.132   0.018
 6892TIP3    H120640   2.732   6.036   0.023
 6892TIP3    H220641   2.735   6.160   0.110
 6893TIP3   OH220642   0.153   2.620   4.919
 6893TIP3    H120643   0.131   2.556   4.987
 6893TIP3    H220644   0.248   2.624   4.919
 6894TIP3   OH220645   5.976   5.224   3.317
 6894TIP3    H120646   5.916   5.204   3.246
 6894TIP3    H220647   6.028   5.298   3.284
 6895TIP3   OH220648   5.003   6.822   1.698
 6895TIP3    H120649   5.019   6.834   1.792
 6895TIP3    H220650   5.060   6.749   1.673
 6896TIP3   OH220651   3.891   5.558   4.959
 6896TIP3    H120652   3.952   5.566   4.886
 6896TIP3    H220653   3.845   5.476   4.943
 6897TIP3   OH220654   0.992   6.247   5.710
 6897TIP3    H120655   1.040   6.322   5.744
 6897TIP3    H220656   0.947   6.210   5.786
 6898TIP3   OH220657   6.173   0.257   1.517
 6898TIP3    H120658   6.180   0.180   1.461
 6898TIP3    H220659   6.150   0.222   1.603
 6899TIP3   OH220660   1.494   6.161   1.331
 6899TIP3    H120661   1.570   6.218   1.338
 6899TIP3    H220662   1.531   6.074   1.317
 6900TIP3   OH220663   4.555   1.661   5.619
 6900TIP3    H120664   4.471   1.684   5.580
 6900TIP3    H220665   4.538   1.655   5.713
 6901TIP3   OH220666   4.056   3.494   0.064
 6901TIP3    H120667   4.012   3.437   0.128
 6901TIP3    H220668   3.986   3.527   0.008
 6902TIP3   OH220669   5.649   4.232   3.279
 6902TIP3    H120670   5.672   4.298   3.215
 6902TIP3    H220671   5.686   4.264   3.361
 6903TIP3   OH220672   2.268   1.163   4.609
 6903TIP3    H120673   2.294   1.190   4.697
 6903TIP3    H220674   2.339   1.194   4.552
 6904TIP3   OH220675   6.161   5.208   0.682
 6904TIP3    H120676   6.092   5.142   0.691
 6904TIP3    H220677   6.190   5.200   0.592
 6905TIP3   OH220678   6.588   3.309   0.397
 6905TIP3    H120679   6.537   3.261   0.463
 6905TIP3    H220680   6.652   3.358   0.448
 6906TIP3   OH220681   6.785   4.501   3.180
 6906TIP3    H120682   6.711   4.560   3.168
 6906TIP3    H220683   6.806   4.506   3.273
 6907TIP3   OH220684   4.433   2.868   3.498
 6907TIP3    H120685   4.482   2.884   3.418
 6907TIP3    H220686   4.439   2.774   3.511
 6908TIP3   OH220687   5.181   3.355   3.862
 6908TIP3    H120688   5.245   3.388   3.926
 6908TIP3    H220689   5.102   3.340   3.913
 6909TIP3   OH220690   1.607   5.320   2.962
 6909TIP3    H120691   1.529   5.286   2.918
 6909TIP3    H220692   1.572   5.371   3.036
 6910TIP3   OH220693   5.706   4.900   5.720
 6910TIP3    H120694   5.667   4.905   5.807
 6910TIP3    H220695   5.643   4.944   5.663
 6911TIP3   OH220696   1.438   1.737   1.198
 6911TIP3    H120697   1.355   1.743   1.150
 6911TIP3    H220698   1.434   1.654   1.244
 6912TIP3   OH220699   3.607   4.158   1.722
 6912TIP3    H120700   3.643   4.105   1.651
 6912TIP3    H220701   3.586   4.242   1.682
 6913TIP3   OH220702   4.187   3.269   2.422
 6913TIP3    H120703   4.238   3.334   2.470
 6913TIP3    H220704   4.253   3.215   2.379
 6914TIP3   OH220705   2.004   4.749   0.024
 6914TIP3    H120706   1.974   4.838   0.042
 6914TIP3    H220707   2.031   4.715   0.109
 6915TIP3   OH220708   2.049   3.874   5.866
 6915TIP3    H120709   2.143   3.859   5.881
 6915TIP3    H220710   2.046   3.954   5.813
 6916TIP3   OH220711   1.861   5.229   2.002
 6916TIP3    H120712   1.847   5.211   1.909
 6916TIP3    H220713   1.852   5.143   2.044
 6917TIP3   OH220714   4.315   0.287   0.723
 6917TIP3    H120715   4.366   0.367   0.706
 6917TIP3    H220716   4.262   0.275   0.644
 6918TIP3   OH220717   6.897   0.031   5.615
 6918TIP3    H120718   6.802   0.019   5.609
 6918TIP3    H220719   6.908   0.122   5.643
 6919TIP3   OH220720   5.559   3.241   0.179
 6919TIP3    H120721   5.590   3.296   0.251
 6919TIP3    H220722   5.529   3.160   0.221
 6920TIP3   OH220723   2.696   3.210   1.641
 6920TIP3    H120724   2.711   3.289   1.693
 6920TIP3    H220725   2.601   3.199   1.641
 6921TIP3   OH220726   6.749   2.395   2.917
 6921TIP3    H120727   6.665   2.396   2.962
 6921TIP3    H220728   6.728   2.414   2.826
 6922TIP3   OH220729   2.280   3.432   3.411
 6922TIP3    H120730   2.355   3.491   3.407
 6922TIP3    H220731   2.281   3.386   3.327
 6923TIP3   OH220732   3.347   6.141   2.146
 6923TIP3    H120733   3.328   6.161   2.054
 6923TIP3    H220734   3.319   6.051   2.158
 6924TIP3   OH220735   5.622   1.666   1.896
 6924TIP3    H120736   5.639   1.599   1.830
 6924TIP3    H220737   5.631   1.749   1.849
 6925TIP3   OH220738   4.820   1.399   1.485
 6925TIP3    H120739   4.809   1.482   1.439
 6925TIP3    H220740   4.898   1.412   1.539
 6926TIP3   OH220741   3.638   1.969   0.848
 6926TIP3    H120742   3.591   1.908   0.906
 6926TIP3    H220743   3.571   2.000   0.788
 6927TIP3   OH220744   3.845   5.067   3.668
 6927TIP3    H120745   3.919   5.013   3.637
 6927TIP3    H220746   3.775   5.003   3.684
 6928TIP3   OH220747   1.580   4.047   0.779
 6928TIP3    H120748   1.535   4.131   0.768
 6928TIP3    H220749   1.660   4.069   0.827
 6929TIP3   OH220750   2.476   1.702   3.776
 6929TIP3    H120751   2.416   1.749   3.718
 6929TIP3    H220752   2.482   1.614   3.738
 6930TIP3   OH220753   2.117   4.638   0.250
 6930TIP3    H120754   2.164   4.676   0.324
 6930TIP3    H220755   2.186   4.602   0.194
 6931TIP3   OH220756   5.800   2.036   2.409
 6931TIP3    H120757   5.750   2.009   2.332
 6931TIP3    H220758   5.781   1.970   2.475
 6932TIP3   OH220759   5.154   5.359   4.324
 6932TIP3    H120760   5.223   5.310   4.279
 6932TIP3    H220761   5.137   5.310   4.404
 6933TIP3   OH220762   1.149   6.743   3.591
 6933TIP3    H120763   1.217   6.739   3.524
 6933TIP3    H220764   1.146   6.654   3.626
 6934TIP3   OH220765   3.423   6.183   3.194
 6934TIP3    H120766   3.414   6.156   3.285
 6934TIP3    H220767   3.333   6.187   3.161
 6935TIP3   OH220768   5.407   6.495   3.459
 6935TIP3    H120769   5.377   6.509   3.548
 6935TIP3    H220770   5.503   6.489   3.466
 6936TIP3   OH220771   5.032   5.889   0.717
 6936TIP3    H120772   5.046   5.816   0.778
 6936TIP3    H220773   4.940   5.912   0.728
 6937TIP3   OH220774   0.247   3.878   4.231
 6937TIP3    H120775   0.228   3.786   4.209
 6937TIP3    H220776   0.321   3.873   4.291
 6938TIP3   OH220777   6.651   0.010   5.173
 6938TIP3    H120778   6.621   0.021   5.083
 6938TIP3    H220779   6.591  -0.054   5.211
 6939TIP3   OH220780   1.284   4.345   1.562
 6939TIP3    H120781   1.292   4.385   1.649
 6939TIP3    H220782   1.350   4.389   1.509
 6940TIP3   OH220783   6.311   3.903   3.281
 6940TIP3    H120784   6.234   3.846   3.274
 6940TIP3    H220785   6.284   3.985   3.239
 6941TIP3   OH220786   3.452   0.206   3.551
 6941TIP3    H120787   3.501   0.212   3.469
 6941TIP3    H220788   3.480   0.123   3.590
 6942TIP3   OH220789   0.150   1.005   5.093
 6942TIP3    H120790   0.106   0.982   5.011
 6942TIP3    H220791   0.128   0.934   5.153
 6943TIP3   OH220792   5.649   3.158   4.781
 6943TIP3    H120793   5.720   3.097   4.762
 6943TIP3    H220794   5.679   3.206   4.859
 6944TIP3   OH220795   4.054   5.972   4.533
 6944TIP3    H120796   4.113   6.024   4.480
 6944TIP3    H220797   4.062   5.883   4.497
 6945TIP3   OH220798   2.736   3.917   2.929
 6945TIP3    H120799   2.730   3.939   2.836
 6945TIP3    H220800   2.792   3.839   2.931
 6946TIP3   OH220801   1.171   0.575   2.171
 6946TIP3    H120802   1.158   0.482   2.154
 6946TIP3    H220803   1.154   0.585   2.265
 6947TIP3   OH220804   4.049   1.822   2.484
 6947TIP3    H120805   4.140   1.836   2.460
 6947TIP3    H220806   4.005   1.905   2.463
 6948TIP3   OH220807   7.079   1.073   5.679
 6948TIP3    H120808   7.131   1.077   5.599
 6948TIP3    H220809   6.993   1.042   5.649
 6949TIP3   OH220810   5.592   2.825   2.686
 6949TIP3    H120811   5.574   2.735   2.712
 6949TIP3    H220812   5.522   2.876   2.728
 6950TIP3   OH220813   4.563   2.184   5.450
 6950TIP3    H120814   4.632   2.248   5.469
 6950TIP3    H220815   4.489   2.212   5.504
 6951TIP3   OH220816   7.133   3.666   5.793
 6951TIP3    H120817   7.124   3.571   5.781
 6951TIP3    H220818   7.097   3.703   5.712
 6952TIP3   OH220819   5.939   1.045   0.153
 6952TIP3    H120820   6.027   1.067   0.183
 6952TIP3    H220821   5.949   1.028   0.059
 6953TIP3   OH220822   5.213   3.574   5.753
 6953TIP3    H120823   5.150   3.504   5.735
 6953TIP3    H220824   5.270   3.538   5.821
 6954TIP3   OH220825   0.957   5.415   1.577
 6954TIP3    H120826   0.871   5.457   1.590
 6954TIP3    H220827   1.013   5.456   1.642
 6955TIP3   OH220828   0.648   2.887   3.876
 6955TIP3    H120829   0.637   2.885   3.781
 6955TIP3    H220830   0.561   2.906   3.910
 6956TIP3   OH220831   5.326   4.959   0.842
 6956TIP3    H120832   5.291   5.045   0.819
 6956TIP3    H220833   5.361   4.970   0.930
 6957TIP3   OH220834   6.814   0.062   1.378
 6957TIP3    H120835   6.838  -0.031   1.382
 6957TIP3    H220836   6.718   0.062   1.372
 6958TIP3   OH220837   2.650   1.077   1.275
 6958TIP3    H120838   2.698   0.998   1.252
 6958TIP3    H220839   2.565   1.047   1.305
 6959TIP3   OH220840   0.392   1.393   4.615
 6959TIP3    H120841   0.347   1.386   4.699
 6959TIP3    H220842   0.400   1.487   4.599
 6960TIP3   OH220843   1.547   3.917   4.165
 6960TIP3    H120844   1.639   3.944   4.171
 6960TIP3    H220845   1.531   3.869   4.246
 6961TIP3   OH220846   4.791   2.050   4.906
 6961TIP3    H120847   4.704   2.015   4.928
 6961TIP3    H220848   4.852   1.983   4.938
 6962TIP3   OH220849   2.079   4.950   2.530
 6962TIP3    H120850   2.088   5.028   2.475
 6962TIP3    H220851   2.126   4.881   2.482
 6963TIP3   OH220852   6.058   0.614   3.168
 6963TIP3    H120853   6.119   0.663   3.223
 6963TIP3    H220854   6.092   0.525   3.167
 6964TIP3   OH220855   5.251   0.940   3.484
 6964TIP3    H120856   5.253   1.026   3.441
 6964TIP3    H220857   5.338   0.904   3.470
 6965TIP3   OH220858   6.259   0.767   1.076
 6965TIP3    H120859   6.258   0.832   1.006
 6965TIP3    H220860   6.337   0.789   1.128
 6966TIP3   OH220861   7.071   3.289   0.843
 6966TIP3    H120862   7.149   3.331   0.806
 6966TIP3    H220863   7.070   3.202   0.804
 6967TIP3   OH220864   2.627   4.020   4.435
 6967TIP3    H120865   2.637   3.983   4.523
 6967TIP3    H220866   2.540   3.993   4.408
 6968TIP3   OH220867   6.268   3.247   5.856
 6968TIP3    H120868   6.297   3.171   5.807
 6968TIP3    H220869   6.275   3.320   5.795
 6969TIP3   OH220870   4.035   0.508   0.923
 6969TIP3    H120871   4.069   0.419   0.905
 6969TIP3    H220872   4.015   0.508   1.016
 6970TIP3   OH220873   1.447   4.957   2.334
 6970TIP3    H120874   1.415   4.906   2.408
 6970TIP3    H220875   1.376   4.955   2.270
 6971TIP3   OH220876   3.681   4.993   0.002
 6971TIP3    H120877   3.774   4.998  -0.019
 6971TIP3    H220878   3.678   4.959   0.092
 6972TIP3   OH220879   3.708   0.419   3.584
 6972TIP3    H120880   3.628   0.472   3.584
 6972TIP3    H220881   3.705   0.371   3.501
 6973TIP3   OH220882   1.292   5.942   5.365
 6973TIP3    H120883   1.331   6.008   5.307
 6973TIP3    H220884   1.242   5.993   5.429
 6974TIP3   OH220885   4.141   5.598   0.206
 6974TIP3    H120886   4.081   5.570   0.276
 6974TIP3    H220887   4.101   5.562   0.126
 6975TIP3   OH220888   5.981   3.869   2.351
 6975TIP3    H120889   5.996   3.777   2.329
 6975TIP3    H220890   6.066   3.911   2.337
 6976TIP3   OH220891   1.139   2.983   2.662
 6976TIP3    H120892   1.122   2.991   2.756
 6976TIP3    H220893   1.155   2.890   2.649
 6977TIP3   OH220894   3.283   3.170   5.606
 6977TIP3    H120895   3.369   3.129   5.594
 6977TIP3    H220896   3.225   3.097   5.628
 6978TIP3   OH220897   1.076   4.223   0.263
 6978TIP3    H120898   1.098   4.294   0.203
 6978TIP3    H220899   1.059   4.148   0.206
 6979TIP3   OH220900   2.819   3.105   1.038
 6979TIP3    H120901   2.801   3.120   0.945
 6979TIP3    H220902   2.748   3.152   1.084
 6980TIP3   OH220903   2.994   5.759   1.088
 6980TIP3    H120904   3.007   5.694   1.020
 6980TIP3    H220905   2.919   5.810   1.060
 6981TIP3   OH220906   5.287   5.350   5.784
 6981TIP3    H120907   5.247   5.391   5.707
 6981TIP3    H220908   5.269   5.257   5.773
 6982TIP3   OH220909   6.437   1.289   0.275
 6982TIP3    H120910   6.514   1.344   0.262
 6982TIP3    H220911   6.447   1.254   0.363
 6983TIP3   OH220912   2.114   5.693   4.872
 6983TIP3    H120913   2.204   5.725   4.886
 6983TIP3    H220914   2.072   5.703   4.958
 6984TIP3   OH220915   6.152   1.253   4.769
 6984TIP3    H120916   6.203   1.310   4.712
 6984TIP3    H220917   6.062   1.285   4.761
 6985TIP3   OH220918   0.241   5.383   2.586
 6985TIP3    H120919   0.253   5.303   2.637
 6985TIP3    H220920   0.149   5.383   2.561
 6986TIP3   OH220921   2.479   3.091   2.181
 6986TIP3    H120922   2.384   3.094   2.189
 6986TIP3    H220923   2.506   3.183   2.181
 6987TIP3   OH220924   2.959   1.616   2.800
 6987TIP3    H120925   2.973   1.662   2.883
 6987TIP3    H220926   2.989   1.678   2.734
 6988TIP3   OH220927   0.904   3.104   3.131
 6988TIP3    H120928   0.969   3.159   3.174
 6988TIP3    H220929   0.829   3.162   3.116
 6989TIP3   OH220930   4.589   2.603   0.732
 6989TIP3    H120931   4.566   2.695   0.747
 6989TIP3    H220932   4.682   2.597   0.754
 6990TIP3   OH220933   2.749   4.182   4.909
 6990TIP3    H120934   2.688   4.255   4.914
 6990TIP3    H220935   2.726   4.126   4.984
 6991TIP3   OH220936   3.750   5.328   0.139
 6991TIP3    H120937   3.721   5.310   0.049
 6991TIP3    H220938   3.712   5.413   0.159
 6992TIP3   OH220939   2.922   4.074   5.780
 6992TIP3    H120940   2.945   4.159   5.817
 6992TIP3    H220941   2.931   4.013   5.853
 6993TIP3   OH220942   2.937   5.359   1.279
 6993TIP3    H120943   3.004   5.422   1.306
 6993TIP3    H220944   2.872   5.361   1.349
 6994TIP3   OH220945   4.072   0.556   3.309
 6994TIP3    H120946   3.994   0.510   3.279
 6994TIP3    H220947   4.064   0.557   3.404
 6995TIP3   OH220948   0.880   6.425   1.373
 6995TIP3    H120949   0.931   6.481   1.432
 6995TIP3    H220950   0.910   6.336   1.393
 6996TIP3   OH220951   5.238   0.297   0.981
 6996TIP3    H120952   5.199   0.278   1.066
 6996TIP3    H220953   5.325   0.331   1.001
 6997TIP3   OH220954   3.745   3.645   4.937
 6997TIP3    H120955   3.684   3.642   4.864
 6997TIP3    H220956   3.695   3.683   5.009
 6998TIP3   OH220957   2.183   2.396   1.362
 6998TIP3    H120958   2.147   2.394   1.273
 6998TIP3    H220959   2.111   2.428   1.416
 6999TIP3   OH220960   0.404   6.632   1.579
 6999TIP3    H120961   0.332   6.670   1.629
 6999TIP3    H220962   0.362   6.577   1.513
 7000TIP3   OH220963   6.797   5.110   4.201
 7000TIP3    H120964   6.708   5.141   4.217
 7000TIP3    H220965   6.817   5.056   4.277
 7001TIP3   OH220966   7.039   5.380   1.549
 7001TIP3    H120967   7.107   5.368   1.483
 7001TIP3    H220968   7.082   5.425   1.621
 7002TIP3   OH220969   3.651   6.183   1.384
 7002TIP3    H120970   3.587   6.125   1.343
 7002TIP3    H220971   3.624   6.271   1.357
 7003TIP3   OH220972   0.158   1.862   3.918
 7003TIP3    H120973   0.136   1.888   4.008
 7003TIP3    H220974   0.222   1.791   3.929
 7004TIP3   OH220975   3.774   1.745   0.779
 7004TIP3    H120976   3.756   1.691   0.855
 7004TIP3    H220977   3.727   1.826   0.795
 7005TIP3   OH220978   2.041   3.884   4.894
 7005TIP3    H120979   1.998   3.960   4.933
 7005TIP3    H220980   1.987   3.863   4.817
 7006TIP3   OH220981   6.427   6.416   3.854
 7006TIP3    H120982   6.434   6.459   3.768
 7006TIP3    H220983   6.342   6.443   3.887
 7007TIP3   OH220984   0.339   4.319   1.990
 7007TIP3    H120985   0.416   4.356   1.947
 7007TIP3    H220986   0.272   4.387   1.981
 7008TIP3   OH220987   6.067   0.887   5.112
 7008TIP3    H120988   6.092   0.978   5.096
 7008TIP3    H220989   6.089   0.841   5.031
 7009TIP3   OH220990   4.246   0.188   5.228
 7009TIP3    H120991   4.227   0.277   5.196
 7009TIP3    H220992   4.332   0.196   5.269
 7010TIP3   OH220993   0.367   5.445   0.585
 7010TIP3    H120994   0.443   5.428   0.640
 7010TIP3    H220995   0.316   5.510   0.632
 7011TIP3   OH220996   3.728   4.498   3.298
 7011TIP3    H120997   3.820   4.525   3.293
 7011TIP3    H220998   3.714   4.448   3.217
 7012TIP3   OH220999   6.230   2.778   2.955
 7012TIP3    H121000   6.260   2.693   2.987
 7012TIP3    H221001   6.219   2.831   3.034
 7013TIP3   OH221002   5.258   2.856   2.104
 7013TIP3    H121003   5.350   2.882   2.095
 7013TIP3    H221004   5.261   2.761   2.116
 7014TIP3   OH221005   5.486   3.960   1.880
 7014TIP3    H121006   5.458   3.957   1.971
 7014TIP3    H221007   5.561   3.899   1.876
 7015TIP3   OH221008   2.539   5.832   3.333
 7015TIP3    H121009   2.477   5.783   3.387
 7015TIP3    H221010   2.617   5.840   3.386
 7016TIP3   OH221011   5.007   1.878   4.169
 7016TIP3    H121012   4.994   1.859   4.262
 7016TIP3    H221013   4.923   1.914   4.140
 7017TIP3   OH221014   2.949   1.206   0.691
 7017TIP3    H121015   2.899   1.228   0.612
 7017TIP3    H221016   2.887   1.159   0.747
 7018TIP3   OH221017   2.186   0.417   2.204
 7018TIP3    H121018   2.095   0.414   2.173
 7018TIP3    H221019   2.208   0.510   2.201
 7019TIP3   OH221020   4.341   1.781   3.612
 7019TIP3    H121021   4.336   1.785   3.516
 7019TIP3    H221022   4.266   1.832   3.642
 7020TIP3   OH221023   6.134   6.437   3.464
 7020TIP3    H121024   6.176   6.510   3.509
 7020TIP3    H221025   6.143   6.363   3.524
 7021TIP3   OH221026   2.960   5.738   1.349
 7021TIP3    H121027   2.989   5.740   1.258
 7021TIP3    H221028   2.995   5.656   1.384
 7022TIP3   OH221029   4.197   2.747   0.572
 7022TIP3    H121030   4.119   2.694   0.557
 7022TIP3    H221031   4.266   2.703   0.522
 7023TIP3   OH221032   2.065   1.389   3.999
 7023TIP3    H121033   2.110   1.369   4.081
 7023TIP3    H221034   1.996   1.451   4.024
 7024TIP3   OH221035   0.151   1.510   2.586
 7024TIP3    H121036   0.199   1.550   2.513
 7024TIP3    H221037   0.119   1.585   2.637
 7025TIP3   OH221038   1.263   0.738   1.394
 7025TIP3    H121039   1.352   0.759   1.365
 7025TIP3    H221040   1.248   0.649   1.361
 7026TIP3   OH221041   1.589   0.513   0.833
 7026TIP3    H121042   1.603   0.562   0.752
 7026TIP3    H221043   1.542   0.434   0.807
 7027TIP3   OH221044   1.746   5.380   3.230
 7027TIP3    H121045   1.737   5.287   3.252
 7027TIP3    H221046   1.821   5.384   3.171
 7028TIP3   OH221047   0.744   5.143   0.146
 7028TIP3    H121048   0.824   5.100   0.117
 7028TIP3    H221049   0.688   5.143   0.069
 7029TIP3   OH221050   2.401   1.227   0.947
 7029TIP3    H121051   2.438   1.295   1.004
 7029TIP3    H221052   2.415   1.146   0.995
 7030TIP3   OH221053   4.052   0.206   3.037
 7030TIP3    H121054   4.084   0.278   2.984
 7030TIP3    H221055   3.987   0.246   3.096
 7031TIP3   OH221056   3.002   0.595   4.170
 7031TIP3    H121057   2.999   0.505   4.202
 7031TIP3    H221058   3.076   0.598   4.110
 7032TIP3   OH221059   0.667   3.789   0.336
 7032TIP3    H121060   0.643   3.711   0.385
 7032TIP3    H221061   0.737   3.829   0.387
 7033TIP3   OH221062   2.493   5.203   3.274
 7033TIP3    H121063   2.578   5.185   3.314
 7033TIP3    H221064   2.470   5.291   3.305
 7034TIP3   OH221065   6.252   0.554   0.572
 7034TIP3    H121066   6.270   0.528   0.662
 7034TIP3    H221067   6.182   0.620   0.580
 7035TIP3   OH221068   4.075   1.038   5.780
 7035TIP3    H121069   4.031   0.978   5.840
 7035TIP3    H221070   4.089   1.118   5.831
 7036TIP3   OH221071   4.090   6.433   4.172
 7036TIP3    H121072   4.065   6.385   4.092
 7036TIP3    H221073   4.019   6.415   4.233
 7037TIP3   OH221074   1.281   0.705   4.152
 7037TIP3    H121075   1.318   0.663   4.230
 7037TIP3    H221076   1.260   0.794   4.181
 7038TIP3   OH221077   3.901   0.275   1.091
 7038TIP3    H121078   3.940   0.197   1.051
 7038TIP3    H221079   3.938   0.278   1.179
 7039TIP3   OH221080   3.780   4.926   1.845
 7039TIP3    H121081   3.703   4.883   1.808
 7039TIP3    H221082   3.796   4.879   1.928
 7040TIP3   OH221083   1.693   4.670   5.136
 7040TIP3    H121084   1.728   4.755   5.162
 7040TIP3    H221085   1.670   4.681   5.044
 7041TIP3   OH221086   7.103   6.586   4.266
 7041TIP3    H121087   7.121   6.625   4.180
 7041TIP3    H221088   7.010   6.602   4.281
 7042TIP3   OH221089   5.253   5.872   5.727
 7042TIP3    H121090   5.242   5.967   5.732
 7042TIP3    H221091   5.312   5.858   5.653
 7043TIP3   OH221092   0.049   0.817   3.476
 7043TIP3    H121093   0.001   0.800   3.557
 7043TIP3    H221094   0.076   0.908   3.482
 7044TIP3   OH221095   5.525   5.917   1.404
 7044TIP3    H121096   5.593   5.909   1.337
 7044TIP3    H221097   5.443   5.902   1.357
 7045TIP3   OH221098   6.932   4.902   3.403
 7045TIP3    H121099   7.003   4.893   3.467
 7045TIP3    H221100   6.940   4.992   3.372
 7046TIP3   OH221101   5.324   5.197   4.185
 7046TIP3    H121102   5.410   5.237   4.180
 7046TIP3    H221103   5.341   5.106   4.209
 7047TIP3   OH221104   5.198   3.015   2.608
 7047TIP3    H121105   5.209   3.103   2.646
 7047TIP3    H221106   5.152   3.030   2.526
 7048TIP3   OH221107   3.025   1.300   5.403
 7048TIP3    H121108   3.065   1.213   5.407
 7048TIP3    H221109   3.027   1.323   5.311
 7049TIP3   OH221110   4.799   5.795   0.786
 7049TIP3    H121111   4.797   5.725   0.721
 7049TIP3    H221112   4.843   5.756   0.861
 7050TIP3   OH221113   2.470   2.201   0.454
 7050TIP3    H121114   2.421   2.125   0.422
 7050TIP3    H221115   2.421   2.276   0.420
 7051TIP3   OH221116   0.571   0.181   1.208
 7051TIP3    H121117   0.640   0.198   1.272
 7051TIP3    H221118   0.600   0.225   1.129
 7052TIP3   OH221119   0.123   3.970   2.640
 7052TIP3    H121120   0.216   3.985   2.655
 7052TIP3    H221121   0.117   3.950   2.546
 7053TIP3   OH221122   1.746   1.228   4.479
 7053TIP3    H121123   1.743   1.234   4.574
 7053TIP3    H221124   1.839   1.216   4.458
 7054TIP3   OH221125   0.106   4.646   4.014
 7054TIP3    H121126   0.048   4.704   4.062
 7054TIP3    H221127   0.097   4.561   4.057
 7055TIP3   OH221128   0.775   1.172   2.409
 7055TIP3    H121129   0.757   1.081   2.387
 7055TIP3    H221130   0.690   1.216   2.401
 7056TIP3   OH221131   0.221   6.145   4.008
 7056TIP3    H121132   0.269   6.086   3.950
 7056TIP3    H221133   0.282   6.218   4.022
 7057TIP3   OH221134   3.486   0.009   3.000
 7057TIP3    H121135   3.579   0.001   2.977
 7057TIP3    H221136   3.478   0.097   3.036
 7058TIP3   OH221137   3.136   4.818   4.398
 7058TIP3    H121138   3.184   4.885   4.348
 7058TIP3    H221139   3.045   4.847   4.396
 7059TIP3   OH221140   3.613   5.341   1.393
 7059TIP3    H121141   3.571   5.303   1.315
 7059TIP3    H221142   3.679   5.401   1.358
 7060TIP3   OH221143   4.481   5.961   1.749
 7060TIP3    H121144   4.461   6.042   1.796
 7060TIP3    H221145   4.527   5.990   1.670
 7061TIP3   OH221146   0.517   6.689   3.182
 7061TIP3    H121147   0.556   6.754   3.124
 7061TIP3    H221148   0.578   6.615   3.181
 7062TIP3   OH221149   4.623   5.354   5.049
 7062TIP3    H121150   4.709   5.393   5.033
 7062TIP3    H221151   4.560   5.423   5.030
 7063TIP3   OH221152   2.653   2.992   3.421
 7063TIP3    H121153   2.747   2.975   3.424
 7063TIP3    H221154   2.626   2.964   3.334
 7064TIP3   OH221155   3.700   4.565   4.990
 7064TIP3    H121156   3.683   4.641   5.045
 7064TIP3    H221157   3.646   4.495   5.028
 7065TIP3   OH221158   4.259   0.083   2.047
 7065TIP3    H121159   4.185   0.068   1.989
 7065TIP3    H221160   4.231   0.045   2.131
 7066TIP3   OH221161   5.478   3.656   4.554
 7066TIP3    H121162   5.503   3.611   4.635
 7066TIP3    H221163   5.561   3.690   4.519
 7067TIP3   OH221164   4.009   0.531   4.761
 7067TIP3    H121165   4.104   0.522   4.748
 7067TIP3    H221166   3.971   0.489   4.684
 7068TIP3   OH221167   0.396   3.784   0.820
 7068TIP3    H121168   0.303   3.763   0.814
 7068TIP3    H221169   0.418   3.823   0.736
 7069TIP3   OH221170   1.842   4.296   2.945
 7069TIP3    H121171   1.887   4.243   3.011
 7069TIP3    H221172   1.858   4.250   2.863
 7070TIP3   OH221173   2.423   1.033   5.414
 7070TIP3    H121174   2.358   1.057   5.348
 7070TIP3    H221175   2.371   1.012   5.492
 7071TIP3   OH221176   5.295   5.978   3.351
 7071TIP3    H121177   5.257   5.996   3.266
 7071TIP3    H221178   5.390   5.986   3.337
 7072TIP3   OH221179   4.029   5.759   3.925
 7072TIP3    H121180   3.978   5.803   3.993
 7072TIP3    H221181   3.979   5.773   3.844
 7073TIP3   OH221182   4.976   5.832   2.178
 7073TIP3    H121183   4.964   5.836   2.083
 7073TIP3    H221184   4.989   5.739   2.196
 7074TIP3   OH221185   3.152   2.933   5.689
 7074TIP3    H121186   3.111   2.881   5.757
 7074TIP3    H221187   3.197   2.870   5.633
 7075TIP3   OH221188   6.879   2.061   0.804
 7075TIP3    H121189   6.857   2.087   0.715
 7075TIP3    H221190   6.852   2.136   0.858
 7076TIP3   OH221191   5.360   6.169   0.396
 7076TIP3    H121192   5.299   6.102   0.364
 7076TIP3    H221193   5.304   6.237   0.434
 7077TIP3   OH221194   0.698   4.526   5.371
 7077TIP3    H121195   0.610   4.536   5.336
 7077TIP3    H221196   0.686   4.527   5.466
 7078TIP3   OH221197   4.499   5.340   4.212
 7078TIP3    H121198   4.524   5.330   4.120
 7078TIP3    H221199   4.508   5.253   4.250
 7079TIP3   OH221200   5.853   6.520   5.042
 7079TIP3    H121201   5.869   6.456   5.111
 7079TIP3    H221202   5.760   6.510   5.021
 7080TIP3   OH221203   3.114   0.757   5.032
 7080TIP3    H121204   3.096   0.850   5.019
 7080TIP3    H221205   3.078   0.714   4.954
 7081TIP3   OH221206   6.163   0.537   4.379
 7081TIP3    H121207   6.219   0.509   4.451
 7081TIP3    H221208   6.081   0.565   4.421
 7082TIP3   OH221209   0.622   2.434   1.206
 7082TIP3    H121210   0.607   2.504   1.142
 7082TIP3    H221211   0.710   2.402   1.187
 7083TIP3   OH221212   2.694   2.933   1.372
 7083TIP3    H121213   2.672   2.893   1.288
 7083TIP3    H221214   2.613   2.927   1.423
 7084TIP3   OH221215   1.908   4.249   2.166
 7084TIP3    H121216   1.880   4.200   2.089
 7084TIP3    H221217   1.837   4.238   2.229
 7085TIP3   OH221218   6.151   4.885   5.362
 7085TIP3    H121219   6.220   4.949   5.376
 7085TIP3    H221220   6.083   4.909   5.425
 7086TIP3   OH221221  -0.074   6.571   1.044
 7086TIP3    H121222  -0.108   6.482   1.058
 7086TIP3    H221223  -0.047   6.572   0.953
 7087TIP3   OH221224   0.805   5.683   1.877
 7087TIP3    H121225   0.837   5.628   1.949
 7087TIP3    H221226   0.716   5.707   1.904
 7088TIP3   OH221227   5.894   5.603   4.372
 7088TIP3    H121228   5.846   5.568   4.447
 7088TIP3    H221229   5.953   5.532   4.346
 7089TIP3   OH221230   0.727   2.633   1.395
 7089TIP3    H121231   0.660   2.576   1.358
 7089TIP3    H221232   0.745   2.596   1.482
 7090TIP3   OH221233   0.173   6.656   4.728
 7090TIP3    H121234   0.124   6.575   4.739
 7090TIP3    H221235   0.110   6.717   4.689
 7091TIP3   OH221236   0.920   2.682   3.227
 7091TIP3    H121237   0.986   2.732   3.275
 7091TIP3    H221238   0.846   2.676   3.287
 7092TIP3   OH221239   1.504   3.509   3.958
 7092TIP3    H121240   1.448   3.504   4.035
 7092TIP3    H221241   1.572   3.572   3.983
 7093TIP3   OH221242   6.905   1.581   1.664
 7093TIP3    H121243   6.900   1.561   1.571
 7093TIP3    H221244   6.995   1.560   1.689
 7094TIP3   OH221245   0.829   1.545   4.633
 7094TIP3    H121246   0.809   1.452   4.644
 7094TIP3    H221247   0.768   1.590   4.691
 7095TIP3   OH221248   3.534   6.484   5.091
 7095TIP3    H121249   3.495   6.442   5.168
 7095TIP3    H221250   3.558   6.572   5.120
 7096TIP3   OH221251   2.174   6.119   5.247
 7096TIP3    H121252   2.089   6.081   5.227
 7096TIP3    H221253   2.177   6.201   5.197
 7097TIP3   OH221254   2.040   5.197   0.496
 7097TIP3    H121255   2.044   5.136   0.570
 7097TIP3    H221256   2.080   5.278   0.530
 7098TIP3   OH221257   7.092   0.168   4.981
 7098TIP3    H121258   7.146   0.161   5.060
 7098TIP3    H221259   7.006   0.195   5.013
 7099TIP3   OH221260   0.594   0.367   5.293
 7099TIP3    H121261   0.619   0.456   5.267
 7099TIP3    H221262   0.638   0.353   5.376
 7100TIP3   OH221263   2.345   5.650   1.679
 7100TIP3    H121264   2.268   5.667   1.624
 7100TIP3    H221265   2.327   5.695   1.761
 7101TIP3   OH221266   5.216   2.744   3.607
 7101TIP3    H121267   5.224   2.825   3.658
 7101TIP3    H221268   5.122   2.733   3.595
 7102TIP3   OH221269   6.199   0.157   0.708
 7102TIP3    H121270   6.165   0.233   0.754
 7102TIP3    H221271   6.294   0.161   0.720
 7103TIP3   OH221272   3.314   5.296   3.523
 7103TIP3    H121273   3.370   5.372   3.543
 7103TIP3    H221274   3.281   5.269   3.608
 7104TIP3   OH221275   3.508   3.832   0.564
 7104TIP3    H121276   3.584   3.795   0.520
 7104TIP3    H221277   3.517   3.803   0.655
 7105TIP3   OH221278   4.537   1.060   1.369
 7105TIP3    H121279   4.580   1.081   1.286
 7105TIP3    H221280   4.549   1.139   1.423
 7106TIP3   OH221281   1.567   2.167   0.141
 7106TIP3    H121282   1.547   2.074   0.144
 7106TIP3    H221283   1.491   2.207   0.099
 7107TIP3   OH221284   5.113   3.930   0.177
 7107TIP3    H121285   5.111   3.835   0.176
 7107TIP3    H221286   5.031   3.956   0.219
 7108TIP3   OH221287   5.801   1.387   2.661
 7108TIP3    H121288   5.816   1.455   2.594
 7108TIP3    H221289   5.887   1.372   2.699
 7109TIP3   OH221290   0.440   2.722   2.665
 7109TIP3    H121291   0.509   2.773   2.707
 7109TIP3    H221292   0.487   2.658   2.611
 7110TIP3   OH221293   0.287   6.314   3.253
 7110TIP3    H121294   0.293   6.242   3.190
 7110TIP3    H221295   0.343   6.287   3.326
 7111TIP3   OH221296   6.667   1.435   1.172
 7111TIP3    H121297   6.650   1.506   1.234
 7111TIP3    H221298   6.637   1.356   1.217
 7112TIP3   OH221299   4.077   0.117   4.622
 7112TIP3    H121300   4.032   0.049   4.571
 7112TIP3    H221301   4.156   0.136   4.571
 7113TIP3   OH221302   1.023   3.406   2.057
 7113TIP3    H121303   0.972   3.333   2.022
 7113TIP3    H221304   0.959   3.475   2.071
 7114TIP3   OH221305   2.537   6.450   0.198
 7114TIP3    H121306   2.578   6.455   0.284
 7114TIP3    H221307   2.474   6.523   0.197
 7115TIP3   OH221308   1.568   1.583   4.593
 7115TIP3    H121309   1.663   1.580   4.603
 7115TIP3    H221310   1.552   1.649   4.525
 7116TIP3   OH221311   5.450   3.686   1.398
 7116TIP3    H121312   5.447   3.739   1.319
 7116TIP3    H221313   5.366   3.703   1.441
 7117TIP3   OH221314   3.367   1.965   3.304
 7117TIP3    H121315   3.347   1.997   3.216
 7117TIP3    H221316   3.281   1.947   3.343
 7118TIP3   OH221317   3.545   2.435   5.451
 7118TIP3    H121318   3.509   2.363   5.503
 7118TIP3    H221319   3.473   2.462   5.393
 7119TIP3   OH221320   6.042   4.353   2.238
 7119TIP3    H121321   6.109   4.421   2.229
 7119TIP3    H221322   6.091   4.272   2.250
 7120TIP3   OH221323   4.041   6.558   0.876
 7120TIP3    H121324   3.979   6.628   0.897
 7120TIP3    H221325   4.104   6.599   0.816
 7121TIP3   OH221326   5.970   4.476   2.853
 7121TIP3    H121327   6.055   4.489   2.895
 7121TIP3    H221328   5.912   4.537   2.898
 7122TIP3   OH221329   4.629   2.602   2.713
 7122TIP3    H121330   4.675   2.520   2.697
 7122TIP3    H221331   4.598   2.596   2.803
 7123TIP3   OH221332   2.375   5.511   1.021
 7123TIP3    H121333   2.292   5.480   1.058
 7123TIP3    H221334   2.375   5.605   1.039
 7124TIP3   OH221335   2.054   5.755   4.529
 7124TIP3    H121336   2.139   5.743   4.572
 7124TIP3    H221337   2.009   5.821   4.581
 7125TIP3   OH221338   0.518   2.832   5.612
 7125TIP3    H121339   0.574   2.758   5.634
 7125TIP3    H221340   0.498   2.873   5.697
 7126TIP3   OH221341   1.518   5.647   5.793
 7126TIP3    H121342   1.545   5.616   5.706
 7126TIP3    H221343   1.577   5.719   5.812
 7127TIP3   OH221344   4.608   4.325   2.593
 7127TIP3    H121345   4.557   4.366   2.523
 7127TIP3    H221346   4.643   4.398   2.644
 7128TIP3   OH221347   1.068   3.305   3.798
 7128TIP3    H121348   1.143   3.354   3.834
 7128TIP3    H221349   1.061   3.227   3.853
 7129TIP3   OH221350   1.591   4.168   1.726
 7129TIP3    H121351   1.642   4.123   1.660
 7129TIP3    H221352   1.500   4.141   1.710
 7130TIP3   OH221353   3.932   1.902   3.335
 7130TIP3    H121354   3.877   1.966   3.291
 7130TIP3    H221355   3.999   1.880   3.271
 7131TIP3   OH221356   3.269   3.373   2.468
 7131TIP3    H121357   3.283   3.461   2.434
 7131TIP3    H221358   3.184   3.347   2.432
 7132TIP3   OH221359   3.956   5.305   4.553
 7132TIP3    H121360   3.879   5.258   4.522
 7132TIP3    H221361   3.921   5.377   4.606
 7133TIP3   OH221362   6.646   4.101   4.053
 7133TIP3    H121363   6.631   4.030   3.990
 7133TIP3    H221364   6.703   4.063   4.120
 7134TIP3   OH221365   6.111   2.540   4.059
 7134TIP3    H121366   6.172   2.582   4.119
 7134TIP3    H221367   6.156   2.538   3.975
 7135TIP3   OH221368   7.142   5.677   4.580
 7135TIP3    H121369   7.061   5.721   4.553
 7135TIP3    H221370   7.167   5.624   4.504
 7136TIP3   OH221371   4.907   6.124   2.861
 7136TIP3    H121372   4.857   6.168   2.930
 7136TIP3    H221373   4.998   6.141   2.883
 7137TIP3   OH221374   5.923   3.267   4.087
 7137TIP3    H121375   5.954   3.303   4.170
 7137TIP3    H221376   5.972   3.185   4.076
 7138TIP3   OH221377   5.591   6.397   2.246
 7138TIP3    H121378   5.624   6.312   2.275
 7138TIP3    H221379   5.616   6.402   2.154
 7139TIP3   OH221380   6.129   5.422   4.733
 7139TIP3    H121381   6.087   5.453   4.813
 7139TIP3    H221382   6.204   5.480   4.720
 7140TIP3   OH221383   6.305   6.544   5.200
 7140TIP3    H121384   6.251   6.466   5.213
 7140TIP3    H221385   6.287   6.572   5.111
 7141TIP3   OH221386   4.473   2.658   4.863
 7141TIP3    H121387   4.484   2.659   4.768
 7141TIP3    H221388   4.383   2.687   4.877
 7142TIP3   OH221389   4.080   5.719   2.282
 7142TIP3    H121390   3.986   5.718   2.265
 7142TIP3    H221391   4.090   5.765   2.365
 7143TIP3   OH221392   5.067   6.618   3.483
 7143TIP3    H121393   4.973   6.604   3.490
 7143TIP3    H221394   5.101   6.600   3.571
 7144TIP3   OH221395   0.762   0.965   0.585
 7144TIP3    H121396   0.747   1.004   0.498
 7144TIP3    H221397   0.750   0.871   0.571
 7145TIP3   OH221398   5.666   2.930   1.455
 7145TIP3    H121399   5.658   2.994   1.525
 7145TIP3    H221400   5.755   2.944   1.420
 7146TIP3   OH221401   4.584   0.627   5.071
 7146TIP3    H121402   4.493   0.600   5.060
 7146TIP3    H221403   4.587   0.718   5.043
 7147TIP3   OH221404   1.255   4.448   1.836
 7147TIP3    H121405   1.211   4.527   1.866
 7147TIP3    H221406   1.293   4.409   1.915
 7148TIP3   OH221407   1.224   2.358   5.577
 7148TIP3    H121408   1.203   2.450   5.562
 7148TIP3    H221409   1.276   2.357   5.657
 7149TIP3   OH221410   4.609   3.880   3.653
 7149TIP3    H121411   4.637   3.971   3.645
 7149TIP3    H221412   4.605   3.864   3.747
 7150TIP3   OH221413   6.390   4.485   4.552
 7150TIP3    H121414   6.322   4.535   4.506
 7150TIP3    H221415   6.473   4.522   4.520
 7151TIP3   OH221416   0.731   6.445   4.066
 7151TIP3    H121417   0.768   6.360   4.043
 7151TIP3    H221418   0.775   6.507   4.008
 7152TIP3   OH221419   5.798   2.373   4.428
 7152TIP3    H121420   5.870   2.435   4.422
 7152TIP3    H221421   5.815   2.309   4.359
 7153TIP3   OH221422   3.388   3.921   0.891
 7153TIP3    H121423   3.374   3.932   0.985
 7153TIP3    H221424   3.371   3.828   0.876
 7154TIP3   OH221425   6.547   0.769   3.065
 7154TIP3    H121426   6.541   0.736   3.155
 7154TIP3    H221427   6.631   0.815   3.062
 7155TIP3   OH221428   0.208   1.189   1.124
 7155TIP3    H121429   0.173   1.107   1.090
 7155TIP3    H221430   0.189   1.185   1.218
 7156TIP3   OH221431   2.146   3.310   2.619
 7156TIP3    H121432   2.138   3.348   2.706
 7156TIP3    H221433   2.098   3.369   2.562
 7157TIP3   OH221434   1.245   4.123   0.729
 7157TIP3    H121435   1.287   4.053   0.679
 7157TIP3    H221436   1.307   4.196   0.723
 7158TIP3   OH221437   6.316   5.595   2.891
 7158TIP3    H121438   6.406   5.571   2.913
 7158TIP3    H221439   6.289   5.653   2.963
 7159TIP3   OH221440   5.817   5.507   3.727
 7159TIP3    H121441   5.894   5.464   3.764
 7159TIP3    H221442   5.762   5.528   3.802
 7160TIP3   OH221443   3.329   6.456  -0.005
 7160TIP3    H121444   3.270   6.529  -0.023
 7160TIP3    H221445   3.297   6.385  -0.060
 7161TIP3   OH221446   3.440   6.054   1.264
 7161TIP3    H121447   3.360   6.008   1.289
 7161TIP3    H221448   3.411   6.142   1.241
 7162TIP3   OH221449   1.147   0.857   3.646
 7162TIP3    H121450   1.064   0.906   3.640
 7162TIP3    H221451   1.144   0.796   3.572
 7163TIP3   OH221452   0.796   2.880   5.144
 7163TIP3    H121453   0.872   2.834   5.110
 7163TIP3    H221454   0.763   2.932   5.071
 7164TIP3   OH221455   1.315   1.280   3.377
 7164TIP3    H121456   1.298   1.240   3.292
 7164TIP3    H221457   1.410   1.285   3.382
 7165TIP3   OH221458   0.292   0.665   3.550
 7165TIP3    H121459   0.233   0.711   3.489
 7165TIP3    H221460   0.269   0.700   3.636
 7166TIP3   OH221461   5.442   5.712   0.552
 7166TIP3    H121462   5.373   5.675   0.607
 7166TIP3    H221463   5.439   5.806   0.568
 7167TIP3   OH221464   4.590   1.608   4.996
 7167TIP3    H121465   4.539   1.528   5.005
 7167TIP3    H221466   4.667   1.582   4.945
 7168TIP3   OH221467   2.749   0.909   4.123
 7168TIP3    H121468   2.663   0.948   4.134
 7168TIP3    H221469   2.734   0.815   4.123
 7169TIP3   OH221470   6.412   5.847   4.518
 7169TIP3    H121471   6.361   5.823   4.440
 7169TIP3    H221472   6.363   5.809   4.591
 7170TIP3   OH221473   2.615   0.233   2.582
 7170TIP3    H121474   2.659   0.299   2.635
 7170TIP3    H221475   2.584   0.280   2.505
 7171TIP3   OH221476   1.821   2.652   1.106
 7171TIP3    H121477   1.809   2.636   1.013
 7171TIP3    H221478   1.743   2.615   1.148
 7172TIP3   OH221479   5.929   1.379   3.448
 7172TIP3    H121480   5.911   1.468   3.419
 7172TIP3    H221481   6.024   1.370   3.441
 7173TIP3   OH221482   3.540   0.230   2.053
 7173TIP3    H121483   3.463   0.234   1.996
 7173TIP3    H221484   3.545   0.138   2.079
 7174TIP3   OH221485   6.856   3.146   2.866
 7174TIP3    H121486   6.829   3.058   2.840
 7174TIP3    H221487   6.775   3.196   2.873
 7175TIP3   OH221488   6.872   3.479   3.925
 7175TIP3    H121489   6.890   3.477   4.020
 7175TIP3    H221490   6.932   3.545   3.891
 7176TIP3   OH221491   2.186   2.191   4.490
 7176TIP3    H121492   2.189   2.224   4.400
 7176TIP3    H221493   2.093   2.180   4.509
 7177TIP3   OH221494   0.930   2.672   0.325
 7177TIP3    H121495   0.919   2.580   0.301
 7177TIP3    H221496   0.844   2.711   0.309
 7178TIP3   OH221497   3.618   5.644   2.620
 7178TIP3    H121498   3.536   5.614   2.657
 7178TIP3    H221499   3.668   5.564   2.603
 7179TIP3   OH221500   5.644   2.575   2.183
 7179TIP3    H121501   5.649   2.660   2.228
 7179TIP3    H221502   5.698   2.586   2.105
 7180TIP3   OH221503   0.937   1.871   1.195
 7180TIP3    H121504   0.910   1.959   1.222
 7180TIP3    H221505   0.892   1.813   1.257
 7181TIP3   OH221506   0.458   5.737   5.775
 7181TIP3    H121507   0.507   5.800   5.829
 7181TIP3    H221508   0.373   5.779   5.762
 7182TIP3   OH221509   5.311   3.746   5.094
 7182TIP3    H121510   5.384   3.789   5.050
 7182TIP3    H221511   5.346   3.720   5.180
 7183TIP3   OH221512   5.807   4.393   5.293
 7183TIP3    H121513   5.891   4.426   5.263
 7183TIP3    H221514   5.787   4.321   5.233
 7184TIP3   OH221515   4.489   4.663   0.977
 7184TIP3    H121516   4.427   4.609   1.025
 7184TIP3    H221517   4.535   4.712   1.045
 7185TIP3   OH221518   6.665   1.308   5.006
 7185TIP3    H121519   6.745   1.337   4.962
 7185TIP3    H221520   6.667   1.212   4.999
 7186TIP3   OH221521   2.752   4.340   2.649
 7186TIP3    H121522   2.773   4.328   2.742
 7186TIP3    H221523   2.710   4.258   2.623
 7187TIP3   OH221524   0.561   6.401   5.197
 7187TIP3    H121525   0.488   6.341   5.182
 7187TIP3    H221526   0.536   6.480   5.149
 7188TIP3   OH221527   2.650   3.206   5.300
 7188TIP3    H121528   2.616   3.274   5.242
 7188TIP3    H221529   2.744   3.221   5.302
 7189TIP3   OH221530   0.630   4.867   4.733
 7189TIP3    H121531   0.634   4.885   4.638
 7189TIP3    H221532   0.716   4.832   4.754
 7190TIP3   OH221533   5.571   6.082   3.347
 7190TIP3    H121534   5.583   6.126   3.431
 7190TIP3    H221535   5.629   6.129   3.287
 7191TIP3   OH221536   5.691   1.761   0.037
 7191TIP3    H121537   5.747   1.691   0.002
 7191TIP3    H221538   5.615   1.762  -0.021
 7192TIP3   OH221539   4.059   2.710   1.733
 7192TIP3    H121540   4.116   2.689   1.659
 7192TIP3    H221541   4.116   2.707   1.809
 7193TIP3   OH221542   5.330   1.193   5.171
 7193TIP3    H121543   5.252   1.247   5.187
 7193TIP3    H221544   5.398   1.257   5.148
 7194TIP3   OH221545   1.893   2.416   4.127
 7194TIP3    H121546   1.922   2.348   4.066
 7194TIP3    H221547   1.898   2.498   4.077
 7195TIP3   OH221548   0.236   2.468   3.744
 7195TIP3    H121549   0.231   2.439   3.835
 7195TIP3    H221550   0.253   2.561   3.749
 7196TIP3   OH221551   0.096   0.613   2.115
 7196TIP3    H121552   0.108   0.622   2.020
 7196TIP3    H221553   0.063   0.698   2.143
 7197TIP3   OH221554   5.536   3.876   1.205
 7197TIP3    H121555   5.553   3.823   1.128
 7197TIP3    H221556   5.575   3.961   1.185
 7198TIP3   OH221557   5.922   0.289   4.603
 7198TIP3    H121558   5.913   0.376   4.563
 7198TIP3    H221559   5.873   0.231   4.546
 7199TIP3   OH221560   0.050   3.461   4.882
 7199TIP3    H121561   0.110   3.387   4.874
 7199TIP3    H221562   0.068   3.515   4.805
 7200TIP3   OH221563   1.423   3.215   4.699
 7200TIP3    H121564   1.352   3.249   4.753
 7200TIP3    H221565   1.437   3.126   4.732
 7201TIP3   OH221566   5.989   3.728   4.745
 7201TIP3    H121567   6.054   3.793   4.770
 7201TIP3    H221568   6.022   3.645   4.781
 7202TIP3   OH221569   4.349   5.014   0.331
 7202TIP3    H121570   4.290   5.037   0.259
 7202TIP3    H221571   4.355   4.919   0.327
 7203TIP3   OH221572   1.813   4.883   0.324
 7203TIP3    H121573   1.859   4.884   0.240
 7203TIP3    H221574   1.723   4.861   0.301
 7204TIP3   OH221575   3.008   0.300   4.642
 7204TIP3    H121576   2.920   0.263   4.638
 7204TIP3    H221577   3.019   0.327   4.733
 7205TIP3   OH221578   1.088   2.759   5.809
 7205TIP3    H121579   1.104   2.686   5.749
 7205TIP3    H221580   1.006   2.798   5.778
 7206TIP3   OH221581   2.749   2.619   2.143
 7206TIP3    H121582   2.717   2.528   2.145
 7206TIP3    H221583   2.681   2.669   2.187
 7207TIP3   OH221584   1.319   3.188   0.194
 7207TIP3    H121585   1.299   3.240   0.272
 7207TIP3    H221586   1.294   3.099   0.218
 7208TIP3   OH221587   1.011   2.389   3.023
 7208TIP3    H121588   1.007   2.294   3.026
 7208TIP3    H221589   0.981   2.418   3.109
 7209TIP3   OH221590   6.682   0.289   3.327
 7209TIP3    H121591   6.747   0.219   3.332
 7209TIP3    H221592   6.719   0.352   3.265
 7210TIP3   OH221593   6.658   2.122   1.767
 7210TIP3    H121594   6.725   2.113   1.699
 7210TIP3    H221595   6.611   2.038   1.766
 7211TIP3   OH221596   3.693   6.736   4.347
 7211TIP3    H121597   3.609   6.753   4.304
 7211TIP3    H221598   3.732   6.822   4.361
 7212TIP3   OH221599   5.454   0.340   3.607
 7212TIP3    H121600   5.425   0.286   3.680
 7212TIP3    H221601   5.471   0.426   3.646
 7213TIP3   OH221602   0.601   2.705   1.098
 7213TIP3    H121603   0.562   2.767   1.036
 7213TIP3    H221604   0.695   2.707   1.078
 7214TIP3   OH221605   6.117   6.813   4.029
 7214TIP3    H121606   6.024   6.791   4.026
 7214TIP3    H221607   6.160   6.732   4.056
 7215TIP3   OH221608   0.079   1.823   0.473
 7215TIP3    H121609   0.110   1.738   0.502
 7215TIP3    H221610   0.159   1.872   0.453
 7216TIP3   OH221611   1.247   5.910   5.714
 7216TIP3    H121612   1.230   5.984   5.655
 7216TIP3    H221613   1.342   5.907   5.722
 7217TIP3   OH221614   1.613   2.209   1.070
 7217TIP3    H121615   1.620   2.274   1.140
 7217TIP3    H221616   1.565   2.136   1.110
 7218TIP3   OH221617   6.827   0.976   1.190
 7218TIP3    H121618   6.776   0.974   1.271
 7218TIP3    H221619   6.899   1.036   1.208
 7219TIP3   OH221620   6.345   6.736   1.083
 7219TIP3    H121621   6.410   6.668   1.099
 7219TIP3    H221622   6.365   6.804   1.146
 7220TIP3   OH221623   3.721   1.834   4.919
 7220TIP3    H121624   3.673   1.758   4.952
 7220TIP3    H221625   3.806   1.830   4.963
 7221TIP3   OH221626   1.842   3.854   4.684
 7221TIP3    H121627   1.760   3.895   4.710
 7221TIP3    H221628   1.816   3.770   4.646
 7222TIP3   OH221629   0.081   6.486   3.250
 7222TIP3    H121630   0.166   6.442   3.243
 7222TIP3    H221631   0.093   6.568   3.203
 7223TIP3   OH221632   3.775   2.510   2.867
 7223TIP3    H121633   3.767   2.597   2.906
 7223TIP3    H221634   3.792   2.527   2.774
 7224TIP3   OH221635   4.080   6.717   1.563
 7224TIP3    H121636   4.086   6.736   1.657
 7224TIP3    H221637   3.997   6.671   1.554
 7225TIP3   OH221638   6.072   2.120   2.134
 7225TIP3    H121639   6.042   2.161   2.215
 7225TIP3    H221640   5.992   2.101   2.085
 7226TIP3   OH221641   0.992   4.159   4.227
 7226TIP3    H121642   1.079   4.192   4.251
 7226TIP3    H221643   0.934   4.235   4.238
 7227TIP3   OH221644   5.143   5.136   3.969
 7227TIP3    H121645   5.082   5.202   4.000
 7227TIP3    H221646   5.223   5.151   4.020
 7228TIP3   OH221647   5.395   0.881   4.230
 7228TIP3    H121648   5.452   0.827   4.285
 7228TIP3    H221649   5.436   0.879   4.143
 7229TIP3   OH221650   2.782   5.396   5.549
 7229TIP3    H121651   2.743   5.408   5.635
 7229TIP3    H221652   2.787   5.301   5.538
 7230TIP3   OH221653   3.547   6.278   2.330
 7230TIP3    H121654   3.503   6.268   2.246
 7230TIP3    H221655   3.499   6.348   2.374
 7231TIP3   OH221656   0.910   0.369   1.687
 7231TIP3    H121657   0.941   0.355   1.776
 7231TIP3    H221658   0.854   0.294   1.669
 7232TIP3   OH221659   6.333   4.138   3.176
 7232TIP3    H121660   6.253   4.191   3.173
 7232TIP3    H221661   6.393   4.182   3.116
 7233TIP3   OH221662   4.153   4.496   3.579
 7233TIP3    H121663   4.118   4.561   3.518
 7233TIP3    H221664   4.197   4.432   3.523
 7234TIP3   OH221665   1.704   0.891   4.436
 7234TIP3    H121666   1.632   0.942   4.471
 7234TIP3    H221667   1.709   0.917   4.343
 7235TIP3   OH221668   5.580   6.139   4.649
 7235TIP3    H121669   5.486   6.153   4.649
 7235TIP3    H221670   5.616   6.221   4.617
 7236TIP3   OH221671   2.002   2.911   2.242
 7236TIP3    H121672   1.976   2.820   2.233
 7236TIP3    H221673   1.961   2.941   2.323
 7237TIP3   OH221674   0.405   6.004   3.829
 7237TIP3    H121675   0.493   5.971   3.815
 7237TIP3    H221676   0.350   5.926   3.831
 7238TIP3   OH221677   1.289   1.332   1.793
 7238TIP3    H121678   1.316   1.243   1.816
 7238TIP3    H221679   1.207   1.321   1.745
 7239TIP3   OH221680   2.435   1.666   0.226
 7239TIP3    H121681   2.519   1.707   0.207
 7239TIP3    H221682   2.448   1.574   0.205
 7240TIP3   OH221683   3.860   0.679   5.104
 7240TIP3    H121684   3.774   0.719   5.115
 7240TIP3    H221685   3.904   0.734   5.040
 7241TIP3   OH221686   5.380   4.865   2.829
 7241TIP3    H121687   5.440   4.796   2.802
 7241TIP3    H221688   5.294   4.835   2.801
 7242TIP3   OH221689   4.641   4.457   1.211
 7242TIP3    H121690   4.730   4.481   1.236
 7242TIP3    H221691   4.592   4.539   1.219
 7243TIP3   OH221692   4.645   4.735   5.757
 7243TIP3    H121693   4.680   4.749   5.669
 7243TIP3    H221694   4.696   4.661   5.792
 7244TIP3   OH221695   0.796   6.649   1.215
 7244TIP3    H121696   0.796   6.610   1.302
 7244TIP3    H221697   0.732   6.720   1.221
 7245TIP3   OH221698   0.402   0.865   2.486
 7245TIP3    H121699   0.343   0.931   2.523
 7245TIP3    H221700   0.409   0.889   2.394
 7246TIP3   OH221701   0.030   1.297   2.763
 7246TIP3    H121702   0.107   1.252   2.798
 7246TIP3    H221703   0.065   1.362   2.702
 7247TIP3   OH221704   6.872   4.569   2.194
 7247TIP3    H121705   6.820   4.490   2.208
 7247TIP3    H221706   6.927   4.575   2.273
 7248TIP3   OH221707   2.638   5.796   2.754
 7248TIP3    H121708   2.573   5.859   2.785
 7248TIP3    H221709   2.604   5.711   2.781
 7249TIP3   OH221710   4.279   1.394   1.983
 7249TIP3    H121711   4.206   1.407   1.922
 7249TIP3    H221712   4.278   1.301   2.003
 7250TIP3   OH221713   1.759   0.612   2.244
 7250TIP3    H121714   1.695   0.596   2.175
 7250TIP3    H221715   1.793   0.700   2.225
 7251TIP3   OH221716   1.121   5.019   2.879
 7251TIP3    H121717   1.050   4.955   2.886
 7251TIP3    H221718   1.092   5.093   2.933
 7252TIP3   OH221719   5.147   2.730   5.248
 7252TIP3    H121720   5.158   2.753   5.340
 7252TIP3    H221721   5.085   2.794   5.215
 7253TIP3   OH221722   6.812   3.787   3.292
 7253TIP3    H121723   6.871   3.715   3.267
 7253TIP3    H221724   6.750   3.793   3.220
 7254TIP3   OH221725   2.156   0.089   0.921
 7254TIP3    H121726   2.070   0.126   0.903
 7254TIP3    H221727   2.141  -0.005   0.928
 7255TIP3   OH221728   1.407   6.223   2.024
 7255TIP3    H121729   1.430   6.290   2.088
 7255TIP3    H221730   1.315   6.203   2.042
 7256TIP3   OH221731   3.235   1.475   2.786
 7256TIP3    H121732   3.293   1.545   2.756
 7256TIP3    H221733   3.168   1.468   2.718
 7257TIP3   OH221734   2.168   1.206   4.208
 7257TIP3    H121735   2.118   1.212   4.289
 7257TIP3    H221736   2.165   1.114   4.184
 7258TIP3   OH221737   5.500   6.326   4.888
 7258TIP3    H121738   5.485   6.338   4.794
 7258TIP3    H221739   5.578   6.271   4.892
 7259TIP3   OH221740   5.159   5.173   0.282
 7259TIP3    H121741   5.166   5.142   0.372
 7259TIP3    H221742   5.237   5.139   0.238
 7260TIP3   OH221743   5.683   1.772   4.627
 7260TIP3    H121744   5.710   1.828   4.554
 7260TIP3    H221745   5.760   1.766   4.683
 7261TIP3   OH221746   5.151   0.253   1.234
 7261TIP3    H121747   5.094   0.199   1.289
 7261TIP3    H221748   5.159   0.336   1.282
 7262TIP3   OH221749   5.018   6.585   0.035
 7262TIP3    H121750   5.075   6.594  -0.042
 7262TIP3    H221751   5.051   6.651   0.096
 7263TIP3   OH221752   5.635   1.173   5.262
 7263TIP3    H121753   5.667   1.193   5.350
 7263TIP3    H221754   5.689   1.227   5.205
 7264TIP3   OH221755   0.292   5.018   5.114
 7264TIP3    H121756   0.245   4.935   5.123
 7264TIP3    H221757   0.248   5.063   5.042
 7265TIP3   OH221758   1.205   3.296   4.292
 7265TIP3    H121759   1.156   3.375   4.268
 7265TIP3    H221760   1.228   3.256   4.208
 7266TIP3   OH221761   4.929   0.399   1.598
 7266TIP3    H121762   4.876   0.321   1.582
 7266TIP3    H221763   4.920   0.416   1.692
 7267TIP3   OH221764   5.550   4.016   4.210
 7267TIP3    H121765   5.574   4.083   4.274
 7267TIP3    H221766   5.494   3.955   4.258
 7268TIP3   OH221767   2.735   0.093   4.612
 7268TIP3    H121768   2.734   0.111   4.518
 7268TIP3    H221769   2.697   0.005   4.620
 7269TIP3   OH221770   6.462   1.126   5.462
 7269TIP3    H121771   6.527   1.159   5.524
 7269TIP3    H221772   6.394   1.087   5.517
 7270TIP3   OH221773   4.674   1.956   3.525
 7270TIP3    H121774   4.680   1.861   3.519
 7270TIP3    H221775   4.608   1.980   3.460
 7271TIP3   OH221776   3.786   1.493   0.453
 7271TIP3    H121777   3.731   1.537   0.517
 7271TIP3    H221778   3.876   1.506   0.485
 7272TIP3   OH221779   5.789   4.588   1.006
 7272TIP3    H121780   5.855   4.559   0.943
 7272TIP3    H221781   5.730   4.644   0.954
 7273TIP3   OH221782   5.542   3.009   5.233
 7273TIP3    H121783   5.580   2.928   5.201
 7273TIP3    H221784   5.507   2.987   5.320
 7274TIP3   OH221785   6.926   0.416   1.408
 7274TIP3    H121786   6.876   0.336   1.393
 7274TIP3    H221787   6.959   0.407   1.498
 7275TIP3   OH221788   1.562   1.100   3.639
 7275TIP3    H121789   1.507   1.076   3.713
 7275TIP3    H221790   1.638   1.144   3.679
 7276TIP3   OH221791   4.882   4.028   0.299
 7276TIP3    H121792   4.794   4.035   0.338
 7276TIP3    H221793   4.871   4.058   0.209
 7277TIP3   OH221794   6.258   4.490   4.791
 7277TIP3    H121795   6.200   4.565   4.783
 7277TIP3    H221796   6.302   4.484   4.706
 7278TIP3   OH221797   3.673   3.401   0.048
 7278TIP3    H121798   3.577   3.395   0.042
 7278TIP3    H221799   3.697   3.332   0.110
 7279TIP3   OH221800   2.403   0.666   4.113
 7279TIP3    H121801   2.318   0.626   4.096
 7279TIP3    H221802   2.389   0.716   4.193
 7280TIP3   OH221803   0.458   0.220   2.775
 7280TIP3    H121804   0.456   0.146   2.835
 7280TIP3    H221805   0.550   0.231   2.752
 7281TIP3   OH221806   3.078   0.243   3.186
 7281TIP3    H121807   3.095   0.297   3.263
 7281TIP3    H221808   2.984   0.226   3.188
 7282TIP3   OH221809   2.918   2.610   5.277
 7282TIP3    H121810   2.973   2.533   5.258
 7282TIP3    H221811   2.941   2.633   5.367
 7283TIP3   OH221812   7.222   3.700   2.058
 7283TIP3    H121813   7.200   3.766   1.992
 7283TIP3    H221814   7.137   3.677   2.096
 7284TIP3   OH221815   5.876   2.151   4.841
 7284TIP3    H121816   5.931   2.191   4.775
 7284TIP3    H221817   5.790   2.193   4.830
 7285TIP3   OH221818   6.323   4.228   1.641
 7285TIP3    H121819   6.266   4.218   1.565
 7285TIP3    H221820   6.348   4.139   1.664
 7286TIP3   OH221821   5.302   6.823   0.611
 7286TIP3    H121822   5.361   6.748   0.620
 7286TIP3    H221823   5.285   6.851   0.701
 7287TIP3   OH221824   0.883   6.218   4.016
 7287TIP3    H121825   0.945   6.167   4.069
 7287TIP3    H221826   0.799   6.174   4.028
 7288TIP3   OH221827   4.932   1.231   2.844
 7288TIP3    H121828   5.024   1.256   2.837
 7288TIP3    H221829   4.887   1.311   2.869
 7289TIP3   OH221830   7.011   0.143   4.685
 7289TIP3    H121831   7.042   0.165   4.773
 7289TIP3    H221832   7.054   0.060   4.664
 7290TIP3   OH221833   4.232   5.498   2.384
 7290TIP3    H121834   4.249   5.522   2.475
 7290TIP3    H221835   4.188   5.575   2.347
 7291TIP3   OH221836   5.427   1.547   3.922
 7291TIP3    H121837   5.397   1.634   3.894
 7291TIP3    H221838   5.347   1.501   3.946
 7292TIP3   OH221839   7.008   6.223   1.842
 7292TIP3    H121840   7.002   6.254   1.932
 7292TIP3    H221841   7.077   6.156   1.844
 7293TIP3   OH221842   5.543   1.918   3.121
 7293TIP3    H121843   5.562   1.825   3.108
 7293TIP3    H221844   5.566   1.959   3.038
 7294TIP3   OH221845   5.997   6.382   2.633
 7294TIP3    H121846   5.989   6.320   2.706
 7294TIP3    H221847   5.946   6.458   2.660
 7295TIP3   OH221848   4.911   6.073   5.140
 7295TIP3    H121849   5.006   6.058   5.137
 7295TIP3    H221850   4.885   6.087   5.049
 7296TIP3   OH221851   4.385   5.557   0.603
 7296TIP3    H121852   4.446   5.493   0.566
 7296TIP3    H221853   4.357   5.610   0.529
 7297TIP3   OH221854   2.712   3.408   1.844
 7297TIP3    H121855   2.736   3.340   1.907
 7297TIP3    H221856   2.664   3.472   1.896
 7298TIP3   OH221857   0.210   0.347   3.939
 7298TIP3    H121858   0.257   0.274   3.978
 7298TIP3    H221859   0.248   0.355   3.851
 7299TIP3   OH221860   6.672   0.413   5.858
 7299TIP3    H121861   6.669   0.322   5.886
 7299TIP3    H221862   6.624   0.460   5.926
 7300TIP3   OH221863   4.741   4.294   5.111
 7300TIP3    H121864   4.788   4.296   5.028
 7300TIP3    H221865   4.648   4.292   5.085
 7301TIP3   OH221866   2.031   3.296   3.022
 7301TIP3    H121867   2.009   3.361   2.955
 7301TIP3    H221868   1.993   3.330   3.103
 7302TIP3   OH221869   0.822   0.788   0.841
 7302TIP3    H121870   0.744   0.803   0.894
 7302TIP3    H221871   0.825   0.862   0.781
 7303TIP3   OH221872   6.559   5.191   1.745
 7303TIP3    H121873   6.644   5.202   1.701
 7303TIP3    H221874   6.531   5.279   1.766
 7304TIP3   OH221875   4.682   1.200   1.154
 7304TIP3    H121876   4.672   1.296   1.154
 7304TIP3    H221877   4.776   1.186   1.146
 7305TIP3   OH221878   3.397   3.826   0.284
 7305TIP3    H121879   3.367   3.813   0.194
 7305TIP3    H221880   3.460   3.755   0.298
 7306TIP3   OH221881   4.201   3.057   3.177
 7306TIP3    H121882   4.253   3.134   3.154
 7306TIP3    H221883   4.265   2.988   3.189
 7307TIP3   OH221884   5.267   1.731   1.619
 7307TIP3    H121885   5.197   1.756   1.679
 7307TIP3    H221886   5.224   1.725   1.534
 7308TIP3   OH221887   6.602   4.694   4.715
 7308TIP3    H121888   6.644   4.647   4.786
 7308TIP3    H221889   6.533   4.745   4.757
 7309TIP3   OH221890   4.370   2.034   5.304
 7309TIP3    H121891   4.453   2.046   5.350
 7309TIP3    H221892   4.303   2.057   5.369
 7310TIP3   OH221893   1.140   6.788   1.353
 7310TIP3    H121894   1.132   6.695   1.332
 7310TIP3    H221895   1.059   6.827   1.322
 7311TIP3   OH221896   0.170   4.206   1.074
 7311TIP3    H121897   0.264   4.220   1.066
 7311TIP3    H221898   0.139   4.202   0.984
 7312TIP3   OH221899   2.102   0.699   4.431
 7312TIP3    H121900   2.051   0.771   4.468
 7312TIP3    H221901   2.040   0.652   4.375
 7313TIP3   OH221902   2.491   0.545   2.160
 7313TIP3    H121903   2.496   0.508   2.072
 7313TIP3    H221904   2.580   0.576   2.177
 7314TIP3   OH221905   5.058   3.586   0.401
 7314TIP3    H121906   5.020   3.663   0.443
 7314TIP3    H221907   5.061   3.520   0.470
 7315TIP3   OH221908   1.403   4.885   4.684
 7315TIP3    H121909   1.463   4.907   4.613
 7315TIP3    H221910   1.406   4.789   4.689
 7316TIP3   OH221911   3.371   1.444   4.078
 7316TIP3    H121912   3.314   1.370   4.057
 7316TIP3    H221913   3.352   1.509   4.010
 7317TIP3   OH221914   3.491   3.085   1.434
 7317TIP3    H121915   3.564   3.140   1.406
 7317TIP3    H221916   3.506   3.069   1.527
 7318TIP3   OH221917   5.909   5.950   5.460
 7318TIP3    H121918   5.999   5.979   5.446
 7318TIP3    H221919   5.865   6.025   5.501
 7319TIP3   OH221920   6.892   6.335   5.255
 7319TIP3    H121921   6.987   6.346   5.258
 7319TIP3    H221922   6.864   6.389   5.181
 7320TIP3   OH221923   2.619   6.744   4.743
 7320TIP3    H121924   2.642   6.756   4.835
 7320TIP3    H221925   2.622   6.649   4.730
 7321TIP3   OH221926   5.296   1.039   2.225
 7321TIP3    H121927   5.385   1.072   2.239
 7321TIP3    H221928   5.240   1.116   2.238
 7322TIP3   OH221929   3.900   1.072   4.181
 7322TIP3    H121930   3.846   1.092   4.257
 7322TIP3    H221931   3.920   0.978   4.189
 7323TIP3   OH221932   6.724   4.804   1.808
 7323TIP3    H121933   6.766   4.719   1.795
 7323TIP3    H221934   6.782   4.850   1.869
 7324TIP3   OH221935   4.608   2.065   2.805
 7324TIP3    H121936   4.525   2.099   2.836
 7324TIP3    H221937   4.617   2.099   2.716
 7325TIP3   OH221938   1.444   4.994   0.190
 7325TIP3    H121939   1.488   4.918   0.227
 7325TIP3    H221940   1.457   5.063   0.255
 7326TIP3   OH221941   0.032   5.817   1.598
 7326TIP3    H121942   0.077   5.779   1.674
 7326TIP3    H221943   0.102   5.846   1.540
 7327TIP3   OH221944   3.563   6.469   0.834
 7327TIP3    H121945   3.609   6.418   0.900
 7327TIP3    H221946   3.617   6.547   0.821
 7328TIP3   OH221947   1.952   2.654   5.338
 7328TIP3    H121948   1.914   2.677   5.423
 7328TIP3    H221949   1.971   2.739   5.297
 7329TIP3   OH221950   1.333   2.414   2.481
 7329TIP3    H121951   1.331   2.360   2.560
 7329TIP3    H221952   1.426   2.434   2.468
 7330TIP3   OH221953   0.917   3.901   0.706
 7330TIP3    H121954   0.990   3.853   0.665
 7330TIP3    H221955   0.843   3.841   0.699
 7331TIP3   OH221956   6.146   5.296   5.038
 7331TIP3    H121957   6.099   5.378   5.024
 7331TIP3    H221958   6.238   5.323   5.046
 7332TIP3   OH221959   4.995   3.697   1.956
 7332TIP3    H121960   4.922   3.753   1.983
 7332TIP3    H221961   5.067   3.758   1.940
 7333TIP3   OH221962   1.971   5.182   4.072
 7333TIP3    H121963   2.044   5.140   4.025
 7333TIP3    H221964   1.999   5.180   4.164
 7334TIP3   OH221965   4.454   5.975   0.305
 7334TIP3    H121966   4.377   6.022   0.274
 7334TIP3    H221967   4.528   6.025   0.270
 7335TIP3   OH221968   1.979   1.820   0.436
 7335TIP3    H121969   1.954   1.911   0.455
 7335TIP3    H221970   2.072   1.815   0.459
 7336TIP3   OH221971   3.537   5.819   2.327
 7336TIP3    H121972   3.542   5.773   2.243
 7336TIP3    H221973   3.514   5.751   2.390
 7337TIP3   OH221974   4.396   4.431   2.417
 7337TIP3    H121975   4.467   4.468   2.364
 7337TIP3    H221976   4.371   4.350   2.371
 7338TIP3   OH221977   3.576   0.587   4.376
 7338TIP3    H121978   3.644   0.652   4.362
 7338TIP3    H221979   3.588   0.558   4.466
 7339TIP3   OH221980   5.864   2.908   3.467
 7339TIP3    H121981   5.930   2.841   3.484
 7339TIP3    H221982   5.868   2.923   3.373
 7340TIP3   OH221983   4.715   3.330   0.565
 7340TIP3    H121984   4.737   3.289   0.649
 7340TIP3    H221985   4.620   3.343   0.569
 7341TIP3   OH221986   2.997   0.086   5.874
 7341TIP3    H121987   2.970   0.055   5.960
 7341TIP3    H221988   3.012   0.180   5.886
 7342TIP3   OH221989   1.866   4.485   0.274
 7342TIP3    H121990   1.877   4.412   0.214
 7342TIP3    H221991   1.950   4.532   0.270
 7343TIP3   OH221992   6.300   5.961   0.680
 7343TIP3    H121993   6.310   5.948   0.775
 7343TIP3    H221994   6.206   5.952   0.665
 7344TIP3   OH221995   6.653   4.051   1.276
 7344TIP3    H121996   6.747   4.060   1.289
 7344TIP3    H221997   6.638   4.076   1.185
 7345TIP3   OH221998   1.106   0.686   2.808
 7345TIP3    H121999   1.189   0.649   2.779
 7345TIP3    H222000   1.081   0.747   2.739
 7346TIP3   OH222001   6.930   2.843   0.803
 7346TIP3    H122002   6.921   2.866   0.895
 7346TIP3    H222003   6.937   2.748   0.802
 7347TIP3   OH222004   5.335   2.093   0.514
 7347TIP3    H122005   5.357   2.162   0.576
 7347TIP3    H222006   5.262   2.046   0.555
 7348TIP3   OH222007   1.348   3.188   3.978
 7348TIP3    H122008   1.382   3.215   3.893
 7348TIP3    H222009   1.288   3.116   3.959
 7349TIP3   OH222010   1.774   5.170   4.760
 7349TIP3    H122011   1.706   5.230   4.731
 7349TIP3    H222012   1.807   5.130   4.680
 7350TIP3   OH222013   3.917   0.880   0.654
 7350TIP3    H122014   3.847   0.821   0.682
 7350TIP3    H222015   3.888   0.912   0.568
 7351TIP3   OH222016   3.096   0.039   5.192
 7351TIP3    H122017   3.045  -0.042   5.192
 7351TIP3    H222018   3.032   0.108   5.170
 7352TIP3   OH222019   6.747   3.291   2.383
 7352TIP3    H122020   6.816   3.279   2.319
 7352TIP3    H222021   6.778   3.245   2.461
 7353TIP3   OH222022   1.466   1.740   4.928
 7353TIP3    H122023   1.464   1.829   4.892
 7353TIP3    H222024   1.374   1.711   4.924
 7354TIP3   OH222025   4.229   3.845   2.138
 7354TIP3    H122026   4.221   3.753   2.165
 7354TIP3    H222027   4.292   3.882   2.200
 7355TIP3   OH222028   2.549   2.624   1.359
 7355TIP3    H122029   2.534   2.539   1.400
 7355TIP3    H222030   2.590   2.677   1.427
 7356TIP3   OH222031   5.940   3.276   2.297
 7356TIP3    H122032   5.914   3.306   2.210
 7356TIP3    H222033   5.869   3.217   2.324
 7357TIP3   OH222034   3.314   5.083   3.345
 7357TIP3    H122035   3.292   5.134   3.267
 7357TIP3    H222036   3.310   5.146   3.416
 7358TIP3   OH222037   5.683   4.922   2.479
 7358TIP3    H122038   5.635   4.842   2.456
 7358TIP3    H222039   5.639   4.991   2.429
 7359TIP3   OH222040   3.408   3.272   3.379
 7359TIP3    H122041   3.417   3.365   3.403
 7359TIP3    H222042   3.499   3.241   3.374
 7360TIP3   OH222043   3.478   5.804   2.031
 7360TIP3    H122044   3.491   5.860   1.955
 7360TIP3    H222045   3.397   5.835   2.070
 7361TIP3   OH222046   0.607   5.360   1.358
 7361TIP3    H122047   0.527   5.315   1.331
 7361TIP3    H222048   0.607   5.354   1.453
 7362TIP3   OH222049   4.758   0.687   1.592
 7362TIP3    H122050   4.726   0.648   1.511
 7362TIP3    H222051   4.828   0.746   1.565
 7363TIP3   OH222052   2.844   2.167   0.927
 7363TIP3    H122053   2.811   2.225   0.857
 7363TIP3    H222054   2.828   2.079   0.893
 7364TIP3   OH222055   2.879   1.274   4.758
 7364TIP3    H122056   2.841   1.362   4.749
 7364TIP3    H222057   2.834   1.237   4.834
 7365TIP3   OH222058   6.039   2.007   4.290
 7365TIP3    H122059   6.102   2.004   4.362
 7365TIP3    H222060   6.084   1.964   4.217
 7366TIP3   OH222061   3.300   4.885   5.735
 7366TIP3    H122062   3.299   4.790   5.732
 7366TIP3    H222063   3.302   4.913   5.644
 7367TIP3   OH222064   2.504   2.839   1.940
 7367TIP3    H122065   2.419   2.877   1.962
 7367TIP3    H222066   2.561   2.914   1.925
 7368TIP3   OH222067   0.941   0.477   2.589
 7368TIP3    H122068   0.941   0.419   2.513
 7368TIP3    H222069   0.914   0.421   2.662
 7369TIP3   OH222070   1.008   1.222   0.104
 7369TIP3    H122071   1.017   1.271   0.022
 7369TIP3    H222072   0.959   1.281   0.162
 7370TIP3   OH222073   6.229   0.484   4.110
 7370TIP3    H122074   6.207   0.499   4.202
 7370TIP3    H222075   6.325   0.477   4.110
 7371TIP3   OH222076   1.551   1.636   5.207
 7371TIP3    H122077   1.587   1.563   5.258
 7371TIP3    H222078   1.619   1.703   5.209
 7372TIP3   OH222079   6.151   3.305   0.498
 7372TIP3    H122080   6.061   3.321   0.526
 7372TIP3    H222081   6.182   3.390   0.464
 7373TIP3   OH222082   3.786   5.797   1.028
 7373TIP3    H122083   3.717   5.843   1.075
 7373TIP3    H222084   3.867   5.844   1.050
 7374TIP3   OH222085   4.747   0.907   2.086
 7374TIP3    H122086   4.793   0.839   2.037
 7374TIP3    H222087   4.783   0.989   2.053
 7375TIP3   OH222088   6.200   4.552   2.571
 7375TIP3    H122089   6.221   4.645   2.564
 7375TIP3    H222090   6.271   4.515   2.624
 7376TIP3   OH222091   6.218   3.142   2.774
 7376TIP3    H122092   6.289   3.194   2.810
 7376TIP3    H222093   6.261   3.067   2.733
 7377TIP3   OH222094   0.132   1.813   0.927
 7377TIP3    H122095   0.214   1.771   0.899
 7377TIP3    H222096   0.069   1.741   0.935
 7378TIP3   OH222097   4.153   0.296   5.495
 7378TIP3    H122098   4.113   0.290   5.582
 7378TIP3    H222099   4.080   0.322   5.438
 7379TIP3   OH222100   0.916   5.639   1.341
 7379TIP3    H122101   0.982   5.575   1.313
 7379TIP3    H222102   0.925   5.644   1.436
 7380TIP3   OH222103   5.546   0.965   5.751
 7380TIP3    H122104   5.498   0.923   5.822
 7380TIP3    H222105   5.482   1.024   5.710
 7381TIP3   OH222106   5.782   3.873   1.840
 7381TIP3    H122107   5.822   3.801   1.791
 7381TIP3    H222108   5.853   3.908   1.894
 7382TIP3   OH222109   0.835   2.783   0.996
 7382TIP3    H122110   0.840   2.748   0.907
 7382TIP3    H222111   0.912   2.839   1.004
 7383TIP3   OH222112   3.326   4.732   3.652
 7383TIP3    H122113   3.279   4.779   3.721
 7383TIP3    H222114   3.344   4.799   3.586
 7384TIP3   OH222115   2.210   0.729   2.195
 7384TIP3    H122116   2.193   0.766   2.108
 7384TIP3    H222117   2.306   0.733   2.204
 7385TIP3   OH222118   1.025   5.942   0.930
 7385TIP3    H122119   0.980   5.972   0.851
 7385TIP3    H222120   1.026   6.019   0.988
 7386TIP3   OH222121   5.824   2.650   1.982
 7386TIP3    H122122   5.903   2.676   2.028
 7386TIP3    H222123   5.807   2.722   1.921
 7387TIP3   OH222124   5.901   4.069   3.047
 7387TIP3    H122125   5.824   4.121   3.027
 7387TIP3    H222126   5.901   4.000   2.981
 7388TIP3   OH222127   2.746   0.152   4.330
 7388TIP3    H122128   2.798   0.232   4.341
 7388TIP3    H222129   2.802   0.093   4.281
 7389TIP3   OH222130   5.527   6.701   4.593
 7389TIP3    H122131   5.610   6.709   4.545
 7389TIP3    H222132   5.542   6.748   4.675
 7390TIP3   OH222133   4.174   6.318   5.399
 7390TIP3    H122134   4.267   6.321   5.419
 7390TIP3    H222135   4.168   6.282   5.311
 7391TIP3   OH222136   0.280   0.029   2.681
 7391TIP3    H122137   0.329   0.095   2.730
 7391TIP3    H222138   0.262   0.071   2.597
 7392TIP3   OH222139   3.835   3.403   3.125
 7392TIP3    H122140   3.864   3.326   3.174
 7392TIP3    H222141   3.870   3.389   3.037
 7393TIP3   OH222142   5.208   6.571   5.483
 7393TIP3    H122143   5.130   6.604   5.527
 7393TIP3    H222144   5.180   6.555   5.393
 7394TIP3   OH222145   1.736   0.423   4.720
 7394TIP3    H122146   1.728   0.508   4.676
 7394TIP3    H222147   1.827   0.420   4.750
 7395TIP3   OH222148   6.347   0.345   2.756
 7395TIP3    H122149   6.326   0.437   2.745
 7395TIP3    H222150   6.329   0.306   2.670
 7396TIP3   OH222151   4.376   4.075   0.620
 7396TIP3    H122152   4.350   4.121   0.699
 7396TIP3    H222153   4.369   3.982   0.643
 7397TIP3   OH222154   1.037   3.188   4.485
 7397TIP3    H122155   0.964   3.248   4.500
 7397TIP3    H222156   1.101   3.240   4.436
 7398TIP3   OH222157   6.135   6.298   2.132
 7398TIP3    H122158   6.084   6.249   2.067
 7398TIP3    H222159   6.125   6.249   2.213
 7399TIP3   OH222160   3.030   2.577   4.746
 7399TIP3    H122161   2.963   2.640   4.720
 7399TIP3    H222162   3.030   2.512   4.675
 7400TIP3   OH222163   6.611   6.620   4.350
 7400TIP3    H122164   6.519   6.642   4.362
 7400TIP3    H222165   6.617   6.584   4.262
 7401TIP3   OH222166   0.325   6.635   2.654
 7401TIP3    H122167   0.411   6.598   2.672
 7401TIP3    H222168   0.270   6.560   2.633
 7402TIP3   OH222169   2.073   3.903   4.126
 7402TIP3    H122170   2.057   3.976   4.185
 7402TIP3    H222171   2.145   3.932   4.070
 7403TIP3   OH222172   4.757   0.042   4.917
 7403TIP3    H122173   4.713   0.044   5.002
 7403TIP3    H222174   4.825  -0.025   4.927
 7404TIP3   OH222175   3.594   6.650   2.173
 7404TIP3    H122176   3.578   6.726   2.230
 7404TIP3    H222177   3.506   6.617   2.153
 7405TIP3   OH222178   2.535   1.989   4.913
 7405TIP3    H122179   2.446   2.025   4.918
 7405TIP3    H222180   2.587   2.045   4.970
 7406TIP3   OH222181   1.870   4.584   1.153
 7406TIP3    H122182   1.877   4.620   1.241
 7406TIP3    H222183   1.823   4.651   1.103
 7407TIP3   OH222184   0.187   4.601   0.297
 7407TIP3    H122185   0.213   4.531   0.237
 7407TIP3    H222186   0.114   4.645   0.252
 7408TIP3   OH222187   4.743   6.451   4.277
 7408TIP3    H122188   4.724   6.388   4.347
 7408TIP3    H222189   4.779   6.398   4.206
 7409TIP3   OH222190   3.080   2.418   2.896
 7409TIP3    H122191   3.054   2.474   2.969
 7409TIP3    H222192   3.173   2.436   2.883
 7410TIP3   OH222193   5.404   3.780   5.715
 7410TIP3    H122194   5.479   3.733   5.679
 7410TIP3    H222195   5.329   3.727   5.692
 7411TIP3   OH222196   3.934   6.171   1.697
 7411TIP3    H122197   3.966   6.261   1.688
 7411TIP3    H222198   4.007   6.124   1.738
 7412TIP3   OH222199   3.026   3.507   1.769
 7412TIP3    H122200   3.007   3.413   1.775
 7412TIP3    H222201   2.941   3.548   1.761
 7413TIP3   OH222202   6.736   2.200   0.615
 7413TIP3    H122203   6.701   2.288   0.622
 7413TIP3    H222204   6.667   2.149   0.573
 7414TIP3   OH222205   1.352   4.168   5.849
 7414TIP3    H122206   1.326   4.199   5.763
 7414TIP3    H222207   1.380   4.247   5.896
 7415TIP3   OH222208   1.958   0.840   0.069
 7415TIP3    H122209   1.912   0.841  -0.016
 7415TIP3    H222210   1.895   0.799   0.129
 7416TIP3   OH222211   3.747   3.275   4.210
 7416TIP3    H122212   3.711   3.260   4.298
 7416TIP3    H222213   3.681   3.241   4.150
 7417TIP3   OH222214   3.297   0.287   2.521
 7417TIP3    H122215   3.359   0.352   2.487
 7417TIP3    H222216   3.338   0.203   2.503
 7418TIP3   OH222217   1.320   4.096   1.688
 7418TIP3    H122218   1.254   4.056   1.744
 7418TIP3    H222219   1.271   4.153   1.628
 7419TIP3   OH222220   2.980   1.888   5.678
 7419TIP3    H122221   2.998   1.798   5.651
 7419TIP3    H222222   2.923   1.879   5.754
 7420TIP3   OH222223   4.453   1.677   0.162
 7420TIP3    H122224   4.403   1.746   0.118
 7420TIP3    H222225   4.543   1.690   0.132
 7421TIP3   OH222226   1.849   5.129   1.733
 7421TIP3    H122227   1.763   5.169   1.722
 7421TIP3    H222228   1.831   5.035   1.743
 7422TIP3   OH222229   3.980   2.030   1.879
 7422TIP3    H122230   4.028   2.106   1.843
 7422TIP3    H222231   3.888   2.051   1.863
 7423TIP3   OH222232   5.769   5.892   5.850
 7423TIP3    H122233   5.697   5.932   5.800
 7423TIP3    H222234   5.744   5.904   5.942
 7424TIP3   OH222235   6.087   6.225   4.010
 7424TIP3    H122236   6.036   6.159   4.056
 7424TIP3    H222237   6.117   6.181   3.930
 7425TIP3   OH222238   4.989   2.348   4.990
 7425TIP3    H122239   4.945   2.265   5.007
 7425TIP3    H222240   5.040   2.365   5.070
 7426TIP3   OH222241   6.212   0.233   5.572
 7426TIP3    H122242   6.144   0.296   5.545
 7426TIP3    H222243   6.294   0.282   5.566
 7427TIP3   OH222244   4.430   0.080   4.099
 7427TIP3    H122245   4.369   0.009   4.082
 7427TIP3    H222246   4.375   0.158   4.110
 7428TIP3   OH222247   3.475   4.284   3.207
 7428TIP3    H122248   3.459   4.190   3.200
 7428TIP3    H222249   3.509   4.296   3.296
 7429TIP3   OH222250   0.175   1.911   1.602
 7429TIP3    H122251   0.137   1.938   1.685
 7429TIP3    H222252   0.222   1.988   1.571
 7430TIP3   OH222253   5.973   5.884   3.508
 7430TIP3    H122254   6.010   5.812   3.459
 7430TIP3    H222255   6.030   5.959   3.489
 7431TIP3   OH222256   4.434   6.383   2.097
 7431TIP3    H122257   4.522   6.368   2.130
 7431TIP3    H222258   4.377   6.344   2.163
 7432TIP3   OH222259   2.808   0.462   2.162
 7432TIP3    H122260   2.781   0.370   2.162
 7432TIP3    H222261   2.892   0.462   2.117
 7433TIP3   OH222262   4.453   2.868   0.123
 7433TIP3    H122263   4.372   2.892   0.169
 7433TIP3    H222264   4.461   2.933   0.053
 7434TIP3   OH222265   3.848   2.721   1.396
 7434TIP3    H122266   3.806   2.637   1.415
 7434TIP3    H222267   3.785   2.786   1.427
 7435TIP3   OH222268   1.815   0.164   1.445
 7435TIP3    H122269   1.879   0.126   1.384
 7435TIP3    H222270   1.737   0.178   1.391
 7436TIP3   OH222271   3.129   1.181   4.765
 7436TIP3    H122272   3.045   1.226   4.754
 7436TIP3    H222273   3.124   1.108   4.703
 7437TIP3   OH222274   5.008   4.998   0.782
 7437TIP3    H122275   4.957   5.039   0.712
 7437TIP3    H222276   5.040   4.917   0.743
 7438TIP3   OH222277   1.981   1.859   5.046
 7438TIP3    H122278   1.926   1.937   5.051
 7438TIP3    H222279   1.919   1.787   5.038
 7439TIP3   OH222280   2.705   5.600   5.191
 7439TIP3    H122281   2.637   5.537   5.216
 7439TIP3    H222282   2.734   5.636   5.275
 7440TIP3   OH222283   6.672   6.824   1.723
 7440TIP3    H122284   6.678   6.752   1.787
 7440TIP3    H222285   6.672   6.780   1.638
 7441TIP3   OH222286   3.695   4.101   4.328
 7441TIP3    H122287   3.745   4.038   4.380
 7441TIP3    H222288   3.702   4.070   4.238
 7442TIP3   OH222289   6.235   0.773   2.543
 7442TIP3    H122290   6.278   0.857   2.526
 7442TIP3    H222291   6.168   0.767   2.475
 7443TIP3   OH222292   1.943   2.217   5.338
 7443TIP3    H122293   2.017   2.159   5.356
 7443TIP3    H222294   1.981   2.305   5.340
 7444TIP3   OH222295   1.103   6.489   2.316
 7444TIP3    H122296   1.108   6.403   2.274
 7444TIP3    H222297   1.171   6.486   2.383
 7445TIP3   OH222298   1.535   2.326   3.575
 7445TIP3    H122299   1.543   2.420   3.589
 7445TIP3    H222300   1.602   2.305   3.509
 7446TIP3   OH222301   6.840   2.127   1.373
 7446TIP3    H122302   6.911   2.113   1.436
 7446TIP3    H222303   6.761   2.101   1.420
 7447TIP3   OH222304   1.584   5.796   2.747
 7447TIP3    H122305   1.601   5.802   2.841
 7447TIP3    H222306   1.580   5.702   2.729
 7448TIP3   OH222307   0.155   0.477   3.426
 7448TIP3    H122308   0.091   0.438   3.485
 7448TIP3    H222309   0.213   0.528   3.483
 7449TIP3   OH222310   1.999   1.437   4.855
 7449TIP3    H122311   2.044   1.353   4.850
 7449TIP3    H222312   2.070   1.501   4.861
 7450TIP3   OH222313   5.645   4.937   1.971
 7450TIP3    H122314   5.697   4.866   2.009
 7450TIP3    H222315   5.637   4.915   1.878
 7451TIP3   OH222316   1.871   0.535   5.538
 7451TIP3    H122317   1.907   0.536   5.449
 7451TIP3    H222318   1.822   0.452   5.542
 7452TIP3   OH222319   0.652   5.497   0.178
 7452TIP3    H122320   0.571   5.453   0.204
 7452TIP3    H222321   0.720   5.456   0.231
 7453TIP3   OH222322   4.977   0.090   3.271
 7453TIP3    H122323   4.894   0.045   3.253
 7453TIP3    H222324   4.965   0.127   3.359
 7454TIP3   OH222325   2.674   0.497   3.217
 7454TIP3    H122326   2.676   0.420   3.274
 7454TIP3    H222327   2.641   0.465   3.134
 7455TIP3   OH222328   1.790   3.484   0.516
 7455TIP3    H122329   1.731   3.449   0.450
 7455TIP3    H222330   1.874   3.494   0.471
 7456TIP3   OH222331   4.255   0.191   4.406
 7456TIP3    H122332   4.336   0.174   4.357
 7456TIP3    H222333   4.193   0.221   4.339
 7457TIP3   OH222334   1.625   4.322   3.973
 7457TIP3    H122335   1.638   4.256   4.041
 7457TIP3    H222336   1.709   4.329   3.929
 7458TIP3   OH222337   5.566   2.386   4.002
 7458TIP3    H122338   5.479   2.348   3.984
 7458TIP3    H222339   5.622   2.310   4.019
 7459TIP3   OH222340   1.457   1.983   5.328
 7459TIP3    H122341   1.467   2.060   5.383
 7459TIP3    H222342   1.401   2.012   5.256
 7460TIP3   OH222343   0.779   3.447   3.427
 7460TIP3    H122344   0.774   3.500   3.507
 7460TIP3    H222345   0.859   3.395   3.437
 7461TIP3   OH222346   1.138   1.081   5.400
 7461TIP3    H122347   1.069   1.065   5.337
 7461TIP3    H222348   1.143   1.176   5.407
 7462TIP3   OH222349   2.201   3.263   4.869
 7462TIP3    H122350   2.275   3.244   4.927
 7462TIP3    H222351   2.125   3.263   4.927
 7463TIP3   OH222352   6.502   0.361   0.244
 7463TIP3    H122353   6.519   0.375   0.151
 7463TIP3    H222354   6.434   0.426   0.265
 7464TIP3   OH222355   5.575   2.634   0.878
 7464TIP3    H122356   5.585   2.654   0.971
 7464TIP3    H222357   5.519   2.703   0.844
 7465TIP3   OH222358   2.962   6.747   4.716
 7465TIP3    H122359   2.888   6.698   4.680
 7465TIP3    H222360   2.954   6.834   4.675
 7466TIP3   OH222361   6.345   4.661   1.667
 7466TIP3    H122362   6.410   4.725   1.639
 7466TIP3    H222363   6.262   4.693   1.630
 7467TIP3   OH222364   1.263   1.375   1.495
 7467TIP3    H122365   1.189   1.327   1.532
 7467TIP3    H222366   1.241   1.467   1.509
 7468TIP3   OH222367   0.275   2.992   3.026
 7468TIP3    H122368   0.218   3.018   2.954
 7468TIP3    H222369   0.218   2.995   3.103
 7469TIP3   OH222370   0.592   6.565   2.153
 7469TIP3    H122371   0.677   6.597   2.181
 7469TIP3    H222372   0.548   6.539   2.234
 7470TIP3   OH222373   5.899   0.915   4.141
 7470TIP3    H122374   5.860   1.000   4.160
 7470TIP3    H222375   5.866   0.893   4.054
 7471TIP3   OH222376   1.721   3.687   2.438
 7471TIP3    H122377   1.685   3.647   2.358
 7471TIP3    H222378   1.651   3.678   2.503
 7472TIP3   OH222379   4.305   0.864   1.805
 7472TIP3    H122380   4.373   0.926   1.778
 7472TIP3    H222381   4.238   0.871   1.737
 7473TIP3   OH222382   1.853   1.869   0.052
 7473TIP3    H122383   1.888   1.793   0.099
 7473TIP3    H222384   1.768   1.840   0.021
 7474TIP3   OH222385   0.973   1.954   2.819
 7474TIP3    H122386   0.962   1.866   2.854
 7474TIP3    H222387   0.983   1.941   2.724
 7475TIP3   OH222388   3.957   0.538   3.559
 7475TIP3    H122389   3.955   0.622   3.605
 7475TIP3    H222390   3.873   0.498   3.579
 7476TIP3   OH222391   4.156   6.403   4.975
 7476TIP3    H122392   4.232   6.461   4.977
 7476TIP3    H222393   4.114   6.420   4.891
 7477TIP3   OH222394   6.879   2.799   3.519
 7477TIP3    H122395   6.879   2.895   3.510
 7477TIP3    H222396   6.961   2.779   3.564
 7478TIP3   OH222397   2.373  -0.022   1.469
 7478TIP3    H122398   2.381  -0.052   1.559
 7478TIP3    H222399   2.354   0.071   1.476
 7479TIP3   OH222400   0.062   3.924   0.899
 7479TIP3    H122401   0.081   3.937   0.992
 7479TIP3    H222402   0.090   3.834   0.881
 7480TIP3   OH222403   0.324   0.616   0.162
 7480TIP3    H122404   0.346   0.698   0.119
 7480TIP3    H222405   0.272   0.568   0.098
 7481TIP3   OH222406   3.821   5.493   1.288
 7481TIP3    H122407   3.903   5.470   1.245
 7481TIP3    H222408   3.826   5.587   1.301
 7482TIP3   OH222409   0.869   2.455   2.009
 7482TIP3    H122410   0.865   2.359   2.007
 7482TIP3    H222411   0.951   2.477   1.965
 7483TIP3   OH222412   4.925   3.963   2.276
 7483TIP3    H122413   4.955   3.878   2.307
 7483TIP3    H222414   4.997   4.023   2.297
 7484TIP3   OH222415   1.530   1.152   2.397
 7484TIP3    H122416   1.553   1.098   2.322
 7484TIP3    H222417   1.439   1.130   2.415
 7485TIP3   OH222418   6.424   6.259   5.205
 7485TIP3    H122419   6.438   6.323   5.135
 7485TIP3    H222420   6.495   6.275   5.267
 7486TIP3   OH222421   5.806   5.899   0.949
 7486TIP3    H122422   5.839   5.930   1.033
 7486TIP3    H222423   5.875   5.842   0.915
 7487TIP3   OH222424   4.975   2.553   1.656
 7487TIP3    H122425   4.982   2.587   1.566
 7487TIP3    H222426   5.065   2.543   1.685
 7488TIP3   OH222427   0.721   4.911   1.914
 7488TIP3    H122428   0.692   4.969   1.844
 7488TIP3    H222429   0.651   4.914   1.980
 7489TIP3   OH222430   1.414   5.901   0.041
 7489TIP3    H122431   1.402   5.940   0.127
 7489TIP3    H222432   1.325   5.891   0.006
 7490TIP3   OH222433   7.199   6.740   2.453
 7490TIP3    H122434   7.160   6.827   2.451
 7490TIP3    H222435   7.165   6.701   2.533
 7491TIP3   OH222436   5.272   1.124   0.379
 7491TIP3    H122437   5.276   1.029   0.368
 7491TIP3    H222438   5.327   1.158   0.308
 7492TIP3   OH222439   6.038   6.184   1.455
 7492TIP3    H122440   6.086   6.148   1.380
 7492TIP3    H222441   6.104   6.191   1.524
 7493TIP3   OH222442   3.590   0.396   2.393
 7493TIP3    H122443   3.574   0.473   2.446
 7493TIP3    H222444   3.606   0.326   2.456
 7494TIP3   OH222445   0.960   5.468   5.493
 7494TIP3    H122446   0.989   5.463   5.584
 7494TIP3    H222447   0.983   5.557   5.465
 7495TIP3   OH222448   2.350   2.130   1.218
 7495TIP3    H122449   2.416   2.193   1.248
 7495TIP3    H222450   2.305   2.102   1.298
 7496TIP3   OH222451   2.344   4.004   0.450
 7496TIP3    H122452   2.353   4.097   0.469
 7496TIP3    H222453   2.287   3.971   0.520
 7497TIP3   OH222454   2.882   5.661   4.852
 7497TIP3    H122455   2.951   5.697   4.909
 7497TIP3    H222456   2.909   5.685   4.764
 7498TIP3   OH222457   5.460   6.568   0.297
 7498TIP3    H122458   5.416   6.620   0.230
 7498TIP3    H222459   5.541   6.537   0.255
 7499TIP3   OH222460   3.178   1.145   3.728
 7499TIP3    H122461   3.171   1.200   3.650
 7499TIP3    H222462   3.107   1.175   3.785
 7500TIP3   OH222463   0.893   5.358   0.297
 7500TIP3    H122464   0.915   5.301   0.223
 7500TIP3    H222465   0.964   5.344   0.360
 7501TIP3   OH222466   5.313   2.282   5.206
 7501TIP3    H122467   5.307   2.192   5.239
 7501TIP3    H222468   5.392   2.282   5.151
 7502TIP3   OH222469   5.463   2.733   1.417
 7502TIP3    H122470   5.529   2.802   1.431
 7502TIP3    H222471   5.382   2.771   1.450
 7503TIP3   OH222472   1.593   3.109   1.496
 7503TIP3    H122473   1.501   3.103   1.471
 7503TIP3    H222474   1.640   3.120   1.412
 7504TIP3   OH222475   2.769   5.282   0.699
 7504TIP3    H122476   2.795   5.196   0.733
 7504TIP3    H222477   2.684   5.299   0.741
 7505TIP3   OH222478   6.047   0.409   5.466
 7505TIP3    H122479   6.097   0.470   5.411
 7505TIP3    H222480   6.011   0.464   5.536
 7506TIP3   OH222481   5.301   2.981   1.256
 7506TIP3    H122482   5.369   2.953   1.318
 7506TIP3    H222483   5.342   2.969   1.170
 7507TIP3   OH222484   6.396   5.338   5.114
 7507TIP3    H122485   6.457   5.411   5.100
 7507TIP3    H222486   6.452   5.266   5.144
 7508TIP3   OH222487   6.323   1.141   1.469
 7508TIP3    H122488   6.347   1.092   1.548
 7508TIP3    H222489   6.232   1.167   1.484
 7509TIP3   OH222490   2.409   4.925   5.859
 7509TIP3    H122491   2.335   4.924   5.920
 7509TIP3    H222492   2.390   4.856   5.796
 7510TIP3   OH222493   1.063   6.318   4.820
 7510TIP3    H122494   1.065   6.350   4.729
 7510TIP3    H222495   1.001   6.377   4.864
 7511TIP3   OH222496   0.132   2.830   1.898
 7511TIP3    H122497   0.062   2.882   1.857
 7511TIP3    H222498   0.090   2.746   1.917
 7512TIP3   OH222499   2.908   2.617   0.497
 7512TIP3    H122500   2.898   2.604   0.403
 7512TIP3    H222501   2.940   2.532   0.529
 7513TIP3   OH222502   6.987   3.451   4.720
 7513TIP3    H122503   7.054   3.490   4.776
 7513TIP3    H222504   6.909   3.504   4.736
 7514TIP3   OH222505   6.966   6.296   4.916
 7514TIP3    H122506   6.992   6.241   4.842
 7514TIP3    H222507   7.000   6.250   4.993
 7515TIP3   OH222508   7.029   1.958   5.075
 7515TIP3    H122509   7.048   2.052   5.077
 7515TIP3    H222510   6.935   1.953   5.062
 7516TIP3   OH222511   7.064   4.520   3.247
 7516TIP3    H122512   7.025   4.593   3.199
 7516TIP3    H222513   7.137   4.491   3.192
 7517TIP3   OH222514   2.502   0.716   0.265
 7517TIP3    H122515   2.512   0.624   0.244
 7517TIP3    H222516   2.457   0.717   0.350
 7518TIP3   OH222517   7.141   2.225   0.993
 7518TIP3    H122518   7.212   2.195   0.937
 7518TIP3    H222519   7.118   2.148   1.046
 7519TIP3   OH222520   6.780   1.603   5.174
 7519TIP3    H122521   6.859   1.582   5.124
 7519TIP3    H222522   6.730   1.661   5.117
 7520TIP3   OH222523   0.964   3.805   2.278
 7520TIP3    H122524   0.996   3.749   2.349
 7520TIP3    H222525   0.907   3.869   2.322
 7521TIP3   OH222526   3.442   4.255   1.519
 7521TIP3    H122527   3.363   4.224   1.476
 7521TIP3    H222528   3.504   4.271   1.448
 7522TIP3   OH222529   4.601   5.408   0.431
 7522TIP3    H122530   4.645   5.450   0.357
 7522TIP3    H222531   4.534   5.354   0.391
 7523TIP3   OH222532   1.226   2.497   1.653
 7523TIP3    H122533   1.151   2.470   1.600
 7523TIP3    H222534   1.282   2.419   1.656
 7524TIP3   OH222535   1.376   2.853   4.454
 7524TIP3    H122536   1.322   2.919   4.412
 7524TIP3    H222537   1.435   2.822   4.384
 7525TIP3   OH222538   4.716   6.005   2.091
 7525TIP3    H122539   4.705   5.985   2.184
 7525TIP3    H222540   4.694   5.923   2.047
 7526TIP3   OH222541   0.970   4.802   0.791
 7526TIP3    H122542   0.880   4.815   0.820
 7526TIP3    H222543   0.962   4.775   0.700
 7527TIP3   OH222544   2.580   2.648   0.353
 7527TIP3    H122545   2.519   2.598   0.298
 7527TIP3    H222546   2.631   2.581   0.399
 7528TIP3   OH222547   2.218   1.836   1.708
 7528TIP3    H122548   2.299   1.884   1.690
 7528TIP3    H222549   2.219   1.764   1.645
 7529TIP3   OH222550   6.265   4.210   0.773
 7529TIP3    H122551   6.336   4.161   0.730
 7529TIP3    H222552   6.303   4.242   0.854
 7530TIP3   OH222553   4.213   5.598   5.668
 7530TIP3    H122554   4.234   5.671   5.726
 7530TIP3    H222555   4.130   5.564   5.701
 7531TIP3   OH222556   1.605   3.005   3.876
 7531TIP3    H122557   1.522   2.973   3.910
 7531TIP3    H222558   1.581   3.063   3.804
 7532TIP3   OH222559   6.447   0.029   3.487
 7532TIP3    H122560   6.506   0.080   3.543
 7532TIP3    H222561   6.367   0.020   3.539
 7533TIP3   OH222562   3.445   1.334   4.331
 7533TIP3    H122563   3.372   1.294   4.377
 7533TIP3    H222564   3.408   1.364   4.248
 7534TIP3   OH222565   3.309   0.225   4.395
 7534TIP3    H122566   3.367   0.271   4.455
 7534TIP3    H222567   3.305   0.281   4.318
 7535TIP3   OH222568   0.553   2.790   4.400
 7535TIP3    H122569   0.580   2.864   4.345
 7535TIP3    H222570   0.498   2.830   4.467
 7536TIP3   OH222571   0.727   3.724   0.746
 7536TIP3    H122572   0.720   3.630   0.729
 7536TIP3    H222573   0.693   3.735   0.834
 7537TIP3   OH222574   1.563   0.358   5.366
 7537TIP3    H122575   1.479   0.323   5.398
 7537TIP3    H222576   1.627   0.328   5.430
 7538TIP3   OH222577   5.212   5.659   0.663
 7538TIP3    H122578   5.169   5.586   0.618
 7538TIP3    H222579   5.193   5.645   0.756
 7539TIP3   OH222580   4.154   4.948   1.063
 7539TIP3    H122581   4.203   4.943   1.145
 7539TIP3    H222582   4.096   5.024   1.075
 7540TIP3   OH222583   7.261   2.579   4.042
 7540TIP3    H122584   7.299   2.653   3.994
 7540TIP3    H222585   7.168   2.580   4.016
 7541TIP3   OH222586   6.131   1.569   1.988
 7541TIP3    H122587   6.120   1.635   1.920
 7541TIP3    H222588   6.214   1.591   2.031
 7542TIP3   OH222589   2.920   3.433   1.422
 7542TIP3    H122590   2.851   3.468   1.477
 7542TIP3    H222591   2.886   3.349   1.391
 7543TIP3   OH222592   2.311   4.949   2.238
 7543TIP3    H122593   2.244   4.937   2.170
 7543TIP3    H222594   2.360   4.867   2.237
 7544TIP3   OH222595   4.774   4.968   0.918
 7544TIP3    H122596   4.741   5.055   0.941
 7544TIP3    H222597   4.868   4.982   0.903
 7545TIP3   OH222598   3.270   6.333   5.465
 7545TIP3    H122599   3.243   6.365   5.378
 7545TIP3    H222600   3.318   6.406   5.503
 7546TIP3   OH222601   2.446   2.202   2.817
 7546TIP3    H122602   2.527   2.229   2.774
 7546TIP3    H222603   2.418   2.123   2.770
 7547TIP3   OH222604   6.637   3.325   4.600
 7547TIP3    H122605   6.688   3.307   4.680
 7547TIP3    H222606   6.546   3.313   4.627
 7548TIP3   OH222607   3.621   4.766   1.705
 7548TIP3    H122608   3.538   4.779   1.659
 7548TIP3    H222609   3.674   4.712   1.646
 7549TIP3   OH222610   5.931   3.059   2.524
 7549TIP3    H122611   5.994   3.010   2.471
 7549TIP3    H222612   5.846   3.022   2.499
 7550TIP3   OH222613   2.833   4.299   1.118
 7550TIP3    H122614   2.754   4.316   1.067
 7550TIP3    H222615   2.904   4.335   1.065
 7551TIP3   OH222616   1.337   3.068   4.951
 7551TIP3    H122617   1.268   3.122   4.911
 7551TIP3    H222618   1.298   3.038   5.033
 7552TIP3   OH222619   2.114   2.816   5.532
 7552TIP3    H122620   2.196   2.824   5.483
 7552TIP3    H222621   2.046   2.843   5.470
 7553TIP3   OH222622   6.452   5.065   4.546
 7553TIP3    H122623   6.534   5.080   4.593
 7553TIP3    H222624   6.399   5.013   4.606
 7554TIP3   OH222625   1.978   6.001   4.226
 7554TIP3    H122626   1.910   5.944   4.262
 7554TIP3    H222627   1.949   6.090   4.248
 7555TIP3   OH222628   5.212   6.175   2.865
 7555TIP3    H122629   5.215   6.245   2.800
 7555TIP3    H222630   5.230   6.095   2.816
 7556TIP3   OH222631   2.139   4.111   4.565
 7556TIP3    H122632   2.075   4.043   4.545
 7556TIP3    H222633   2.215   4.063   4.597
 7557TIP3   OH222634   5.897   1.646   1.654
 7557TIP3    H122635   5.946   1.676   1.731
 7557TIP3    H222636   5.811   1.687   1.662
 7558TIP3   OH222637   5.192   3.339   5.097
 7558TIP3    H122638   5.227   3.258   5.058
 7558TIP3    H222639   5.239   3.347   5.180
 7559TIP3   OH222640   4.518   5.657   5.303
 7559TIP3    H122641   4.542   5.723   5.367
 7559TIP3    H222642   4.600   5.612   5.282
 7560TIP3   OH222643   0.401   4.014   0.947
 7560TIP3    H122644   0.493   4.036   0.933
 7560TIP3    H222645   0.391   3.927   0.909
 7561TIP3   OH222646   5.260   0.903   2.725
 7561TIP3    H122647   5.272   0.822   2.676
 7561TIP3    H222648   5.311   0.892   2.805
 7562TIP3   OH222649   5.636   1.621   0.525
 7562TIP3    H122650   5.645   1.623   0.430
 7562TIP3    H222651   5.708   1.676   0.557
 7563TIP3   OH222652   6.112   1.226   0.675
 7563TIP3    H122653   6.078   1.144   0.641
 7563TIP3    H222654   6.063   1.294   0.629
 7564TIP3   OH222655   1.151   6.537   1.867
 7564TIP3    H122656   1.223   6.593   1.837
 7564TIP3    H222657   1.178   6.449   1.841
 7565TIP3   OH222658   3.439   2.008   0.143
 7565TIP3    H122659   3.409   2.082   0.196
 7565TIP3    H222660   3.533   2.004   0.160
 7566TIP3   OH222661   5.066   6.535   5.249
 7566TIP3    H122662   4.989   6.494   5.210
 7566TIP3    H222663   5.090   6.605   5.189
 7567TIP3   OH222664   5.213   4.894   0.479
 7567TIP3    H122665   5.161   4.905   0.400
 7567TIP3    H222666   5.221   4.799   0.491
 7568TIP3   OH222667   5.682   0.455   4.197
 7568TIP3    H122668   5.732   0.486   4.122
 7568TIP3    H222669   5.602   0.419   4.159
 7569TIP3   OH222670   2.021   2.599   5.056
 7569TIP3    H122671   2.001   2.588   5.149
 7569TIP3    H222672   1.970   2.676   5.030
 7570TIP3   OH222673   1.649   2.355   2.623
 7570TIP3    H122674   1.671   2.265   2.645
 7570TIP3    H222675   1.669   2.405   2.702
 7571TIP3   OH222676   6.284   5.209   3.196
 7571TIP3    H122677   6.252   5.122   3.224
 7571TIP3    H222678   6.208   5.250   3.155
 7572TIP3   OH222679   2.733   3.099   5.673
 7572TIP3    H122680   2.742   3.194   5.663
 7572TIP3    H222681   2.690   3.071   5.593
 7573TIP3   OH222682   5.270   4.601   0.596
 7573TIP3    H122683   5.215   4.564   0.665
 7573TIP3    H222684   5.238   4.560   0.516
 7574TIP3   OH222685   1.562   0.335   1.315
 7574TIP3    H122686   1.609   0.417   1.302
 7574TIP3    H222687   1.515   0.348   1.398
 7575TIP3   OH222688   4.450   1.087   1.705
 7575TIP3    H122689   4.517   1.019   1.712
 7575TIP3    H222690   4.477   1.140   1.630
 7576TIP3   OH222691   4.512   4.011   4.293
 7576TIP3    H122692   4.445   3.944   4.302
 7576TIP3    H222693   4.520   4.049   4.380
 7577TIP3   OH222694   2.899   4.819   5.609
 7577TIP3    H122695   2.941   4.883   5.667
 7577TIP3    H222696   2.914   4.852   5.521
 7578TIP3   OH222697   7.039   6.178   0.876
 7578TIP3    H122698   7.029   6.223   0.960
 7578TIP3    H222699   7.122   6.130   0.885
 7579TIP3   OH222700   3.326   2.015   1.542
 7579TIP3    H122701   3.327   1.941   1.603
 7579TIP3    H222702   3.376   2.083   1.588
 7580TIP3   OH222703   6.902   3.613   1.702
 7580TIP3    H122704   6.922   3.707   1.698
 7580TIP3    H222705   6.924   3.581   1.614
 7581TIP3   OH222706   0.387   3.953   5.848
 7581TIP3    H122707   0.331   3.879   5.872
 7581TIP3    H222708   0.410   3.937   5.757
 7582TIP3   OH222709   6.111   5.118   0.994
 7582TIP3    H122710   6.092   5.103   1.086
 7582TIP3    H222711   6.063   5.198   0.972
 7583TIP3   OH222712   4.120   4.930   3.643
 7583TIP3    H122713   4.190   4.991   3.667
 7583TIP3    H222714   4.114   4.870   3.716
 7584TIP3   OH222715   3.505   5.752   3.383
 7584TIP3    H122716   3.559   5.679   3.411
 7584TIP3    H222717   3.416   5.728   3.409
 7585TIP3   OH222718   3.747   2.987   2.950
 7585TIP3    H122719   3.729   2.998   3.044
 7585TIP3    H222720   3.824   3.042   2.935
 7586TIP3   OH222721   4.030   2.208   1.305
 7586TIP3    H122722   4.023   2.133   1.364
 7586TIP3    H222723   3.956   2.198   1.245
 7587TIP3   OH222724   3.896   4.689   0.884
 7587TIP3    H122725   3.836   4.762   0.902
 7587TIP3    H222726   3.939   4.672   0.967
 7588TIP3   OH222727   2.326   3.486   4.312
 7588TIP3    H122728   2.346   3.464   4.221
 7588TIP3    H222729   2.400   3.539   4.342
 7589TIP3   OH222730   4.548   1.294   1.537
 7589TIP3    H122731   4.628   1.341   1.512
 7589TIP3    H222732   4.505   1.351   1.600
 7590TIP3   OH222733   2.386   0.811   5.618
 7590TIP3    H122734   2.426   0.726   5.639
 7590TIP3    H222735   2.310   0.789   5.564
 7591TIP3   OH222736   4.511   4.711   1.304
 7591TIP3    H122737   4.595   4.752   1.282
 7591TIP3    H222738   4.457   4.782   1.338
 7592TIP3   OH222739   2.480   5.221   4.194
 7592TIP3    H122740   2.478   5.241   4.100
 7592TIP3    H222741   2.403   5.266   4.229
 7593TIP3   OH222742   4.343   3.641   5.435
 7593TIP3    H122743   4.316   3.731   5.450
 7593TIP3    H222744   4.263   3.595   5.411
 7594TIP3   OH222745   5.935   5.063   0.689
 7594TIP3    H122746   5.847   5.099   0.680
 7594TIP3    H222747   5.929   5.005   0.765
 7595TIP3   OH222748   5.569   4.573   3.381
 7595TIP3    H122749   5.494   4.521   3.411
 7595TIP3    H222750   5.536   4.662   3.377
 7596TIP3   OH222751   3.564   4.155   5.468
 7596TIP3    H122752   3.653   4.132   5.497
 7596TIP3    H222753   3.577   4.193   5.381
 7597TIP3   OH222754   4.608   3.538   4.310
 7597TIP3    H122755   4.581   3.540   4.218
 7597TIP3    H222756   4.572   3.619   4.346
 7598TIP3   OH222757   2.217   6.418   2.050
 7598TIP3    H122758   2.214   6.429   1.955
 7598TIP3    H222759   2.127   6.432   2.079
 7599TIP3   OH222760   5.657   2.990   3.652
 7599TIP3    H122761   5.712   2.974   3.575
 7599TIP3    H222762   5.713   2.967   3.726
 7600TIP3   OH222763   0.234   3.722   2.249
 7600TIP3    H122764   0.236   3.653   2.315
 7600TIP3    H222765   0.161   3.699   2.192
 7601TIP3   OH222766   7.102   0.295   2.858
 7601TIP3    H122767   7.158   0.230   2.899
 7601TIP3    H222768   7.023   0.296   2.912
 7602TIP3   OH222769   0.264   2.461   1.908
 7602TIP3    H122770   0.216   2.532   1.865
 7602TIP3    H222771   0.293   2.498   1.991
 7603TIP3   OH222772   1.421   2.214   2.152
 7603TIP3    H122773   1.375   2.298   2.146
 7603TIP3    H222774   1.374   2.166   2.220
 7604TIP3   OH222775   4.109   1.072   2.794
 7604TIP3    H122776   4.187   1.079   2.849
 7604TIP3    H222777   4.056   1.005   2.837
 7605TIP3   OH222778   0.263   2.367   4.015
 7605TIP3    H122779   0.232   2.456   4.033
 7605TIP3    H222780   0.262   2.324   4.100
 7606TIP3   OH222781   5.312   5.926   1.763
 7606TIP3    H122782   5.326   5.986   1.689
 7606TIP3    H222783   5.310   5.983   1.840
 7607TIP3   OH222784   4.638   5.554   1.198
 7607TIP3    H122785   4.580   5.626   1.173
 7607TIP3    H222786   4.582   5.494   1.248
 7608TIP3   OH222787   0.542   2.138   1.673
 7608TIP3    H122788   0.573   2.082   1.602
 7608TIP3    H222789   0.448   2.125   1.675
 7609TIP3   OH222790   2.843   4.124   0.546
 7609TIP3    H122791   2.755   4.120   0.584
 7609TIP3    H222792   2.840   4.199   0.487
 7610TIP3   OH222793   0.447   1.655   4.518
 7610TIP3    H122794   0.445   1.734   4.573
 7610TIP3    H222795   0.531   1.659   4.473
 7611TIP3   OH222796   6.468   0.314   2.226
 7611TIP3    H122797   6.528   0.240   2.232
 7611TIP3    H222798   6.419   0.299   2.145
 7612TIP3   OH222799   1.600   2.364   1.278
 7612TIP3    H122800   1.605   2.455   1.307
 7612TIP3    H222801   1.522   2.330   1.322
 7613TIP3   OH222802   6.418   2.568   2.160
 7613TIP3    H122803   6.344   2.593   2.214
 7613TIP3    H222804   6.457   2.650   2.132
 7614TIP3   OH222805   3.767   1.261   3.371
 7614TIP3    H122806   3.854   1.224   3.388
 7614TIP3    H222807   3.709   1.216   3.432
 7615TIP3   OH222808   2.273   6.097   3.211
 7615TIP3    H122809   2.357   6.132   3.180
 7615TIP3    H222810   2.263   6.015   3.162
 7616TIP3   OH222811   4.356   0.431   3.518
 7616TIP3    H122812   4.450   0.439   3.532
 7616TIP3    H222813   4.317   0.500   3.571
 7617TIP3   OH222814   2.163   6.326   5.088
 7617TIP3    H122815   2.119   6.259   5.035
 7617TIP3    H222816   2.165   6.403   5.031
 7618TIP3   OH222817   3.619   0.776   5.123
 7618TIP3    H122818   3.583   0.742   5.205
 7618TIP3    H222819   3.549   0.759   5.059
 7619TIP3   OH222820   6.503   2.396   4.492
 7619TIP3    H122821   6.518   2.301   4.491
 7619TIP3    H222822   6.590   2.434   4.483
 7620TIP3   OH222823   0.127   0.042   0.472
 7620TIP3    H122824   0.072   0.114   0.439
 7620TIP3    H222825   0.106   0.037   0.565
 7621TIP3   OH222826   2.782   4.982   2.507
 7621TIP3    H122827   2.816   4.921   2.573
 7621TIP3    H222828   2.733   4.927   2.446
 7622TIP3   OH222829   6.945   0.675   5.318
 7622TIP3    H122830   6.894   0.597   5.337
 7622TIP3    H222831   7.025   0.665   5.370
 7623TIP3   OH222832   1.190   2.122   0.689
 7623TIP3    H122833   1.168   2.187   0.756
 7623TIP3    H222834   1.286   2.123   0.685
 7624TIP3   OH222835   6.711   3.834   4.621
 7624TIP3    H122836   6.628   3.801   4.588
 7624TIP3    H222837   6.689   3.917   4.663
 7625TIP3   OH222838   4.182   4.075   4.473
 7625TIP3    H122839   4.098   4.106   4.506
 7625TIP3    H222840   4.240   4.151   4.480
 7626TIP3   OH222841   1.018   2.998   1.065
 7626TIP3    H122842   1.106   2.961   1.051
 7626TIP3    H222843   1.011   3.006   1.160
 7627TIP3   OH222844   6.509   3.144   2.707
 7627TIP3    H122845   6.542   3.078   2.645
 7627TIP3    H222846   6.495   3.222   2.653
 7628TIP3   OH222847   3.275   4.195   1.304
 7628TIP3    H122848   3.254   4.273   1.254
 7628TIP3    H222849   3.251   4.122   1.246
 7629TIP3   OH222850   0.793   5.558   1.079
 7629TIP3    H122851   0.835   5.573   1.163
 7629TIP3    H222852   0.781   5.645   1.042
 7630TIP3   OH222853   5.366   6.173   0.991
 7630TIP3    H122854   5.318   6.102   0.948
 7630TIP3    H222855   5.455   6.139   1.000
 7631TIP3   OH222856   7.023   0.228   2.061
 7631TIP3    H122857   7.096   0.266   2.110
 7631TIP3    H222858   7.045   0.245   1.969
 7632TIP3   OH222859   1.044   2.802   0.661
 7632TIP3    H122860   1.100   2.774   0.588
 7632TIP3    H222861   1.033   2.896   0.647
 7633TIP3   OH222862   3.780   2.684   5.826
 7633TIP3    H122863   3.818   2.637   5.752
 7633TIP3    H222864   3.855   2.709   5.880
 7634TIP3   OH222865   2.599   3.994   0.625
 7634TIP3    H122866   2.533   4.017   0.690
 7634TIP3    H222867   2.560   4.019   0.541
 7635TIP3   OH222868   1.086   4.973   4.026
 7635TIP3    H122869   1.170   5.019   4.016
 7635TIP3    H222870   1.076   4.962   4.121
 7636TIP3   OH222871   0.493   1.056   2.976
 7636TIP3    H122872   0.574   1.007   2.960
 7636TIP3    H222873   0.522   1.138   3.017
 7637TIP3   OH222874   4.489   5.334   3.277
 7637TIP3    H122875   4.433   5.281   3.219
 7637TIP3    H222876   4.495   5.283   3.357
 7638TIP3   OH222877   1.642   1.059   1.559
 7638TIP3    H122878   1.687   1.058   1.644
 7638TIP3    H222879   1.549   1.054   1.581
 7639TIP3   OH222880   1.860   2.045   3.869
 7639TIP3    H122881   1.897   2.128   3.839
 7639TIP3    H222882   1.790   2.026   3.806
 7640TIP3   OH222883   4.074   0.661   5.354
 7640TIP3    H122884   4.033   0.668   5.440
 7640TIP3    H222885   4.004   0.684   5.293
 7641TIP3   OH222886   3.488   4.982   2.518
 7641TIP3    H122887   3.504   5.034   2.439
 7641TIP3    H222888   3.401   4.945   2.506
 7642TIP3   OH222889   0.372   4.053   2.690
 7642TIP3    H122890   0.442   4.010   2.640
 7642TIP3    H222891   0.373   4.144   2.660
 7643TIP3   OH222892   5.834   3.393   5.895
 7643TIP3    H122893   5.895   3.417   5.965
 7643TIP3    H222894   5.866   3.439   5.818
 7644TIP3   OH222895   6.738   1.030   5.039
 7644TIP3    H122896   6.833   1.018   5.033
 7644TIP3    H222897   6.723   1.064   5.126
 7645TIP3   OH222898   2.089   4.374   1.070
 7645TIP3    H122899   2.000   4.406   1.085
 7645TIP3    H222900   2.079   4.279   1.059
 7646TIP3   OH222901   6.323   4.243   5.100
 7646TIP3    H122902   6.346   4.232   5.193
 7646TIP3    H222903   6.382   4.311   5.069
 7647TIP3   OH222904   3.386   5.577   2.875
 7647TIP3    H122905   3.441   5.510   2.835
 7647TIP3    H222906   3.378   5.551   2.967
 7648TIP3   OH222907   6.322   5.261   1.200
 7648TIP3    H122908   6.393   5.248   1.137
 7648TIP3    H222909   6.312   5.356   1.207
 7649TIP3   OH222910   2.345   4.464   0.891
 7649TIP3    H122911   2.271   4.515   0.858
 7649TIP3    H222912   2.419   4.490   0.835
 7650TIP3   OH222913   2.163   3.598   5.223
 7650TIP3    H122914   2.205   3.634   5.301
 7650TIP3    H222915   2.203   3.511   5.212
 7651TIP3   OH222916   3.505   5.897   5.442
 7651TIP3    H122917   3.429   5.846   5.413
 7651TIP3    H222918   3.531   5.947   5.365
 7652TIP3   OH222919   0.039   0.954   4.140
 7652TIP3    H122920   0.021   0.902   4.218
 7652TIP3    H222921  -0.023   1.027   4.145
 7653TIP3   OH222922   2.809   4.980   5.000
 7653TIP3    H122923   2.887   4.962   5.053
 7653TIP3    H222924   2.779   5.066   5.031
 7654TIP3   OH222925   2.961   1.401   2.169
 7654TIP3    H122926   3.013   1.364   2.097
 7654TIP3    H222927   2.881   1.349   2.168
 7655TIP3   OH222928   6.671   2.412   1.827
 7655TIP3    H122929   6.745   2.375   1.779
 7655TIP3    H222930   6.598   2.352   1.809
 7656TIP3   OH222931   1.059   5.366   3.604
 7656TIP3    H122932   1.149   5.343   3.584
 7656TIP3    H222933   1.007   5.297   3.563
 7657TIP3   OH222934   5.342   5.852   4.345
 7657TIP3    H122935   5.319   5.905   4.268
 7657TIP3    H222936   5.261   5.805   4.366
 7658TIP3   OH222937   4.587   5.154   3.017
 7658TIP3    H122938   4.537   5.086   3.061
 7658TIP3    H222939   4.679   5.135   3.038
 7659TIP3   OH222940   1.259   1.856   5.494
 7659TIP3    H122941   1.332   1.887   5.441
 7659TIP3    H222942   1.181   1.880   5.444
 7660TIP3   OH222943   3.630   4.759   5.803
 7660TIP3    H122944   3.725   4.771   5.806
 7660TIP3    H222945   3.602   4.764   5.894
 7661TIP3   OH222946   0.525   4.846   1.605
 7661TIP3    H122947   0.571   4.776   1.649
 7661TIP3    H222948   0.580   4.868   1.529
 7662TIP3   OH222949   2.484   0.708   1.802
 7662TIP3    H122950   2.501   0.619   1.830
 7662TIP3    H222951   2.520   0.763   1.872
 7663TIP3   OH222952   0.066   0.099   0.046
 7663TIP3    H122953  -0.017   0.125   0.086
 7663TIP3    H222954   0.107   0.041   0.111
 7664TIP3   OH222955   1.176   3.429   1.158
 7664TIP3    H122956   1.264   3.398   1.181
 7664TIP3    H222957   1.137   3.355   1.112
 7665TIP3   OH222958   2.918   1.896   3.532
 7665TIP3    H122959   2.858   1.850   3.590
 7665TIP3    H222960   2.887   1.986   3.531
 7666TIP3   OH222961   5.632   1.426   2.252
 7666TIP3    H122962   5.686   1.350   2.273
 7666TIP3    H222963   5.547   1.389   2.228
 7667TIP3   OH222964   5.880   2.195   3.694
 7667TIP3    H122965   5.891   2.230   3.782
 7667TIP3    H222966   5.865   2.101   3.708
 7668TIP3   OH222967   3.884   1.815   1.576
 7668TIP3    H122968   3.801   1.817   1.624
 7668TIP3    H222969   3.858   1.802   1.485
 7669TIP3   OH222970   1.562   4.765   0.285
 7669TIP3    H122971   1.490   4.789   0.343
 7669TIP3    H222972   1.595   4.682   0.319
 7670TIP3   OH222973   5.267   6.616   2.064
 7670TIP3    H122974   5.272   6.578   2.152
 7670TIP3    H222975   5.175   6.607   2.040
 7671TIP3   OH222976   5.154   5.685   0.942
 7671TIP3    H122977   5.209   5.737   1.001
 7671TIP3    H222978   5.081   5.657   0.997
 7672TIP3   OH222979   6.784   4.241   3.130
 7672TIP3    H122980   6.698   4.203   3.150
 7672TIP3    H222981   6.781   4.328   3.170
 7673TIP3   OH222982   0.907   1.646   4.983
 7673TIP3    H122983   0.908   1.702   4.906
 7673TIP3    H222984   0.852   1.692   5.046
 7674TIP3   OH222985   4.495   1.630   1.313
 7674TIP3    H122986   4.517   1.718   1.282
 7674TIP3    H222987   4.467   1.643   1.404
 7675TIP3   OH222988   5.126   5.262   5.100
 7675TIP3    H122989   5.184   5.249   5.025
 7675TIP3    H222990   5.039   5.242   5.066
 7676TIP3   OH222991   7.139   3.857   1.819
 7676TIP3    H122992   7.080   3.869   1.744
 7676TIP3    H222993   7.175   3.944   1.835
 7677TIP3   OH222994   0.808   1.289   5.187
 7677TIP3    H122995   0.869   1.301   5.114
 7677TIP3    H222996   0.829   1.359   5.248
 7678TIP3   OH222997   2.953   0.374   0.112
 7678TIP3    H122998   2.876   0.426   0.134
 7678TIP3    H222999   2.958   0.378   0.016
 7679TIP3   OH223000   3.591   6.402   2.688
 7679TIP3    H123001   3.581   6.430   2.596
 7679TIP3    H223002   3.556   6.475   2.739
 7680TIP3   OH223003   3.556   0.418   0.390
 7680TIP3    H123004   3.541   0.340   0.443
 7680TIP3    H223005   3.649   0.438   0.403
 7681TIP3   OH223006   6.538   6.521   1.076
 7681TIP3    H123007   6.505   6.443   1.032
 7681TIP3    H223008   6.633   6.516   1.066
 7682TIP3   OH223009   1.717   1.770   1.143
 7682TIP3    H123010   1.626   1.742   1.153
 7682TIP3    H223011   1.766   1.715   1.203
 7683TIP3   OH223012   2.273   5.745   1.923
 7683TIP3    H123013   2.324   5.760   2.002
 7683TIP3    H223014   2.182   5.756   1.951
 7684TIP3   OH223015   5.215   3.634   2.548
 7684TIP3    H123016   5.270   3.584   2.608
 7684TIP3    H223017   5.126   3.603   2.565
 7685TIP3   OH223018   3.386   3.308   5.093
 7685TIP3    H123019   3.372   3.262   5.176
 7685TIP3    H223020   3.469   3.273   5.060
 7686TIP3   OH223021   2.528   3.681   1.691
 7686TIP3    H123022   2.468   3.668   1.618
 7686TIP3    H223023   2.541   3.776   1.695
 7687TIP3   OH223024   3.888   4.180   3.458
 7687TIP3    H123025   3.813   4.125   3.437
 7687TIP3    H223026   3.868   4.217   3.544
 7688TIP3   OH223027   0.744   1.533   2.113
 7688TIP3    H123028   0.657   1.574   2.117
 7688TIP3    H223029   0.796   1.593   2.059
 7689TIP3   OH223030   6.596   4.222   2.748
 7689TIP3    H123031   6.589   4.218   2.653
 7689TIP3    H223032   6.669   4.163   2.769
 7690TIP3   OH223033   4.714   2.894   5.042
 7690TIP3    H123034   4.639   2.852   5.083
 7690TIP3    H223035   4.681   2.924   4.957
 7691TIP3   OH223036   6.070   0.068   4.810
 7691TIP3    H123037   6.085   0.009   4.884
 7691TIP3    H223038   5.985   0.108   4.829
 7692TIP3   OH223039   6.858   6.455   0.240
 7692TIP3    H123040   6.945   6.436   0.205
 7692TIP3    H223041   6.822   6.369   0.263
 7693TIP3   OH223042   4.612   4.913   3.351
 7693TIP3    H123043   4.607   4.841   3.288
 7693TIP3    H223044   4.695   4.899   3.397
 7694TIP3   OH223045   2.881   6.595   0.547
 7694TIP3    H123046   2.963   6.605   0.499
 7694TIP3    H223047   2.841   6.516   0.512
 7695TIP3   OH223048   2.216   5.109   3.973
 7695TIP3    H123049   2.269   5.188   3.963
 7695TIP3    H223050   2.273   5.048   4.021
 7696TIP3   OH223051   2.752   6.386   3.858
 7696TIP3    H123052   2.812   6.390   3.932
 7696TIP3    H223053   2.739   6.293   3.842
 7697TIP3   OH223054   2.146   5.952   0.363
 7697TIP3    H123055   2.099   6.019   0.312
 7697TIP3    H223056   2.091   5.938   0.441
 7698TIP3   OH223057   1.897   1.277   5.092
 7698TIP3    H123058   1.946   1.240   5.019
 7698TIP3    H223059   1.909   1.371   5.085
 7699TIP3   OH223060   1.894   1.033   2.684
 7699TIP3    H123061   1.942   1.076   2.613
 7699TIP3    H223062   1.812   1.005   2.644
 7700TIP3   OH223063   4.047   0.295   1.909
 7700TIP3    H123064   4.054   0.386   1.879
 7700TIP3    H223065   4.026   0.303   2.003
 7701TIP3   OH223066   6.146   4.210   0.362
 7701TIP3    H123067   6.160   4.127   0.408
 7701TIP3    H223068   6.088   4.260   0.420
 7702TIP3   OH223069   6.960   0.580   2.233
 7702TIP3    H123070   6.902   0.597   2.159
 7702TIP3    H223071   6.901   0.581   2.309
 7703TIP3   OH223072   4.272   4.799   0.811
 7703TIP3    H123073   4.346   4.765   0.860
 7703TIP3    H223074   4.221   4.848   0.876
 7704TIP3   OH223075   4.147   6.075   0.506
 7704TIP3    H123076   4.236   6.051   0.534
 7704TIP3    H223077   4.115   6.133   0.576
 7705TIP3   OH223078   4.652   4.557   3.542
 7705TIP3    H123079   4.606   4.481   3.506
 7705TIP3    H223080   4.725   4.572   3.482
 7706TIP3   OH223081   4.937   6.330   5.535
 7706TIP3    H123082   4.922   6.415   5.492
 7706TIP3    H223083   4.965   6.353   5.624
 7707TIP3   OH223084   6.633   3.903   2.403
 7707TIP3    H123085   6.706   3.875   2.458
 7707TIP3    H223086   6.574   3.829   2.402
 7708TIP3   OH223087   6.670   2.467   5.736
 7708TIP3    H123088   6.723   2.511   5.668
 7708TIP3    H223089   6.580   2.478   5.707
 7709TIP3   OH223090   1.863   2.320   1.329
 7709TIP3    H123091   1.889   2.228   1.325
 7709TIP3    H223092   1.767   2.318   1.321
 7710TIP3   OH223093   0.393   1.476   0.430
 7710TIP3    H123094   0.352   1.389   0.437
 7710TIP3    H223095   0.470   1.470   0.487
 7711TIP3   OH223096   0.239   1.513   0.200
 7711TIP3    H123097   0.216   1.422   0.183
 7711TIP3    H223098   0.285   1.511   0.283
 7712TIP3   OH223099   2.587   2.320   0.090
 7712TIP3    H123100   2.544   2.354   0.012
 7712TIP3    H223101   2.552   2.231   0.100
 7713TIP3   OH223102   1.811   0.107   4.205
 7713TIP3    H123103   1.847   0.035   4.257
 7713TIP3    H223104   1.801   0.179   4.267
 7714TIP3   OH223105   1.347   4.733   1.649
 7714TIP3    H123106   1.391   4.669   1.594
 7714TIP3    H223107   1.415   4.767   1.706
 7715TIP3   OH223108   0.200   5.577   2.354
 7715TIP3    H123109   0.166   5.501   2.403
 7715TIP3    H223110   0.151   5.651   2.390
 7716TIP3   OH223111   7.053   3.444   5.075
 7716TIP3    H123112   7.086   3.456   4.986
 7716TIP3    H223113   7.106   3.505   5.128
 7717TIP3   OH223114   1.181   0.265   2.902
 7717TIP3    H123115   1.268   0.236   2.876
 7717TIP3    H223116   1.123   0.231   2.835
 7718TIP3   OH223117   2.602   2.473   3.985
 7718TIP3    H123118   2.598   2.500   3.893
 7718TIP3    H223119   2.672   2.408   3.988
 7719TIP3   OH223120   6.755   1.953   0.046
 7719TIP3    H123121   6.826   1.898   0.013
 7719TIP3    H223122   6.797   2.012   0.109
 7720TIP3   OH223123   4.323   5.530   3.522
 7720TIP3    H123124   4.286   5.443   3.534
 7720TIP3    H223125   4.382   5.521   3.447
 7721TIP3   OH223126   1.817   4.182   4.215
 7721TIP3    H123127   1.785   4.124   4.285
 7721TIP3    H223128   1.875   4.244   4.260
 7722TIP3   OH223129   2.554   3.154   4.976
 7722TIP3    H123130   2.554   3.157   4.880
 7722TIP3    H223131   2.574   3.244   5.002
 7723TIP3   OH223132   0.390   5.703   5.483
 7723TIP3    H123133   0.406   5.796   5.500
 7723TIP3    H223134   0.297   5.691   5.502
 7724TIP3   OH223135   6.884   5.737   0.747
 7724TIP3    H123136   6.846   5.824   0.752
 7724TIP3    H223137   6.904   5.714   0.838
 7725TIP3   OH223138   1.886   3.748   3.072
 7725TIP3    H123139   1.830   3.800   3.130
 7725TIP3    H223140   1.975   3.769   3.099
 7726TIP3   OH223141   2.603   3.426   2.435
 7726TIP3    H123142   2.595   3.496   2.499
 7726TIP3    H223143   2.695   3.428   2.408
 7727TIP3   OH223144   2.528   3.880   5.901
 7727TIP3    H123145   2.451   3.839   5.940
 7727TIP3    H223146   2.508   3.884   5.807
 7728TIP3   OH223147   0.025   4.146   3.948
 7728TIP3    H123148  -0.017   4.066   3.978
 7728TIP3    H223149   0.099   4.159   4.006
 7729TIP3   OH223150   5.844   1.204   3.953
 7729TIP3    H123151   5.821   1.175   3.864
 7729TIP3    H223152   5.917   1.264   3.940
 7730TIP3   OH223153   0.355   3.872   5.344
 7730TIP3    H123154   0.369   3.779   5.361
 7730TIP3    H223155   0.277   3.894   5.395
 7731TIP3   OH223156   6.886   2.644   1.688
 7731TIP3    H123157   6.938   2.569   1.718
 7731TIP3    H223158   6.818   2.654   1.755
 7732TIP3   OH223159   2.537   2.124   4.225
 7732TIP3    H123160   2.479   2.088   4.292
 7732TIP3    H223161   2.602   2.056   4.210
 7733TIP3   OH223162   2.857   2.187   3.550
 7733TIP3    H123163   2.953   2.190   3.558
 7733TIP3    H223164   2.825   2.234   3.627
 7734TIP3   OH223165   2.028   0.106   0.318
 7734TIP3    H123166   1.957   0.122   0.255
 7734TIP3    H223167   1.985   0.112   0.404
 7735TIP3   OH223168   2.082   6.253   1.646
 7735TIP3    H123169   2.092   6.317   1.716
 7735TIP3    H223170   2.138   6.180   1.672
 7736TIP3   OH223171   6.315   5.424   5.449
 7736TIP3    H123172   6.321   5.359   5.519
 7736TIP3    H223173   6.230   5.466   5.462
 7737TIP3   OH223174   2.789   6.205   5.294
 7737TIP3    H123175   2.732   6.279   5.273
 7737TIP3    H223176   2.800   6.158   5.211
 7738TIP3   OH223177   2.696   4.533   0.159
 7738TIP3    H123178   2.643   4.601   0.116
 7738TIP3    H223179   2.783   4.545   0.122
 7739TIP3   OH223180   6.603   5.687   0.068
 7739TIP3    H123181   6.561   5.681   0.154
 7739TIP3    H223182   6.586   5.602   0.028
 7740TIP3   OH223183   1.653   5.495   1.424
 7740TIP3    H123184   1.613   5.483   1.338
 7740TIP3    H223185   1.637   5.413   1.470
 7741TIP3   OH223186   1.079   0.724   3.885
 7741TIP3    H123187   1.014   0.670   3.840
 7741TIP3    H223188   1.129   0.766   3.814
 7742TIP3   OH223189   1.908   5.319   2.345
 7742TIP3    H123190   1.955   5.367   2.276
 7742TIP3    H223191   1.823   5.299   2.307
 7743TIP3   OH223192   0.491   4.630   5.592
 7743TIP3    H123193   0.418   4.587   5.636
 7743TIP3    H223194   0.559   4.636   5.659
 7744TIP3   OH223195   1.508   5.993   2.964
 7744TIP3    H123196   1.520   5.909   3.009
 7744TIP3    H223197   1.594   6.035   2.968
 7745TIP3   OH223198   1.986   0.621   1.170
 7745TIP3    H123199   1.968   0.705   1.212
 7745TIP3    H223200   1.969   0.635   1.077
 7746TIP3   OH223201   5.160   3.799   3.854
 7746TIP3    H123202   5.223   3.727   3.853
 7746TIP3    H223203   5.076   3.758   3.873
 7747TIP3   OH223204   1.244   1.282   4.062
 7747TIP3    H123205   1.258   1.239   3.977
 7747TIP3    H223206   1.285   1.368   4.052
 7748TIP3   OH223207   6.079   3.027   4.109
 7748TIP3    H123208   6.174   3.024   4.099
 7748TIP3    H223209   6.054   2.936   4.123
 7749TIP3   OH223210   2.696   3.950   0.278
 7749TIP3    H123211   2.787   3.976   0.269
 7749TIP3    H223212   2.650   4.029   0.305
 7750TIP3   OH223213   6.371   2.141   1.924
 7750TIP3    H123214   6.404   2.064   1.878
 7750TIP3    H223215   6.407   2.134   2.012
 7751TIP3   OH223216   3.296   3.118   2.203
 7751TIP3    H123217   3.382   3.125   2.244
 7751TIP3    H223218   3.240   3.078   2.270
 7752TIP3   OH223219   1.755   3.008   0.883
 7752TIP3    H123220   1.744   3.008   0.788
 7752TIP3    H223221   1.671   3.041   0.917
 7753TIP3   OH223222   5.841   4.728   2.944
 7753TIP3    H123223   5.761   4.685   2.972
 7753TIP3    H223224   5.822   4.762   2.857
 7754TIP3   OH223225   4.099   5.702   3.469
 7754TIP3    H123226   4.088   5.752   3.550
 7754TIP3    H223227   4.180   5.653   3.482
 7755TIP3   OH223228   3.269   6.634   0.300
 7755TIP3    H123229   3.244   6.725   0.310
 7755TIP3    H223230   3.269   6.619   0.205
 7756TIP3   OH223231   1.550   4.320   5.621
 7756TIP3    H123232   1.465   4.297   5.584
 7756TIP3    H223233   1.575   4.245   5.675
 7757TIP3   OH223234   5.726   3.334   3.837
 7757TIP3    H123235   5.802   3.314   3.892
 7757TIP3    H223236   5.652   3.329   3.897
 7758TIP3   OH223237   1.038   1.314   0.657
 7758TIP3    H123238   1.010   1.247   0.720
 7758TIP3    H223239   1.133   1.308   0.655
 7759TIP3   OH223240   2.776   0.540   2.447
 7759TIP3    H123241   2.785   0.465   2.389
 7759TIP3    H223242   2.812   0.614   2.398
 7760TIP3   OH223243   5.164   2.156   2.253
 7760TIP3    H123244   5.127   2.244   2.254
 7760TIP3    H223245   5.220   2.153   2.331
 7761TIP3   OH223246   4.322   3.223   3.446
 7761TIP3    H123247   4.350   3.306   3.484
 7761TIP3    H223248   4.251   3.247   3.386
 7762TIP3   OH223249   6.349   6.007   2.823
 7762TIP3    H123250   6.355   6.095   2.785
 7762TIP3    H223251   6.260   6.002   2.859
 7763TIP3   OH223252   3.788   5.017   2.662
 7763TIP3    H123253   3.697   5.015   2.631
 7763TIP3    H223254   3.825   5.095   2.622
 7764TIP3   OH223255   4.297   4.142   3.828
 7764TIP3    H123256   4.240   4.080   3.873
 7764TIP3    H223257   4.334   4.093   3.754
 7765TIP3   OH223258   0.800   1.090   2.049
 7765TIP3    H123259   0.727   1.150   2.065
 7765TIP3    H223260   0.765   1.003   2.070
 7766TIP3   OH223261   5.309   6.191   5.785
 7766TIP3    H123262   5.344   6.209   5.872
 7766TIP3    H223263   5.324   6.272   5.736
 7767TIP3   OH223264   4.729   0.783   3.127
 7767TIP3    H123265   4.754   0.693   3.147
 7767TIP3    H223266   4.812   0.828   3.108
 7768TIP3   OH223267   6.007   3.438   4.607
 7768TIP3    H123268   5.923   3.466   4.571
 7768TIP3    H223269   5.992   3.431   4.701
 7769TIP3   OH223270   0.956   1.994   1.734
 7769TIP3    H123271   0.947   1.904   1.764
 7769TIP3    H223272   1.006   1.988   1.653
 7770TIP3   OH223273   0.325   3.509   1.038
 7770TIP3    H123274   0.303   3.418   1.020
 7770TIP3    H223275   0.243   3.548   1.069
 7771TIP3   OH223276   0.054   4.325   2.840
 7771TIP3    H123277  -0.019   4.369   2.885
 7771TIP3    H223278   0.097   4.396   2.791
 7772TIP3   OH223279   6.125   1.249   5.846
 7772TIP3    H123280   6.092   1.337   5.831
 7772TIP3    H223281   6.079   1.219   5.924
 7773TIP3   OH223282   4.269   0.421   4.689
 7773TIP3    H123283   4.267   0.445   4.596
 7773TIP3    H223284   4.332   0.349   4.694
 7774TIP3   OH223285   6.264   5.649   3.716
 7774TIP3    H123286   6.249   5.557   3.695
 7774TIP3    H223287   6.359   5.656   3.721
 7775TIP3   OH223288   5.623   1.949   4.953
 7775TIP3    H123289   5.681   1.967   4.879
 7775TIP3    H223290   5.547   2.006   4.940
 7776TIP3   OH223291   2.360   1.849   1.149
 7776TIP3    H123292   2.374   1.937   1.183
 7776TIP3    H223293   2.390   1.853   1.059
 7777TIP3   OH223294   5.930   6.702   2.961
 7777TIP3    H123295   5.870   6.668   2.895
 7777TIP3    H223296   5.874   6.720   3.037
 7778TIP3   OH223297   3.553   4.303   0.647
 7778TIP3    H123298   3.490   4.232   0.662
 7778TIP3    H223299   3.589   4.285   0.560
 7779TIP3   OH223300   2.923   2.653   4.481
 7779TIP3    H123301   2.886   2.741   4.485
 7779TIP3    H223302   2.932   2.635   4.387
 7780TIP3   OH223303   1.292   4.438   2.641
 7780TIP3    H123304   1.258   4.479   2.721
 7780TIP3    H223305   1.343   4.508   2.599
 7781TIP3   OH223306   1.309   5.912   3.709
 7781TIP3    H123307   1.225   5.893   3.752
 7781TIP3    H223308   1.286   5.970   3.637
 7782TIP3   OH223309   0.652   5.689   3.177
 7782TIP3    H123310   0.620   5.602   3.200
 7782TIP3    H223311   0.715   5.674   3.107
 7783TIP3   OH223312   6.034   1.305   2.550
 7783TIP3    H123313   6.018   1.212   2.535
 7783TIP3    H223314   6.091   1.308   2.627
 7784TIP3   OH223315   5.298   1.525   0.307
 7784TIP3    H123316   5.319   1.432   0.301
 7784TIP3    H223317   5.219   1.529   0.362
 7785TIP3   OH223318   2.109   6.155   5.756
 7785TIP3    H123319   2.157   6.205   5.691
 7785TIP3    H223320   2.167   6.082   5.778
 7786TIP3   OH223321   0.832   3.898   3.777
 7786TIP3    H123322   0.922   3.866   3.767
 7786TIP3    H223323   0.813   3.887   3.870
 7787TIP3   OH223324   4.776   5.984   3.550
 7787TIP3    H123325   4.820   6.036   3.483
 7787TIP3    H223326   4.823   5.901   3.551
 7788TIP3   OH223327   3.093   4.223   2.846
 7788TIP3    H123328   3.088   4.131   2.873
 7788TIP3    H223329   3.002   4.250   2.838
 7789TIP3   OH223330   4.995   2.896   0.781
 7789TIP3    H123331   4.976   2.888   0.875
 7789TIP3    H223332   4.909   2.897   0.740
 7790TIP3   OH223333   0.705   0.618   4.688
 7790TIP3    H123334   0.672   0.684   4.748
 7790TIP3    H223335   0.743   0.551   4.745
 7791TIP3   OH223336   0.680   2.667   4.189
 7791TIP3    H123337   0.623   2.711   4.252
 7791TIP3    H223338   0.620   2.637   4.120
 7792TIP3   OH223339   2.695   6.292   2.434
 7792TIP3    H123340   2.718   6.209   2.476
 7792TIP3    H223341   2.621   6.325   2.485
 7793TIP3   OH223342   2.236   4.503   1.796
 7793TIP3    H123343   2.230   4.407   1.805
 7793TIP3    H223344   2.290   4.517   1.719
 7794TIP3   OH223345   0.500   4.805   5.123
 7794TIP3    H123346   0.488   4.884   5.070
 7794TIP3    H223347   0.425   4.804   5.182
 7795TIP3   OH223348   7.083   6.715   5.632
 7795TIP3    H123349   7.089   6.684   5.542
 7795TIP3    H223350   7.015   6.782   5.630
 7796TIP3   OH223351   3.216   3.323   5.830
 7796TIP3    H123352   3.245   3.273   5.754
 7796TIP3    H223353   3.255   3.278   5.905
 7797TIP3   OH223354   5.472   1.739   0.237
 7797TIP3    H123355   5.418   1.667   0.269
 7797TIP3    H223356   5.551   1.697   0.203
 7798TIP3   OH223357   0.345   5.285   5.634
 7798TIP3    H123358   0.264   5.320   5.596
 7798TIP3    H223359   0.317   5.203   5.676
 7799TIP3   OH223360   6.686   1.773   4.983
 7799TIP3    H123361   6.725   1.837   4.923
 7799TIP3    H223362   6.592   1.782   4.969
 7800TIP3   OH223363   4.969   5.741   3.086
 7800TIP3    H123364   5.062   5.721   3.078
 7800TIP3    H223365   4.944   5.776   3.000
 7801TIP3   OH223366   0.851   2.115   1.313
 7801TIP3    H123367   0.863   2.152   1.400
 7801TIP3    H223368   0.849   2.190   1.254
 7802TIP3   OH223369   6.606   3.855   5.174
 7802TIP3    H123370   6.637   3.823   5.259
 7802TIP3    H223371   6.681   3.902   5.137
 7803TIP3   OH223372   0.716   3.573   4.982
 7803TIP3    H123373   0.628   3.572   4.944
 7803TIP3    H223374   0.741   3.481   4.989
 7804TIP3   OH223375   0.251   5.710   0.645
 7804TIP3    H123376   0.216   5.786   0.692
 7804TIP3    H223377   0.176   5.655   0.628
 7805TIP3   OH223378   4.671   3.988   1.745
 7805TIP3    H123379   4.628   4.016   1.826
 7805TIP3    H223380   4.690   3.895   1.758
 7806TIP3   OH223381   2.555   5.143   2.801
 7806TIP3    H123382   2.640   5.132   2.760
 7806TIP3    H223383   2.496   5.090   2.748
 7807TIP3   OH223384   3.963   4.069   5.087
 7807TIP3    H123385   4.020   4.107   5.020
 7807TIP3    H223386   3.908   4.141   5.116
 7808TIP3   OH223387   1.681   0.854   0.278
 7808TIP3    H123388   1.749   0.829   0.341
 7808TIP3    H223389   1.696   0.798   0.202
 7809TIP3   OH223390   1.714   1.951   0.659
 7809TIP3    H123391   1.766   2.031   0.652
 7809TIP3    H223392   1.751   1.904   0.734
 7810TIP3   OH223393   1.434   0.906   2.719
 7810TIP3    H123394   1.484   0.881   2.797
 7810TIP3    H223395   1.496   0.956   2.666
 7811TIP3   OH223396   5.613   3.941   3.273
 7811TIP3    H123397   5.641   4.033   3.268
 7811TIP3    H223398   5.695   3.892   3.270
 7812TIP3   OH223399   3.908   0.083   1.787
 7812TIP3    H123400   3.988   0.125   1.819
 7812TIP3    H223401   3.929   0.057   1.697
 7813TIP3   OH223402   3.041   6.676   3.808
 7813TIP3    H123403   2.996   6.668   3.724
 7813TIP3    H223404   3.037   6.587   3.845
 7814TIP3   OH223405   4.962   2.897   0.373
 7814TIP3    H123406   4.966   2.851   0.289
 7814TIP3    H223407   5.047   2.940   0.380
 7815TIP3   OH223408   0.154   6.339   1.969
 7815TIP3    H123409   0.225   6.399   1.992
 7815TIP3    H223410   0.185   6.253   1.997
 7816TIP3   OH223411   1.128   5.426   1.342
 7816TIP3    H123412   1.126   5.383   1.257
 7816TIP3    H223413   1.061   5.381   1.393
 7817TIP3   OH223414   2.370   3.081   5.846
 7817TIP3    H123415   2.405   3.000   5.809
 7817TIP3    H223416   2.441   3.114   5.902
 7818TIP3   OH223417   2.147   6.147   0.977
 7818TIP3    H123418   2.242   6.136   0.975
 7818TIP3    H223419   2.130   6.221   0.918
 7819TIP3   OH223420   1.291   2.746   1.565
 7819TIP3    H123421   1.274   2.664   1.612
 7819TIP3    H223422   1.299   2.812   1.634
 7820TIP3   OH223423   6.846   6.267   2.684
 7820TIP3    H123424   6.817   6.310   2.764
 7820TIP3    H223425   6.773   6.278   2.623
 7821TIP3   OH223426   1.564   3.869   3.503
 7821TIP3    H123427   1.479   3.828   3.490
 7821TIP3    H223428   1.593   3.840   3.589
 7822TIP3   OH223429   0.723   1.412   1.718
 7822TIP3    H123430   0.787   1.474   1.682
 7822TIP3    H223431   0.729   1.336   1.661
 7823TIP3   OH223432   2.995   2.989   4.853
 7823TIP3    H123433   2.948   2.906   4.846
 7823TIP3    H223434   2.965   3.039   4.777
 7824TIP3   OH223435   1.697   1.770   3.779
 7824TIP3    H123436   1.693   1.858   3.743
 7824TIP3    H223437   1.720   1.782   3.871
 7825TIP3   OH223438   1.057   5.254   1.124
 7825TIP3    H123439   0.971   5.274   1.161
 7825TIP3    H223440   1.038   5.216   1.038
 7826TIP3   OH223441   1.226   3.431   5.806
 7826TIP3    H123442   1.298   3.465   5.859
 7826TIP3    H223443   1.201   3.349   5.850
 7827TIP3   OH223444   3.015   1.141   1.745
 7827TIP3    H123445   2.987   1.197   1.672
 7827TIP3    H223446   3.015   1.052   1.708
 7828TIP3   OH223447   3.674   4.689   0.383
 7828TIP3    H123448   3.626   4.606   0.391
 7828TIP3    H223449   3.729   4.692   0.461
 7829TIP3   OH223450   2.057   3.796   3.566
 7829TIP3    H123451   2.045   3.787   3.661
 7829TIP3    H223452   2.151   3.790   3.552
 7830TIP3   OH223453   0.688   1.146   0.372
 7830TIP3    H123454   0.773   1.189   0.387
 7830TIP3    H223455   0.645   1.202   0.307
 7831TIP3   OH223456   0.160   3.217   2.654
 7831TIP3    H123457   0.079   3.206   2.604
 7831TIP3    H223458   0.230   3.192   2.594
 7832TIP3   OH223459   5.433   1.240   3.873
 7832TIP3    H123460   5.393   1.263   3.957
 7832TIP3    H223461   5.382   1.165   3.842
 7833TIP3   OH223462   5.843   4.891   2.699
 7833TIP3    H123463   5.905   4.830   2.660
 7833TIP3    H223464   5.805   4.937   2.624
 7834TIP3   OH223465   0.102   4.099   5.077
 7834TIP3    H123466   0.171   4.152   5.037
 7834TIP3    H223467   0.082   4.031   5.012
 7835TIP3   OH223468   1.020   3.606   3.363
 7835TIP3    H123469   1.052   3.539   3.423
 7835TIP3    H223470   0.995   3.679   3.420
 7836TIP3   OH223471   6.157   6.434   3.853
 7836TIP3    H123472   6.150   6.372   3.925
 7836TIP3    H223473   6.068   6.465   3.838
 7837TIP3   OH223474   5.244   6.022   0.830
 7837TIP3    H123475   5.162   5.980   0.803
 7837TIP3    H223476   5.306   6.002   0.760
 7838TIP3   OH223477   0.153   0.844   4.848
 7838TIP3    H123478   0.195   0.794   4.778
 7838TIP3    H223479   0.080   0.788   4.877
 7839TIP3   OH223480   1.336   5.832   2.008
 7839TIP3    H123481   1.415   5.785   2.034
 7839TIP3    H223482   1.334   5.910   2.064
 7840TIP3   OH223483   0.046   6.042   4.839
 7840TIP3    H123484   0.024   5.963   4.790
 7840TIP3    H223485   0.017   6.114   4.782
 7841TIP3   OH223486   3.799   5.405   2.012
 7841TIP3    H123487   3.728   5.470   2.006
 7841TIP3    H223488   3.768   5.332   1.959
 7842TIP3   OH223489   6.799   0.432   1.913
 7842TIP3    H123490   6.889   0.461   1.927
 7842TIP3    H223491   6.747   0.489   1.970
 7843TIP3   OH223492   5.725   0.432   3.849
 7843TIP3    H123493   5.757   0.355   3.801
 7843TIP3    H223494   5.800   0.490   3.856
 7844TIP3   OH223495   2.336   2.982   2.636
 7844TIP3    H123496   2.377   3.067   2.622
 7844TIP3    H223497   2.243   2.998   2.619
 7845TIP3   OH223498   0.283   5.042   2.078
 7845TIP3    H123499   0.249   5.113   2.133
 7845TIP3    H223500   0.308   5.086   1.996
 7846TIP3   OH223501   1.087   6.340   0.379
 7846TIP3    H123502   1.066   6.425   0.340
 7846TIP3    H223503   1.182   6.338   0.382
 7847TIP3   OH223504   6.635   1.887   4.063
 7847TIP3    H123505   6.696   1.839   4.119
 7847TIP3    H223506   6.575   1.820   4.029
 7848TIP3   OH223507   2.200   5.512   1.368
 7848TIP3    H123508   2.262   5.585   1.373
 7848TIP3    H223509   2.252   5.438   1.337
 7849TIP3   OH223510   7.160   3.269   2.483
 7849TIP3    H123511   7.067   3.283   2.502
 7849TIP3    H223512   7.168   3.290   2.390
 7850TIP3   OH223513   1.438   4.626   3.327
 7850TIP3    H123514   1.468   4.551   3.378
 7850TIP3    H223515   1.351   4.600   3.295
 7851TIP3   OH223516   5.353   6.740   2.388
 7851TIP3    H123517   5.312   6.816   2.346
 7851TIP3    H223518   5.446   6.747   2.365
 7852TIP3   OH223519   4.297   6.583   1.937
 7852TIP3    H123520   4.248   6.593   2.019
 7852TIP3    H223521   4.372   6.528   1.961
 7853TIP3   OH223522   5.304   4.281   2.556
 7853TIP3    H123523   5.306   4.206   2.615
 7853TIP3    H223524   5.388   4.279   2.511
 7854TIP3   OH223525   3.373   2.865   0.391
 7854TIP3    H123526   3.277   2.864   0.396
 7854TIP3    H223527   3.401   2.823   0.472
 7855TIP3   OH223528   3.917   6.145   5.273
 7855TIP3    H123529   3.866   6.226   5.278
 7855TIP3    H223530   4.002   6.173   5.237
 7856TIP3   OH223531   1.627   5.022   4.053
 7856TIP3    H123532   1.705   5.002   4.105
 7856TIP3    H223533   1.555   5.022   4.116
 7857TIP3   OH223534   1.090   3.198   5.374
 7857TIP3    H123535   1.024   3.253   5.333
 7857TIP3    H223536   1.084   3.114   5.328
 7858TIP3   OH223537   5.868   0.841   4.430
 7858TIP3    H123538   5.917   0.924   4.436
 7858TIP3    H223539   5.827   0.845   4.344
 7859TIP3   OH223540   0.989   5.932   5.084
 7859TIP3    H123541   1.018   5.849   5.045
 7859TIP3    H223542   0.948   5.906   5.167
 7860TIP3   OH223543   3.710   2.896   1.994
 7860TIP3    H123544   3.742   2.848   2.070
 7860TIP3    H223545   3.708   2.988   2.022
 7861TIP3   OH223546   0.910   0.274   5.093
 7861TIP3    H123547   0.979   0.259   5.029
 7861TIP3    H223548   0.940   0.350   5.144
 7862TIP3   OH223549   2.384   3.144   5.350
 7862TIP3    H123550   2.364   3.168   5.440
 7862TIP3    H223551   2.478   3.160   5.341
 7863TIP3   OH223552   6.902   4.614   5.283
 7863TIP3    H123553   6.830   4.657   5.237
 7863TIP3    H223554   6.971   4.605   5.217
 7864TIP3   OH223555   3.206   5.957   1.320
 7864TIP3    H123556   3.146   5.974   1.247
 7864TIP3    H223557   3.160   5.893   1.375
 7865TIP3   OH223558   4.870   4.624   1.773
 7865TIP3    H123559   4.965   4.636   1.760
 7865TIP3    H223560   4.863   4.539   1.816
 7866TIP3   OH223561   2.429   4.084   0.803
 7866TIP3    H123562   2.376   4.149   0.756
 7866TIP3    H223563   2.365   4.030   0.849
 7867TIP3   OH223564   6.572   1.413   0.739
 7867TIP3    H123565   6.608   1.354   0.806
 7867TIP3    H223566   6.566   1.498   0.782
 7868TIP3   OH223567   7.131   4.583   5.846
 7868TIP3    H123568   7.194   4.653   5.830
 7868TIP3    H223569   7.046   4.622   5.824
 7869TIP3   OH223570   5.345   4.008   5.463
 7869TIP3    H123571   5.344   3.975   5.553
 7869TIP3    H223572   5.254   4.031   5.444
 7870TIP3   OH223573   5.963   2.376   1.417
 7870TIP3    H123574   6.045   2.420   1.396
 7870TIP3    H223575   5.922   2.430   1.484
 7871TIP3   OH223576   5.307   0.430   2.696
 7871TIP3    H123577   5.218   0.397   2.686
 7871TIP3    H223578   5.300   0.524   2.681
 7872TIP3   OH223579   6.100   3.459   2.792
 7872TIP3    H123580   6.185   3.502   2.794
 7872TIP3    H223581   6.105   3.399   2.717
 7873TIP3   OH223582   2.845   6.624   1.995
 7873TIP3    H123583   2.801   6.581   2.069
 7873TIP3    H223584   2.920   6.567   1.976
 7874TIP3   OH223585   6.572   2.603   0.225
 7874TIP3    H123586   6.597   2.656   0.149
 7874TIP3    H223587   6.538   2.521   0.188
 7875TIP3   OH223588   3.474   2.626   0.918
 7875TIP3    H123589   3.406   2.573   0.875
 7875TIP3    H223590   3.543   2.633   0.852
 7876TIP3   OH223591   2.577   1.334   2.141
 7876TIP3    H123592   2.593   1.428   2.141
 7876TIP3    H223593   2.485   1.325   2.167
 7877TIP3   OH223594   2.033   2.766   4.186
 7877TIP3    H123595   2.125   2.780   4.209
 7877TIP3    H223596   1.987   2.841   4.224
 7878TIP3   OH223597   3.422   1.014   5.480
 7878TIP3    H123598   3.378   0.963   5.548
 7878TIP3    H223599   3.447   0.950   5.414
 7879TIP3   OH223600   0.526   5.671   1.956
 7879TIP3    H123601   0.482   5.587   1.973
 7879TIP3    H223602   0.493   5.698   1.870
 7880TIP3   OH223603   0.426   1.885   5.048
 7880TIP3    H123604   0.387   1.963   5.087
 7880TIP3    H223605   0.479   1.848   5.118
 7881TIP3   OH223606   1.154   1.947   1.533
 7881TIP3    H123607   1.200   1.978   1.611
 7881TIP3    H223608   1.179   1.855   1.525
 7882TIP3   OH223609   5.252   1.742   4.947
 7882TIP3    H123610   5.287   1.764   4.861
 7882TIP3    H223611   5.330   1.737   5.003
 7883TIP3   OH223612   5.824   0.084   4.395
 7883TIP3    H123613   5.817  -0.010   4.381
 7883TIP3    H223614   5.739   0.119   4.368
 7884TIP3   OH223615   4.043   2.831   4.675
 7884TIP3    H123616   3.968   2.778   4.703
 7884TIP3    H223617   4.073   2.789   4.594
 7885TIP3   OH223618   5.483   1.883   1.229
 7885TIP3    H123619   5.475   1.887   1.324
 7885TIP3    H223620   5.424   1.952   1.198
 7886TIP3   OH223621   0.484   0.487   2.474
 7886TIP3    H123622   0.541   0.410   2.467
 7886TIP3    H223623   0.543   0.558   2.499
 7887TIP3   OH223624   4.140   4.494   0.300
 7887TIP3    H123625   4.167   4.432   0.232
 7887TIP3    H223626   4.204   4.481   0.370
 7888TIP3   OH223627   3.065   5.768   5.353
 7888TIP3    H123628   2.979   5.727   5.364
 7888TIP3    H223629   3.096   5.783   5.442
 7889TIP3   OH223630   2.660   2.796   3.808
 7889TIP3    H123631   2.639   2.836   3.892
 7889TIP3    H223632   2.606   2.843   3.744
 7890TIP3   OH223633   1.931   4.111   5.004
 7890TIP3    H123634   1.941   4.168   5.080
 7890TIP3    H223635   1.844   4.133   4.970
 7891TIP3   OH223636   2.353   3.983   4.695
 7891TIP3    H123637   2.357   3.943   4.782
 7891TIP3    H223638   2.371   3.910   4.634
 7892TIP3   OH223639   6.565   2.505   1.521
 7892TIP3    H123640   6.539   2.576   1.580
 7892TIP3    H223641   6.526   2.427   1.561
 7893TIP3   OH223642   6.345   5.491   1.745
 7893TIP3    H123643   6.259   5.453   1.764
 7893TIP3    H223644   6.341   5.517   1.654
 7894TIP3   OH223645   4.041   4.017   1.964
 7894TIP3    H123646   4.111   3.978   2.016
 7894TIP3    H223647   4.062   3.993   1.874
 7895TIP3   OH223648   4.409   2.973   4.522
 7895TIP3    H123649   4.351   3.046   4.544
 7895TIP3    H223650   4.400   2.964   4.427
 7896TIP3   OH223651   0.486   1.548   5.473
 7896TIP3    H123652   0.552   1.485   5.445
 7896TIP3    H223653   0.402   1.505   5.455
 7897TIP3   OH223654   3.527   4.650   2.638
 7897TIP3    H123655   3.465   4.715   2.603
 7897TIP3    H223656   3.475   4.599   2.700
 7898TIP3   OH223657   4.184   6.662   3.980
 7898TIP3    H123658   4.131   6.629   3.907
 7898TIP3    H223659   4.181   6.593   4.046
 7899TIP3   OH223660   6.923   4.132   4.732
 7899TIP3    H123661   6.834   4.102   4.749
 7899TIP3    H223662   6.941   4.195   4.802
 7900TIP3   OH223663   5.280   2.803   0.970
 7900TIP3    H123664   5.262   2.723   0.920
 7900TIP3    H223665   5.214   2.803   1.039
 7901TIP3   OH223666   3.020   0.903   0.883
 7901TIP3    H123667   2.968   0.982   0.895
 7901TIP3    H223668   2.959   0.831   0.901
 7902TIP3   OH223669   2.585   1.544   3.068
 7902TIP3    H123670   2.602   1.632   3.102
 7902TIP3    H223671   2.669   1.515   3.033
 7903TIP3   OH223672   6.067   4.389   4.963
 7903TIP3    H123673   6.158   4.366   4.944
 7903TIP3    H223674   6.052   4.469   4.912
 7904TIP3   OH223675   3.524   3.291   2.559
 7904TIP3    H123676   3.525   3.267   2.652
 7904TIP3    H223677   3.442   3.339   2.548
 7905TIP3   OH223678   6.127   6.468   2.922
 7905TIP3    H123679   6.188   6.503   2.986
 7905TIP3    H223680   6.042   6.501   2.950
 7906TIP3   OH223681   6.700   2.656   4.715
 7906TIP3    H123682   6.707   2.751   4.705
 7906TIP3    H223683   6.673   2.643   4.805
 7907TIP3   OH223684   2.269   5.237   3.080
 7907TIP3    H123685   2.323   5.240   3.158
 7907TIP3    H223686   2.187   5.197   3.109
 7908TIP3   OH223687   1.021   6.254   1.505
 7908TIP3    H123688   1.011   6.282   1.596
 7908TIP3    H223689   1.106   6.210   1.502
 7909TIP3   OH223690   3.960   4.183   5.914
 7909TIP3    H123691   4.010   4.236   5.852
 7909TIP3    H223692   3.905   4.127   5.860
 7910TIP3   OH223693   6.218   2.188   5.648
 7910TIP3    H123694   6.203   2.099   5.617
 7910TIP3    H223695   6.133   2.232   5.637
 7911TIP3   OH223696   1.738   1.900   5.805
 7911TIP3    H123697   1.691   1.880   5.724
 7911TIP3    H223698   1.751   1.994   5.804
 7912TIP3   OH223699   4.889   3.734   0.588
 7912TIP3    H123700   4.828   3.727   0.515
 7912TIP3    H223701   4.846   3.688   0.660
 7913TIP3   OH223702   2.417   1.070   3.837
 7913TIP3    H123703   2.332   1.059   3.794
 7913TIP3    H223704   2.459   0.984   3.829
 7914TIP3   OH223705   0.693   0.660   2.171
 7914TIP3    H123706   0.703   0.712   2.251
 7914TIP3    H223707   0.712   0.722   2.100
 7915TIP3   OH223708   3.102   0.462   5.255
 7915TIP3    H123709   3.121   0.553   5.233
 7915TIP3    H223710   3.170   0.412   5.211
 7916TIP3   OH223711   0.663   1.970   1.446
 7916TIP3    H123712   0.591   1.948   1.387
 7916TIP3    H223713   0.729   2.010   1.389
 7917TIP3   OH223714   0.121   0.787   1.814
 7917TIP3    H123715   0.049   0.789   1.751
 7917TIP3    H223716   0.193   0.744   1.768
 7918TIP3   OH223717   3.031   0.070   1.228
 7918TIP3    H123718   3.008   0.031   1.313
 7918TIP3    H223719   2.974   0.146   1.220
 7919TIP3   OH223720   1.471   6.507   1.259
 7919TIP3    H123721   1.542   6.450   1.288
 7919TIP3    H223722   1.417   6.519   1.337
 7920TIP3   OH223723   6.435   2.271   5.118
 7920TIP3    H123724   6.400   2.199   5.065
 7920TIP3    H223725   6.377   2.344   5.099
 7921TIP3   OH223726   7.005   1.446   0.683
 7921TIP3    H123727   6.966   1.500   0.615
 7921TIP3    H223728   6.973   1.357   0.666
 7922TIP3   OH223729   3.161   6.202   4.624
 7922TIP3    H123730   3.235   6.156   4.585
 7922TIP3    H223731   3.182   6.205   4.718
 7923TIP3   OH223732   6.958   1.431   2.554
 7923TIP3    H123733   7.022   1.502   2.549
 7923TIP3    H223734   6.987   1.368   2.488
 7924TIP3   OH223735   3.502   0.581   3.530
 7924TIP3    H123736   3.562   0.609   3.461
 7924TIP3    H223737   3.427   0.545   3.483
 7925TIP3   OH223738   5.693   1.592   2.511
 7925TIP3    H123739   5.681   1.541   2.430
 7925TIP3    H223740   5.638   1.547   2.575
 7926TIP3   OH223741   0.922   3.813   1.305
 7926TIP3    H123742   0.885   3.898   1.330
 7926TIP3    H223743   0.961   3.828   1.218
 7927TIP3   OH223744   3.477   4.639   4.458
 7927TIP3    H123745   3.408   4.644   4.524
 7927TIP3    H223746   3.554   4.609   4.506
 7928TIP3   OH223747   6.693   0.481   4.707
 7928TIP3    H123748   6.632   0.550   4.683
 7928TIP3    H223749   6.651   0.400   4.677
 7929TIP3   OH223750   6.229   5.208   0.411
 7929TIP3    H123751   6.316   5.194   0.448
 7929TIP3    H223752   6.205   5.123   0.373
 7930TIP3   OH223753   4.292   4.549   2.731
 7930TIP3    H123754   4.386   4.541   2.751
 7930TIP3    H223755   4.289   4.593   2.646
 7931TIP3   OH223756   5.719   3.602   2.305
 7931TIP3    H123757   5.705   3.663   2.377
 7931TIP3    H223758   5.646   3.540   2.311
 7932TIP3   OH223759   0.671   0.253   2.467
 7932TIP3    H123760   0.736   0.193   2.429
 7932TIP3    H223761   0.699   0.265   2.558
 7933TIP3   OH223762   3.748   6.299   1.035
 7933TIP3    H123763   3.759   6.360   1.107
 7933TIP3    H223764   3.818   6.235   1.047
 7934TIP3   OH223765   3.043   4.837   3.657
 7934TIP3    H123766   3.033   4.817   3.564
 7934TIP3    H223767   3.066   4.930   3.659
 7935TIP3   OH223768   5.972   5.251   3.790
 7935TIP3    H123769   5.970   5.156   3.791
 7935TIP3    H223770   6.061   5.274   3.816
 7936TIP3   OH223771   6.142   2.917   0.312
 7936TIP3    H123772   6.092   2.998   0.304
 7936TIP3    H223773   6.188   2.926   0.396
 7937TIP3   OH223774   4.332   2.780   0.962
 7937TIP3    H123775   4.283   2.700   0.978
 7937TIP3    H223776   4.273   2.834   0.910
 7938TIP3   OH223777   3.317   5.075   1.711
 7938TIP3    H123778   3.265   5.057   1.633
 7938TIP3    H223779   3.393   5.123   1.679
 7939TIP3   OH223780   7.151   2.025   0.222
 7939TIP3    H123781   7.063   1.999   0.196
 7939TIP3    H223782   7.152   2.120   0.209
 7940TIP3   OH223783   2.018   1.851   1.393
 7940TIP3    H123784   2.102   1.895   1.385
 7940TIP3    H223785   1.955   1.911   1.353
 7941TIP3   OH223786   4.051   4.592   1.653
 7941TIP3    H123787   4.052   4.687   1.641
 7941TIP3    H223788   4.091   4.579   1.739
 7942TIP3   OH223789   3.729   3.166   1.279
 7942TIP3    H123790   3.812   3.171   1.327
 7942TIP3    H223791   3.688   3.251   1.292
 7943TIP3   OH223792   3.932   3.862   0.820
 7943TIP3    H123793   3.896   3.795   0.878
 7943TIP3    H223794   3.977   3.923   0.878
 7944TIP3   OH223795   6.044   5.550   4.973
 7944TIP3    H123796   6.033   5.545   5.068
 7944TIP3    H223797   5.958   5.575   4.940
 7945TIP3   OH223798   4.188   3.556   0.486
 7945TIP3    H123799   4.128   3.629   0.501
 7945TIP3    H223800   4.247   3.587   0.418
 7946TIP3   OH223801   5.502   3.596   4.100
 7946TIP3    H123802   5.545   3.565   4.180
 7946TIP3    H223803   5.410   3.606   4.126
 7947TIP3   OH223804   0.120   1.933   4.862
 7947TIP3    H123805   0.202   1.984   4.865
 7947TIP3    H223806   0.124   1.877   4.940
 7948TIP3   OH223807   0.633   2.280   2.865
 7948TIP3    H123808   0.630   2.206   2.804
 7948TIP3    H223809   0.641   2.357   2.808
 7949TIP3   OH223810   0.104   0.446   4.486
 7949TIP3    H123811   0.167   0.473   4.419
 7949TIP3    H223812   0.144   0.370   4.528
 7950TIP3   OH223813   6.538   4.480   2.476
 7950TIP3    H123814   6.623   4.470   2.519
 7950TIP3    H223815   6.478   4.424   2.525
 7951TIP3   OH223816   1.426   6.699   4.192
 7951TIP3    H123817   1.454   6.753   4.118
 7951TIP3    H223818   1.502   6.645   4.212
 7952TIP3   OH223819   4.328   1.941   5.772
 7952TIP3    H123820   4.413   1.955   5.815
 7952TIP3    H223821   4.310   1.848   5.787
 7953TIP3   OH223822   3.756   1.616   0.135
 7953TIP3    H123823   3.825   1.679   0.158
 7953TIP3    H223824   3.689   1.629   0.202
 7954TIP3   OH223825   0.028   6.116   1.580
 7954TIP3    H123826   0.040   6.024   1.606
 7954TIP3    H223827   0.116   6.154   1.584
 7955TIP3   OH223828   6.310   0.528   1.186
 7955TIP3    H123829   6.276   0.608   1.145
 7955TIP3    H223830   6.245   0.461   1.164
 7956TIP3   OH223831   1.239   4.736   0.266
 7956TIP3    H123832   1.297   4.665   0.239
 7956TIP3    H223833   1.216   4.715   0.356
 7957TIP3   OH223834   5.407   0.049   0.154
 7957TIP3    H123835   5.318   0.063   0.189
 7957TIP3    H223836   5.462   0.105   0.209
 7958TIP3   OH223837   5.713   3.646   1.675
 7958TIP3    H123838   5.718   3.552   1.686
 7958TIP3    H223839   5.638   3.673   1.729
 7959TIP3   OH223840   3.505   2.703   2.597
 7959TIP3    H123841   3.560   2.764   2.646
 7959TIP3    H223842   3.471   2.756   2.524
 7960TIP3   OH223843   4.934   6.584   2.815
 7960TIP3    H123844   4.936   6.539   2.731
 7960TIP3    H223845   4.978   6.668   2.798
 7961TIP3   OH223846   1.875   4.948   4.153
 7961TIP3    H123847   1.950   4.888   4.149
 7961TIP3    H223848   1.913   5.034   4.134
 7962TIP3   OH223849   4.600   2.130   1.446
 7962TIP3    H123850   4.536   2.187   1.404
 7962TIP3    H223851   4.593   2.047   1.399
 7963TIP3   OH223852   4.439   3.159   0.351
 7963TIP3    H123853   4.405   3.083   0.397
 7963TIP3    H223854   4.368   3.186   0.293
 7964TIP3   OH223855   0.160   2.940   2.467
 7964TIP3    H123856   0.139   2.925   2.375
 7964TIP3    H223857   0.242   2.990   2.465
 7965TIP3   OH223858   0.375   0.708   1.721
 7965TIP3    H123859   0.407   0.789   1.681
 7965TIP3    H223860   0.399   0.639   1.659
 7966TIP3   OH223861   0.016   6.412   3.709
 7966TIP3    H123862   0.087   6.418   3.773
 7966TIP3    H223863  -0.064   6.419   3.761
 7967TIP3   OH223864   6.636   4.705   2.163
 7967TIP3    H123865   6.619   4.628   2.109
 7967TIP3    H223866   6.730   4.703   2.179
 7968TIP3   OH223867   0.379   2.105   2.994
 7968TIP3    H123868   0.443   2.176   2.993
 7968TIP3    H223869   0.416   2.041   3.055
 7969TIP3   OH223870   2.228   2.643   3.845
 7969TIP3    H123871   2.266   2.600   3.921
 7969TIP3    H223872   2.251   2.586   3.771
 7970TIP3   OH223873   5.232   3.299   0.363
 7970TIP3    H123874   5.159   3.319   0.305
 7970TIP3    H223875   5.302   3.358   0.336
 7971TIP3   OH223876   0.694   5.957   4.892
 7971TIP3    H123877   0.746   6.037   4.890
 7971TIP3    H223878   0.726   5.905   4.818
 7972TIP3   OH223879   5.620   5.750   5.181
 7972TIP3    H123880   5.679   5.825   5.178
 7972TIP3    H223881   5.571   5.762   5.262
 7973TIP3   OH223882   2.577   3.139   4.685
 7973TIP3    H123883   2.558   3.056   4.642
 7973TIP3    H223884   2.542   3.206   4.626
 7974TIP3   OH223885   2.223   6.500   2.385
 7974TIP3    H123886   2.270   6.562   2.441
 7974TIP3    H223887   2.202   6.550   2.306
 7975TIP3   OH223888   3.129   4.515   3.636
 7975TIP3    H123889   3.055   4.576   3.636
 7975TIP3    H223890   3.203   4.568   3.665
 7976TIP3   OH223891   5.831   0.471   2.065
 7976TIP3    H123892   5.806   0.495   1.975
 7976TIP3    H223893   5.765   0.407   2.092
 7977TIP3   OH223894   2.011   6.692  -0.032
 7977TIP3    H123895   1.931   6.661  -0.074
 7977TIP3    H223896   1.982   6.763   0.025
 7978TIP3   OH223897   6.170   1.409   1.650
 7978TIP3    H123898   6.230   1.353   1.700
 7978TIP3    H223899   6.122   1.349   1.593
 7979TIP3   OH223900   3.467   6.476   3.921
 7979TIP3    H123901   3.396   6.478   3.986
 7979TIP3    H223902   3.439   6.537   3.854
 7980TIP3   OH223903   1.067   1.272   1.642
 7980TIP3    H123904   1.059   1.188   1.687
 7980TIP3    H223905   0.980   1.289   1.607
 7981TIP3   OH223906   4.643   2.561   0.334
 7981TIP3    H123907   4.715   2.584   0.393
 7981TIP3    H223908   4.654   2.619   0.259
 7982TIP3   OH223909   1.112   3.805   4.479
 7982TIP3    H123910   1.050   3.757   4.423
 7982TIP3    H223911   1.071   3.891   4.491
 7983TIP3   OH223912   4.785   1.668   1.423
 7983TIP3    H123913   4.723   1.734   1.391
 7983TIP3    H223914   4.856   1.668   1.359
 7984TIP3   OH223915   6.320   5.727   4.260
 7984TIP3    H123916   6.275   5.769   4.187
 7984TIP3    H223917   6.317   5.634   4.240
 7985TIP3   OH223918   3.474   6.747   0.459
 7985TIP3    H123919   3.531   6.785   0.392
 7985TIP3    H223920   3.400   6.711   0.409
 7986TIP3   OH223921   0.186   4.982   4.814
 7986TIP3    H123922   0.125   4.941   4.876
 7986TIP3    H223923   0.207   4.913   4.752
 7987TIP3   OH223924   4.103   4.405   5.104
 7987TIP3    H123925   4.132   4.422   5.193
 7987TIP3    H223926   4.007   4.408   5.109
 7988TIP3   OH223927   4.770   2.391   3.645
 7988TIP3    H123928   4.717   2.470   3.655
 7988TIP3    H223929   4.708   2.319   3.653
 7989TIP3   OH223930   4.089   3.133   4.969
 7989TIP3    H123931   4.067   3.173   5.053
 7989TIP3    H223932   4.160   3.072   4.989
 7990TIP3   OH223933   4.378   3.950   1.487
 7990TIP3    H123934   4.355   3.901   1.566
 7990TIP3    H223935   4.371   4.042   1.513
 7991TIP3   OH223936   3.824   0.997   4.884
 7991TIP3    H123937   3.886   0.925   4.896
 7991TIP3    H223938   3.770   0.970   4.809
 7992TIP3   OH223939   4.926   4.864   2.920
 7992TIP3    H123940   4.978   4.827   2.992
 7992TIP3    H223941   4.987   4.921   2.874
 7993TIP3   OH223942   0.961   4.006   3.124
 7993TIP3    H123943   0.952   4.092   3.083
 7993TIP3    H223944   0.907   4.012   3.203
 7994TIP3   OH223945   3.836   1.109   2.896
 7994TIP3    H123946   3.761   1.115   2.955
 7994TIP3    H223947   3.890   1.039   2.934
 7995TIP3   OH223948   6.831   1.354   1.924
 7995TIP3    H123949   6.815   1.294   1.851
 7995TIP3    H223950   6.746   1.391   1.944
 7996TIP3   OH223951   4.075   3.987   3.563
 7996TIP3    H123952   4.035   4.054   3.506
 7996TIP3    H223953   4.164   4.018   3.577
 7997TIP3   OH223954   1.136   2.211   0.992
 7997TIP3    H123955   1.183   2.169   1.063
 7997TIP3    H223956   1.089   2.283   1.034
 7998TIP3   OH223957   2.562   4.883   4.565
 7998TIP3    H123958   2.641   4.890   4.619
 7998TIP3    H223959   2.513   4.810   4.602
 7999TIP3   OH223960   3.832   2.047   0.671
 7999TIP3    H123961   3.903   1.982   0.664
 7999TIP3    H223962   3.778   2.016   0.744
 8000TIP3   OH223963   2.953   4.722   4.054
 8000TIP3    H123964   2.967   4.653   4.118
 8000TIP3    H223965   3.022   4.709   3.989
 8001TIP3   OH223966   6.414   2.070   5.889
 8001TIP3    H123967   6.383   2.084   5.799
 8001TIP3    H223968   6.349   2.112   5.944
 8002TIP3   OH223969   0.003   5.533   4.975
 8002TIP3    H123970   0.028   5.607   4.919
 8002TIP3    H223971   0.086   5.498   5.007
 8003TIP3   OH223972   1.249   2.675   4.179
 8003TIP3    H123973   1.177   2.624   4.141
 8003TIP3    H223974   1.321   2.613   4.184
 8004TIP3   OH223975   3.961   1.215   2.458
 8004TIP3    H123976   3.933   1.262   2.379
 8004TIP3    H223977   4.056   1.228   2.461
 8005TIP3   OH223978   2.428   2.178   0.763
 8005TIP3    H123979   2.412   2.192   0.669
 8005TIP3    H223980   2.474   2.258   0.791
 8006TIP3   OH223981   0.600   1.529   2.416
 8006TIP3    H123982   0.509   1.539   2.387
 8006TIP3    H223983   0.651   1.532   2.335
 8007TIP3   OH223984   5.609   6.009   4.343
 8007TIP3    H123985   5.526   5.982   4.383
 8007TIP3    H223986   5.664   5.931   4.345
 8008TIP3   OH223987   5.550   4.627   2.996
 8008TIP3    H123988   5.475   4.655   3.048
 8008TIP3    H223989   5.513   4.603   2.911
 8009TIP3   OH223990   2.902   2.122   5.287
 8009TIP3    H123991   2.994   2.100   5.302
 8009TIP3    H223992   2.854   2.067   5.350
 8010TIP3   OH223993   3.293   0.331   0.744
 8010TIP3    H123994   3.211   0.292   0.775
 8010TIP3    H223995   3.268   0.381   0.667
 8011TIP3   OH223996   2.244   1.043   0.365
 8011TIP3    H123997   2.182   1.053   0.437
 8011TIP3    H223998   2.244   0.949   0.346
 8012TIP3   OH223999   4.630   0.863   1.760
 8012TIP3    H124000   4.675   0.799   1.704
 8012TIP3    H224001   4.685   0.869   1.838
 8013TIP3   OH224002   0.976   1.013   2.281
 8013TIP3    H124003   1.044   1.079   2.295
 8013TIP3    H224004   0.918   1.052   2.215
 8014TIP3   OH224005   0.949   2.462   1.711
 8014TIP3    H124006   0.874   2.479   1.768
 8014TIP3    H224007   1.015   2.524   1.740
 8015TIP3   OH224008   6.402   1.699   0.358
 8015TIP3    H124009   6.376   1.612   0.388
 8015TIP3    H224010   6.334   1.725   0.296
 8016TIP3   OH224011   4.126   0.757   0.899
 8016TIP3    H124012   4.083   0.674   0.917
 8016TIP3    H224013   4.058   0.811   0.858
 8017TIP3   OH224014   5.005   0.990   1.787
 8017TIP3    H124015   4.941   1.016   1.853
 8017TIP3    H224016   5.082   0.963   1.837
 8018TIP3   OH224017   1.533   5.882   1.339
 8018TIP3    H124018   1.626   5.908   1.337
 8018TIP3    H224019   1.522   5.842   1.426
 8019TIP3   OH224020   4.911   2.304   3.252
 8019TIP3    H124021   4.983   2.303   3.315
 8019TIP3    H224022   4.875   2.215   3.255
 8020TIP3   OH224023   4.791   5.106   1.325
 8020TIP3    H124024   4.864   5.057   1.287
 8020TIP3    H224025   4.754   5.047   1.391
 8021TIP3   OH224026   1.222   5.059   0.917
 8021TIP3    H124027   1.136   5.091   0.890
 8021TIP3    H224028   1.238   5.102   1.001
 8022TIP3   OH224029   1.826   4.839   5.823
 8022TIP3    H124030   1.865   4.923   5.849
 8022TIP3    H224031   1.737   4.861   5.797
 8023TIP3   OH224032   5.563   2.558   2.850
 8023TIP3    H124033   5.649   2.581   2.886
 8023TIP3    H224034   5.531   2.489   2.909
 8024TIP3   OH224035   7.080   4.633   5.000
 8024TIP3    H124036   7.015   4.567   4.978
 8024TIP3    H224037   7.164   4.596   4.972
 8025TIP3   OH224038   5.830   5.402   1.412
 8025TIP3    H124039   5.849   5.341   1.341
 8025TIP3    H224040   5.848   5.488   1.375
 8026TIP3   OH224041   1.785   4.764   3.952
 8026TIP3    H124042   1.823   4.843   3.990
 8026TIP3    H224043   1.740   4.795   3.873
 8027TIP3   OH224044   1.958   5.049   4.992
 8027TIP3    H124045   1.988   5.135   5.024
 8027TIP3    H224046   1.905   5.069   4.916
 8028TIP3   OH224047   0.757   2.463   3.452
 8028TIP3    H124048   0.678   2.438   3.500
 8028TIP3    H224049   0.724   2.507   3.373
 8029TIP3   OH224050   0.475   6.378   0.464
 8029TIP3    H124051   0.529   6.456   0.452
 8029TIP3    H224052   0.438   6.360   0.377
 8030TIP3   OH224053   1.741   4.734   2.104
 8030TIP3    H124054   1.803   4.681   2.054
 8030TIP3    H224055   1.670   4.675   2.125
 8031TIP3   OH224056   0.357   2.245   5.092
 8031TIP3    H124057   0.424   2.284   5.036
 8031TIP3    H224058   0.392   2.253   5.181
 8032TIP3   OH224059   7.154   1.930   0.690
 8032TIP3    H124060   7.187   1.881   0.615
 8032TIP3    H224061   7.113   1.864   0.746
 8033TIP3   OH224062   5.444   1.863   4.424
 8033TIP3    H124063   5.472   1.947   4.387
 8033TIP3    H224064   5.350   1.871   4.436
 8034TIP3   OH224065   1.667   3.546   3.497
 8034TIP3    H124066   1.723   3.484   3.544
 8034TIP3    H224067   1.728   3.609   3.459
 8035TIP3   OH224068   3.683   4.937   0.271
 8035TIP3    H124069   3.688   4.844   0.293
 8035TIP3    H224070   3.742   4.980   0.334
 8036TIP3   OH224071   1.906   3.845   5.460
 8036TIP3    H124072   1.827   3.820   5.412
 8036TIP3    H224073   1.881   3.839   5.552
 8037TIP3   OH224074   4.516   4.428   4.681
 8037TIP3    H124075   4.460   4.468   4.748
 8037TIP3    H224076   4.489   4.469   4.599
 8038TIP3   OH224077   5.124   1.618   4.226
 8038TIP3    H124078   5.060   1.548   4.241
 8038TIP3    H224079   5.072   1.690   4.190
 8039TIP3   OH224080   4.124   2.646   3.568
 8039TIP3    H124081   4.105   2.619   3.478
 8039TIP3    H224082   4.197   2.707   3.560
 8040TIP3   OH224083   6.118   0.620   2.165
 8040TIP3    H124084   6.131   0.683   2.093
 8040TIP3    H224085   6.067   0.549   2.126
 8041TIP3   OH224086   1.734   4.043   1.533
 8041TIP3    H124087   1.758   4.018   1.444
 8041TIP3    H224088   1.727   3.960   1.580
 8042TIP3   OH224089   5.116   1.396   1.155
 8042TIP3    H124090   5.204   1.404   1.118
 8042TIP3    H224091   5.130   1.383   1.249
 8043TIP3   OH224092   6.671   5.836   2.645
 8043TIP3    H124093   6.718   5.757   2.669
 8043TIP3    H224094   6.657   5.882   2.727
 8044TIP3   OH224095   6.378   5.718   0.918
 8044TIP3    H124096   6.422   5.799   0.941
 8044TIP3    H224097   6.434   5.649   0.955
 8045TIP3   OH224098   3.166   4.766   0.919
 8045TIP3    H124099   3.246   4.751   0.969
 8045TIP3    H224100   3.160   4.861   0.910
 8046TIP3   OH224101   6.031   2.636   5.345
 8046TIP3    H124102   6.075   2.615   5.427
 8046TIP3    H224103   5.940   2.612   5.360
 8047TIP3   OH224104   3.951   0.119   3.640
 8047TIP3    H124105   3.858   0.141   3.636
 8047TIP3    H224106   3.953   0.028   3.670
 8048TIP3   OH224107   2.777   2.200   4.538
 8048TIP3    H124108   2.756   2.288   4.508
 8048TIP3    H224109   2.793   2.150   4.457
 8049TIP3   OH224110   4.065   4.288   2.239
 8049TIP3    H124111   4.005   4.337   2.296
 8049TIP3    H224112   4.008   4.225   2.194
 8050TIP3   OH224113   5.443   0.044   3.093
 8050TIP3    H124114   5.439   0.095   3.012
 8050TIP3    H224115   5.488  -0.037   3.068
 8051TIP3   OH224116   1.709   4.403   2.685
 8051TIP3    H124117   1.649   4.331   2.703
 8051TIP3    H224118   1.738   4.433   2.771
 8052TIP3   OH224119   4.842   0.477   3.057
 8052TIP3    H124120   4.891   0.408   3.013
 8052TIP3    H224121   4.794   0.521   2.987
 8053TIP3   OH224122   2.099   6.480   3.744
 8053TIP3    H124123   2.053   6.396   3.741
 8053TIP3    H224124   2.030   6.546   3.744
 8054TIP3   OH224125   3.679   4.336   3.750
 8054TIP3    H124126   3.727   4.416   3.729
 8054TIP3    H224127   3.685   4.328   3.845
 8055TIP3   OH224128   2.012   6.156   4.932
 8055TIP3    H124129   2.055   6.128   4.851
 8055TIP3    H224130   1.929   6.194   4.904
 8056TIP3   OH224131   3.053   4.950   5.165
 8056TIP3    H124132   3.033   5.043   5.176
 8056TIP3    H224133   3.142   4.948   5.131
 8057TIP3   OH224134   4.131   6.752   2.472
 8057TIP3    H124135   4.209   6.705   2.498
 8057TIP3    H224136   4.079   6.688   2.423
 8058TIP3   OH224137   7.031   2.787   4.702
 8058TIP3    H124138   6.953   2.829   4.667
 8058TIP3    H224139   7.012   2.774   4.795
 8059TIP3   OH224140   0.443   2.394   1.671
 8059TIP3    H124141   0.421   2.412   1.763
 8059TIP3    H224142   0.481   2.307   1.672
 8060TIP3   OH224143   6.661   4.411   5.601
 8060TIP3    H124144   6.587   4.355   5.624
 8060TIP3    H224145   6.621   4.490   5.566
 8061TIP3   OH224146   1.831   0.240   3.689
 8061TIP3    H124147   1.736   0.227   3.693
 8061TIP3    H224148   1.862   0.222   3.777
 8062TIP3   OH224149   3.219   0.044   4.731
 8062TIP3    H124150   3.173   0.003   4.658
 8062TIP3    H224151   3.251   0.127   4.696
 8063TIP3   OH224152   1.013   3.315   3.510
 8063TIP3    H124153   1.105   3.307   3.487
 8063TIP3    H224154   1.011   3.305   3.605
 8064TIP3   OH224155   5.123   3.109   2.365
 8064TIP3    H124156   5.074   3.043   2.316
 8064TIP3    H224157   5.118   3.188   2.311
 8065TIP3   OH224158   5.810   5.570   0.033
 8065TIP3    H124159   5.743   5.600   0.095
 8065TIP3    H224160   5.886   5.625   0.052
 8066TIP3   OH224161   3.146   5.876   1.875
 8066TIP3    H124162   3.111   5.964   1.862
 8066TIP3    H224163   3.177   5.849   1.788
 8067TIP3   OH224164   4.185   3.450   3.885
 8067TIP3    H124165   4.094   3.446   3.856
 8067TIP3    H224166   4.236   3.428   3.807
 8068TIP3   OH224167   4.428   6.299   3.245
 8068TIP3    H124168   4.387   6.231   3.192
 8068TIP3    H224169   4.469   6.253   3.318
 8069TIP3   OH224170   5.823   2.105   1.865
 8069TIP3    H124171   5.793   2.069   1.781
 8069TIP3    H224172   5.869   2.185   1.841
 8070TIP3   OH224173   0.465   2.726   0.497
 8070TIP3    H124174   0.383   2.692   0.460
 8070TIP3    H224175   0.521   2.743   0.421
 8071TIP3   OH224176   3.179   0.385   2.949
 8071TIP3    H124177   3.134   0.327   3.011
 8071TIP3    H224178   3.150   0.472   2.973
 8072TIP3   OH224179   3.313   5.786   4.646
 8072TIP3    H124180   3.323   5.860   4.585
 8072TIP3    H224181   3.395   5.784   4.695
 8073TIP3   OH224182   4.106   5.126   2.987
 8073TIP3    H124183   4.182   5.071   2.968
 8073TIP3    H224184   4.095   5.120   3.082
 8074TIP3   OH224185   5.445   0.017   2.078
 8074TIP3    H124186   5.369  -0.039   2.064
 8074TIP3    H224187   5.455   0.065   1.996
 8075TIP3   OH224188   7.121   0.065   3.361
 8075TIP3    H124189   7.216   0.077   3.350
 8075TIP3    H224190   7.112  -0.026   3.388
 8076TIP3   OH224191   7.199   5.081   0.883
 8076TIP3    H124192   7.177   5.040   0.800
 8076TIP3    H224193   7.290   5.053   0.900
 8077TIP3   OH224194   0.551   0.627   5.248
 8077TIP3    H124195   0.571   0.713   5.285
 8077TIP3    H224196   0.460   0.610   5.273
 8078TIP3   OH224197   2.677   5.096   0.015
 8078TIP3    H124198   2.760   5.067  -0.022
 8078TIP3    H224199   2.693   5.187   0.041
 8079TIP3   OH224200   1.072   5.162   1.849
 8079TIP3    H124201   1.024   5.179   1.931
 8079TIP3    H224202   1.006   5.172   1.780
 8080TIP3   OH224203   7.189   6.459   4.838
 8080TIP3    H124204   7.182   6.540   4.888
 8080TIP3    H224205   7.102   6.419   4.846
 8081TIP3   OH224206   4.115   2.300   2.133
 8081TIP3    H124207   4.030   2.342   2.144
 8081TIP3    H224208   4.102   2.211   2.166
 8082TIP3   OH224209   2.271   3.738   5.878
 8082TIP3    H124210   2.262   3.691   5.795
 8082TIP3    H224211   2.234   3.678   5.943
 8083TIP3   OH224212   0.622  -0.014   2.834
 8083TIP3    H124213   0.631  -0.102   2.796
 8083TIP3    H224214   0.688   0.039   2.788
 8084TIP3   OH224215   4.165   3.878   3.076
 8084TIP3    H124216   4.223   3.904   3.004
 8084TIP3    H224217   4.123   3.798   3.046
 8085TIP3   OH224218   6.157   3.995   0.546
 8085TIP3    H124219   6.066   3.985   0.572
 8085TIP3    H224220   6.206   3.943   0.610
 8086TIP3   OH224221   6.065   2.696   5.077
 8086TIP3    H124222   6.151   2.736   5.087
 8086TIP3    H224223   6.024   2.705   5.163
 8087TIP3   OH224224   6.093   0.121   2.754
 8087TIP3    H124225   6.098   0.167   2.670
 8087TIP3    H224226   6.169   0.152   2.804
 8088TIP3   OH224227   2.494   2.510   2.452
 8088TIP3    H124228   2.443   2.584   2.483
 8088TIP3    H224229   2.519   2.534   2.363
 8089TIP3   OH224230   2.479   1.407   0.135
 8089TIP3    H124231   2.413   1.352   0.176
 8089TIP3    H224232   2.461   1.399   0.041
 8090TIP3   OH224233   1.903   4.511   2.008
 8090TIP3    H124234   1.918   4.427   2.050
 8090TIP3    H224235   1.991   4.544   1.990
 8091TIP3   OH224236   3.546   2.694   4.220
 8091TIP3    H124237   3.574   2.733   4.137
 8091TIP3    H224238   3.484   2.757   4.256
 8092TIP3   OH224239   2.256   0.475   4.322
 8092TIP3    H124240   2.223   0.555   4.364
 8092TIP3    H224241   2.185   0.448   4.264
 8093TIP3   OH224242   3.134   6.740   0.958
 8093TIP3    H124243   3.073   6.762   0.887
 8093TIP3    H224244   3.184   6.667   0.924
 8094TIP3   OH224245   3.589   4.162   2.135
 8094TIP3    H124246   3.677   4.128   2.124
 8094TIP3    H224247   3.588   4.201   2.222
 8095TIP3   OH224248   2.126   0.185   3.528
 8095TIP3    H124249   2.086   0.099   3.544
 8095TIP3    H224250   2.133   0.225   3.614
 8096TIP3   OH224251   6.558   0.900   2.517
 8096TIP3    H124252   6.561   0.930   2.607
 8096TIP3    H224253   6.487   0.949   2.477
 8097TIP3   OH224254   4.077   1.360   4.428
 8097TIP3    H124255   4.128   1.424   4.379
 8097TIP3    H224256   4.050   1.407   4.507
 8098TIP3   OH224257   3.372   6.531   4.496
 8098TIP3    H124258   3.435   6.568   4.559
 8098TIP3    H224259   3.290   6.577   4.515
 8099TIP3   OH224260   5.223   6.618   2.581
 8099TIP3    H124261   5.186   6.691   2.630
 8099TIP3    H224262   5.275   6.660   2.512
 8100TIP3   OH224263   2.117   6.669   1.425
 8100TIP3    H124264   2.192   6.628   1.469
 8100TIP3    H224265   2.081   6.729   1.490
 8101TIP3   OH224266   6.128   2.817   5.629
 8101TIP3    H124267   6.077   2.828   5.709
 8101TIP3    H224268   6.151   2.724   5.628
 8102TIP3   OH224269   1.205   0.848   3.300
 8102TIP3    H124270   1.237   0.841   3.210
 8102TIP3    H224271   1.234   0.768   3.343
 8103TIP3   OH224272   3.781   6.545   4.528
 8103TIP3    H124273   3.717   6.579   4.591
 8103TIP3    H224274   3.754   6.583   4.444
 8104TIP3   OH224275   6.587   2.014   0.925
 8104TIP3    H124276   6.542   1.992   1.006
 8104TIP3    H224277   6.652   2.079   0.951
 8105TIP3   OH224278   1.802   0.137   0.174
 8105TIP3    H124279   1.772   0.208   0.231
 8105TIP3    H224280   1.821   0.180   0.091
 8106TIP3   OH224281   3.408   4.537   0.443
 8106TIP3    H124282   3.327   4.501   0.407
 8106TIP3    H224283   3.462   4.460   0.460
 8107TIP3   OH224284   1.370   3.896   4.436
 8107TIP3    H124285   1.279   3.869   4.447
 8107TIP3    H224286   1.367   3.965   4.371
 8108TIP3   OH224287   3.170   0.554   3.954
 8108TIP3    H124288   3.133   0.596   3.875
 8108TIP3    H224289   3.140   0.463   3.948
 8109TIP3   OH224290   5.265   6.567   5.872
 8109TIP3    H124291   5.177   6.546   5.903
 8109TIP3    H224292   5.266   6.662   5.861
 8110TIP3   OH224293   1.912   6.138   5.176
 8110TIP3    H124294   1.929   6.127   5.083
 8110TIP3    H224295   1.931   6.230   5.194
 8111TIP3   OH224296   1.390   0.788   0.875
 8111TIP3    H124297   1.373   0.719   0.938
 8111TIP3    H224298   1.352   0.755   0.793
 8112TIP3   OH224299   2.220   5.698   3.273
 8112TIP3    H124300   2.216   5.776   3.218
 8112TIP3    H224301   2.131   5.663   3.272
 8113TIP3   OH224302   1.136   1.380   5.674
 8113TIP3    H124303   1.214   1.425   5.706
 8113TIP3    H224304   1.150   1.371   5.580
 8114TIP3   OH224305   2.257   0.347   0.093
 8114TIP3    H124306   2.287   0.291   0.165
 8114TIP3    H224307   2.325   0.415   0.086
 8115TIP3   OH224308   2.601   0.917   0.447
 8115TIP3    H124309   2.603   0.883   0.357
 8115TIP3    H224310   2.534   0.865   0.491
 8116TIP3   OH224311   0.388   0.607   2.734
 8116TIP3    H124312   0.419   0.577   2.649
 8116TIP3    H224313   0.464   0.601   2.791
 8117TIP3   OH224314   5.540   3.278   1.632
 8117TIP3    H124315   5.518   3.187   1.646
 8117TIP3    H224316   5.476   3.327   1.684
 8118TIP3   OH224317   4.111   1.028   3.684
 8118TIP3    H124318   4.017   1.023   3.699
 8118TIP3    H224319   4.150   1.002   3.768
 8119TIP3   OH224320   5.410   3.888   1.618
 8119TIP3    H124321   5.367   3.805   1.640
 8119TIP3    H224322   5.465   3.908   1.694
 8120TIP3   OH224323   3.406   1.430   0.932
 8120TIP3    H124324   3.451   1.395   0.855
 8120TIP3    H224325   3.314   1.432   0.907
 8121TIP3   OH224326   3.131   3.593   2.344
 8121TIP3    H124327   3.151   3.668   2.400
 8121TIP3    H224328   3.162   3.620   2.257
 8122TIP3   OH224329   4.041   5.213   0.660
 8122TIP3    H124330   4.126   5.173   0.644
 8122TIP3    H224331   4.050   5.257   0.745
 8123TIP3   OH224332   0.620   1.295   2.097
 8123TIP3    H124333   0.572   1.308   2.179
 8123TIP3    H224334   0.674   1.374   2.087
 8124TIP3   OH224335   2.683   2.384   0.435
 8124TIP3    H124336   2.765   2.343   0.410
 8124TIP3    H224337   2.620   2.312   0.437
 8125TIP3   OH224338   2.743   1.039   0.934
 8125TIP3    H124339   2.672   0.990   0.976
 8125TIP3    H224340   2.711   1.058   0.846
 8126TIP3   OH224341   3.774   2.660   1.131
 8126TIP3    H124342   3.717   2.733   1.105
 8126TIP3    H224343   3.809   2.686   1.216
 8127TIP3   OH224344   4.990   2.029   1.367
 8127TIP3    H124345   5.079   2.063   1.362
 8127TIP3    H224346   4.968   2.004   1.277
 8128TIP3   OH224347   4.617   0.952   0.063
 8128TIP3    H124348   4.533   0.929   0.023
 8128TIP3    H224349   4.656   1.014   0.002
 8129TIP3   OH224350   0.112   6.476   2.578
 8129TIP3    H124351   0.031   6.500   2.533
 8129TIP3    H224352   0.137   6.392   2.539
 8130TIP3   OH224353   6.173   0.986   2.176
 8130TIP3    H124354   6.086   0.952   2.156
 8130TIP3    H224355   6.186   1.057   2.113
 8131TIP3   OH224356   2.721   4.744   2.086
 8131TIP3    H124357   2.712   4.826   2.037
 8131TIP3    H224358   2.631   4.721   2.111
 8132TIP3   OH224359   3.119   1.826   3.367
 8132TIP3    H124360   3.078   1.837   3.453
 8132TIP3    H224361   3.172   1.747   3.375
 8133TIP3   OH224362   6.996   5.184   1.798
 8133TIP3    H124363   6.913   5.173   1.752
 8133TIP3    H224364   6.992   5.273   1.834
 8134TIP3   OH224365   6.831   6.527   2.884
 8134TIP3    H124366   6.913   6.478   2.880
 8134TIP3    H224367   6.820   6.563   2.796
 8135TIP3   OH224368   5.432   3.727   0.109
 8135TIP3    H124369   5.359   3.789   0.111
 8135TIP3    H224370   5.497   3.765   0.169
 8136TIP3   OH224371   4.260   2.075   5.544
 8136TIP3    H124372   4.277   2.024   5.623
 8136TIP3    H224373   4.267   2.166   5.572
 8137TIP3   OH224374   1.837   4.432   4.575
 8137TIP3    H124375   1.833   4.409   4.483
 8137TIP3    H224376   1.745   4.435   4.604
 8138TIP3   OH224377   1.055   2.240   5.317
 8138TIP3    H124378   0.986   2.302   5.296
 8138TIP3    H224379   1.119   2.291   5.367
 8139TIP3   OH224380   3.724   4.699   4.762
 8139TIP3    H124381   3.632   4.716   4.741
 8139TIP3    H224382   3.721   4.633   4.831
 8140TIP3   OH224383   3.304   4.081   0.081
 8140TIP3    H124384   3.377   4.020   0.095
 8140TIP3    H224385   3.312   4.145   0.151
 8141TIP3   OH224386   2.510   6.643   5.022
 8141TIP3    H124387   2.536   6.682   5.105
 8141TIP3    H224388   2.587   6.593   4.994
 8142TIP3   OH224389   2.920   2.835   1.799
 8142TIP3    H124390   2.879   2.917   1.771
 8142TIP3    H224391   2.954   2.796   1.719
 8143TIP3   OH224392   2.448   1.286   5.549
 8143TIP3    H124393   2.444   1.380   5.535
 8143TIP3    H224394   2.373   1.266   5.604
 8144TIP3   OH224395   7.056   1.217   2.099
 8144TIP3    H124396   7.027   1.287   2.040
 8144TIP3    H224397   7.101   1.155   2.042
 8145TIP3   OH224398   1.577   6.459   1.549
 8145TIP3    H124399   1.484   6.438   1.546
 8145TIP3    H224400   1.618   6.394   1.492
 8146TIP3   OH224401   6.711   3.376   3.114
 8146TIP3    H124402   6.639   3.339   3.064
 8146TIP3    H224403   6.680   3.378   3.204
 8147TIP3   OH224404   1.729   6.061   1.058
 8147TIP3    H124405   1.667   5.988   1.052
 8147TIP3    H224406   1.793   6.043   0.990
 8148TIP3   OH224407   2.102   5.634   0.258
 8148TIP3    H124408   2.102   5.608   0.350
 8148TIP3    H224409   2.050   5.714   0.256
 8149TIP3   OH224410   7.123   0.612   4.151
 8149TIP3    H124411   7.034   0.629   4.118
 8149TIP3    H224412   7.167   0.568   4.079
 8150TIP3   OH224413   3.414   2.700   2.118
 8150TIP3    H124414   3.423   2.780   2.171
 8150TIP3    H224415   3.503   2.664   2.114
 8151TIP3   OH224416   2.583   6.207   4.671
 8151TIP3    H124417   2.612   6.204   4.580
 8151TIP3    H224418   2.649   6.157   4.720
 8152TIP3   OH224419   2.265   1.256   0.202
 8152TIP3    H124420   2.180   1.299   0.209
 8152TIP3    H224421   2.248   1.166   0.230
 8153TIP3   OH224422   4.148   2.901   3.488
 8153TIP3    H124423   4.237   2.931   3.473
 8153TIP3    H224424   4.114   2.958   3.556
 8154TIP3   OH224425   3.954   4.612   5.509
 8154TIP3    H124426   4.008   4.686   5.537
 8154TIP3    H224427   3.889   4.602   5.578
 8155TIP3   OH224428   1.352   3.714   3.004
 8155TIP3    H124429   1.432   3.712   2.952
 8155TIP3    H224430   1.382   3.711   3.095
 8156TIP3   OH224431   1.111   5.225   4.535
 8156TIP3    H124432   1.120   5.131   4.524
 8156TIP3    H224433   1.016   5.239   4.546
 8157TIP3   OH224434   6.929   5.225   3.992
 8157TIP3    H124435   6.850   5.273   3.968
 8157TIP3    H224436   6.908   5.184   4.076
 8158TIP3   OH224437   6.375   1.752   3.964
 8158TIP3    H124438   6.409   1.668   3.932
 8158TIP3    H224439   6.379   1.810   3.888
 8159TIP3   OH224440   0.573   5.930   5.557
 8159TIP3    H124441   0.666   5.947   5.572
 8159TIP3    H224442   0.528   5.973   5.630
 8160TIP3   OH224443   3.010   5.353   3.386
 8160TIP3    H124444   3.034   5.289   3.319
 8160TIP3    H224445   2.915   5.349   3.390
 8161TIP3   OH224446   3.081   0.762   4.368
 8161TIP3    H124447   3.174   0.782   4.366
 8161TIP3    H224448   3.067   0.704   4.293
 8162TIP3   OH224449   2.890   0.852   4.810
 8162TIP3    H124450   2.897   0.823   4.719
 8162TIP3    H224451   2.859   0.775   4.858
 8163TIP3   OH224452   1.221   0.529   2.990
 8163TIP3    H124453   1.208   0.436   2.972
 8163TIP3    H224454   1.153   0.573   2.939
 8164TIP3   OH224455   5.791   3.477   2.088
 8164TIP3    H124456   5.802   3.537   2.162
 8164TIP3    H224457   5.863   3.499   2.028
 8165TIP3   OH224458   0.053   3.387   3.192
 8165TIP3    H124459   0.123   3.386   3.127
 8165TIP3    H224460   0.092   3.344   3.269
 8166TIP3   OH224461   2.653   4.635   1.488
 8166TIP3    H124462   2.632   4.555   1.441
 8166TIP3    H224463   2.627   4.617   1.579
 8167TIP3   OH224464   5.725   6.298   3.212
 8167TIP3    H124465   5.636   6.333   3.209
 8167TIP3    H224466   5.767   6.334   3.134
 8168TIP3   OH224467   6.647   1.543   3.426
 8168TIP3    H124468   6.571   1.516   3.374
 8168TIP3    H224469   6.654   1.475   3.494
 8169TIP3   OH224470   4.263   5.183   3.434
 8169TIP3    H124471   4.209   5.202   3.511
 8169TIP3    H224472   4.349   5.159   3.471
 8170TIP3   OH224473   5.406   2.124   4.900
 8170TIP3    H124474   5.386   2.137   4.808
 8170TIP3    H224475   5.322   2.132   4.945
 8171TIP3   OH224476   0.247   1.041   2.596
 8171TIP3    H124477   0.279   1.130   2.581
 8171TIP3    H224478   0.217   1.041   2.687
 8172TIP3   OH224479   4.174   0.769   2.623
 8172TIP3    H124480   4.243   0.830   2.648
 8172TIP3    H224481   4.198   0.687   2.666
 8173TIP3   OH224482   0.159   5.225   2.328
 8173TIP3    H124483   0.178   5.217   2.421
 8173TIP3    H224484   0.067   5.251   2.324
 8174TIP3   OH224485   0.352   2.419   2.263
 8174TIP3    H124486   0.304   2.483   2.212
 8174TIP3    H224487   0.432   2.402   2.212
 8175TIP3   OH224488   2.471   3.868   5.613
 8175TIP3    H124489   2.500   3.950   5.571
 8175TIP3    H224490   2.382   3.886   5.641
 8176TIP3   OH224491   5.774   4.603   3.554
 8176TIP3    H124492   5.777   4.698   3.569
 8176TIP3    H224493   5.722   4.593   3.474
 8177TIP3   OH224494   2.106   3.107   1.181
 8177TIP3    H124495   2.038   3.059   1.135
 8177TIP3    H224496   2.168   3.132   1.113
 8178TIP3   OH224497   2.500   5.583   4.047
 8178TIP3    H124498   2.576   5.610   3.996
 8178TIP3    H224499   2.501   5.640   4.124
 8179TIP3   OH224500   3.733   5.203   1.832
 8179TIP3    H124501   3.643   5.208   1.801
 8179TIP3    H224502   3.747   5.110   1.852
 8180TIP3   OH224503   6.120   2.011   0.861
 8180TIP3    H124504   6.192   2.040   0.804
 8180TIP3    H224505   6.043   2.055   0.825
 8181TIP3   OH224506   5.812   3.755   5.088
 8181TIP3    H124507   5.882   3.818   5.105
 8181TIP3    H224508   5.802   3.706   5.170
 8182TIP3   OH224509   6.723   5.576   1.696
 8182TIP3    H124510   6.727   5.484   1.669
 8182TIP3    H224511   6.664   5.576   1.771
 8183TIP3   OH224512   2.347   6.555   5.222
 8183TIP3    H124513   2.360   6.604   5.141
 8183TIP3    H224514   2.400   6.476   5.211
 8184TIP3   OH224515   0.836   3.562   2.176
 8184TIP3    H124516   0.815   3.652   2.199
 8184TIP3    H224517   0.869   3.523   2.257
 8185TIP3   OH224518   3.365   2.721   0.644
 8185TIP3    H124519   3.355   2.649   0.582
 8185TIP3    H224520   3.277   2.731   0.682
 8186TIP3   OH224521   1.131   2.678   2.625
 8186TIP3    H124522   1.108   2.702   2.536
 8186TIP3    H224523   1.079   2.600   2.644
 8187TIP3   OH224524   4.647   3.573   0.011
 8187TIP3    H124525   4.584   3.616  -0.047
 8187TIP3    H224526   4.609   3.486   0.027
 8188TIP3   OH224527   3.026   4.191   4.561
 8188TIP3    H124528   3.003   4.101   4.585
 8188TIP3    H224529   2.981   4.206   4.478
 8189TIP3   OH224530   3.907   4.498   1.287
 8189TIP3    H124531   3.907   4.578   1.234
 8189TIP3    H224532   3.972   4.442   1.244
 8190TIP3   OH224533   5.463   1.905   1.528
 8190TIP3    H124534   5.419   1.835   1.576
 8190TIP3    H224535   5.420   1.985   1.559
 8191TIP3   OH224536   4.283   1.987   2.935
 8191TIP3    H124537   4.286   1.910   2.877
 8191TIP3    H224538   4.342   2.050   2.894
 8192TIP3   OH224539   5.101   1.861   1.817
 8192TIP3    H124540   5.113   1.938   1.874
 8192TIP3    H224541   5.007   1.855   1.805
 8193TIP3   OH224542   4.706   2.872   3.693
 8193TIP3    H124543   4.731   2.891   3.602
 8193TIP3    H224544   4.680   2.957   3.729
 8194TIP3   OH224545   0.543   6.038   4.584
 8194TIP3    H124546   0.569   6.063   4.495
 8194TIP3    H224547   0.520   5.945   4.577
 8195TIP3   OH224548   1.225   1.664   1.850
 8195TIP3    H124549   1.145   1.692   1.894
 8195TIP3    H224550   1.224   1.569   1.857
 8196TIP3   OH224551   0.547   4.791   1.248
 8196TIP3    H124552   0.454   4.766   1.250
 8196TIP3    H224553   0.594   4.709   1.267
 8197TIP3   OH224554   0.665   0.911   3.268
 8197TIP3    H124555   0.613   0.873   3.339
 8197TIP3    H224556   0.703   0.835   3.224
 8198TIP3   OH224557   2.365   2.703   2.567
 8198TIP3    H124558   2.340   2.794   2.551
 8198TIP3    H224559   2.357   2.692   2.662
 8199TIP3   OH224560   3.216   4.950   2.798
 8199TIP3    H124561   3.291   4.990   2.842
 8199TIP3    H224562   3.156   5.024   2.782
 8200TIP3   OH224563   3.348   5.761   5.254
 8200TIP3    H124564   3.270   5.793   5.298
 8200TIP3    H224565   3.325   5.671   5.228
 8201TIP3   OH224566   1.673   5.244   5.103
 8201TIP3    H124567   1.614   5.266   5.175
 8201TIP3    H224568   1.632   5.282   5.026
 8202TIP3   OH224569   0.510   0.667   4.462
 8202TIP3    H124570   0.512   0.739   4.400
 8202TIP3    H224571   0.602   0.656   4.489
 8203TIP3   OH224572   0.335   2.128   4.766
 8203TIP3    H124573   0.290   2.211   4.748
 8203TIP3    H224574   0.404   2.152   4.828
 8204TIP3   OH224575   2.348   2.052   3.128
 8204TIP3    H124576   2.275   2.055   3.066
 8204TIP3    H224577   2.399   1.975   3.102
 8205TIP3   OH224578   3.811   2.081   2.396
 8205TIP3    H124579   3.890   2.108   2.349
 8205TIP3    H224580   3.808   2.139   2.472
 8206TIP3   OH224581   1.117   5.030   3.714
 8206TIP3    H124582   1.063   4.955   3.686
 8206TIP3    H224583   1.096   5.041   3.807
 8207TIP3   OH224584   4.128   0.112   0.114
 8207TIP3    H124585   4.066   0.180   0.086
 8207TIP3    H224586   4.104   0.035   0.062
 8208TIP3   OH224587   0.480   2.688   1.631
 8208TIP3    H124588   0.449   2.598   1.626
 8208TIP3    H224589   0.463   2.725   1.544
 8209TIP3   OH224590   6.443   0.633   1.932
 8209TIP3    H124591   6.367   0.575   1.931
 8209TIP3    H224592   6.464   0.644   2.025
 8210TIP3   OH224593   4.096   4.991   1.862
 8210TIP3    H124594   4.157   4.985   1.936
 8210TIP3    H224595   4.079   5.084   1.852
 8211TIP3   OH224596   3.412   3.725   0.030
 8211TIP3    H124597   3.473   3.731  -0.043
 8211TIP3    H224598   3.369   3.641   0.019
 8212TIP3   OH224599   3.103   4.800   1.236
 8212TIP3    H124600   3.045   4.782   1.162
 8212TIP3    H224601   3.050   4.780   1.313
 8213TIP3   OH224602   0.620   4.069   0.248
 8213TIP3    H124603   0.553   4.083   0.314
 8213TIP3    H224604   0.700   4.054   0.298
 8214TIP3   OH224605   4.729   6.316   4.042
 8214TIP3    H124606   4.634   6.324   4.049
 8214TIP3    H224607   4.747   6.224   4.059
 8215TIP3   OH224608   7.013   0.667   2.671
 8215TIP3    H124609   6.966   0.618   2.604
 8215TIP3    H224610   6.952   0.737   2.697
 8216TIP3   OH224611   5.261   4.880   3.549
 8216TIP3    H124612   5.329   4.922   3.603
 8216TIP3    H224613   5.188   4.942   3.550
 8217TIP3   OH224614   0.490   0.408   2.109
 8217TIP3    H124615   0.529   0.482   2.156
 8217TIP3    H224616   0.559   0.380   2.048
 8218TIP3   OH224617   0.794   2.831   5.822
 8218TIP3    H124618   0.724   2.896   5.819
 8218TIP3    H224619   0.769   2.773   5.894
 8219TIP3   OH224620   2.301   2.131   2.544
 8219TIP3    H124621   2.306   2.226   2.531
 8219TIP3    H224622   2.298   2.095   2.455
 8220TIP3   OH224623   5.749   4.841   5.305
 8220TIP3    H124624   5.790   4.773   5.251
 8220TIP3    H224625   5.812   4.857   5.375
 8221TIP3   OH224626   2.102   6.528   2.749
 8221TIP3    H124627   2.106   6.433   2.742
 8221TIP3    H224628   2.009   6.549   2.751
 8222TIP3   OH224629   6.409   3.131   3.730
 8222TIP3    H124630   6.360   3.156   3.808
 8222TIP3    H224631   6.488   3.184   3.734
 8223TIP3   OH224632   3.857   6.290   2.708
 8223TIP3    H124633   3.766   6.319   2.710
 8223TIP3    H224634   3.875   6.275   2.615
 8224TIP3   OH224635   4.537   4.721   4.980
 8224TIP3    H124636   4.506   4.631   4.966
 8224TIP3    H224637   4.569   4.748   4.894
 8225TIP3   OH224638   5.764   3.206   3.387
 8225TIP3    H124639   5.697   3.273   3.401
 8225TIP3    H224640   5.775   3.165   3.473
 8226TIP3   OH224641   6.178   4.971   0.298
 8226TIP3    H124642   6.142   4.990   0.211
 8226TIP3    H224643   6.109   4.920   0.341
 8227TIP3   OH224644   4.812   5.574   0.591
 8227TIP3    H124645   4.768   5.489   0.583
 8227TIP3    H224646   4.759   5.633   0.537
 8228TIP3   OH224647   3.074   5.460   2.913
 8228TIP3    H124648   3.160   5.494   2.937
 8228TIP3    H224649   3.055   5.394   2.980
 8229TIP3   OH224650   0.209   0.029   1.985
 8229TIP3    H124651   0.167   0.111   2.011
 8229TIP3    H224652   0.149  -0.039   2.015
 8230TIP3   OH224653   4.564   2.468   1.674
 8230TIP3    H124654   4.524   2.549   1.642
 8230TIP3    H224655   4.644   2.459   1.622
 8231TIP3   OH224656   1.864   4.090   0.563
 8231TIP3    H124657   1.869   4.087   0.658
 8231TIP3    H224658   1.798   4.157   0.544
 8232TIP3   OH224659   5.153   2.158   4.411
 8232TIP3    H124660   5.117   2.199   4.332
 8232TIP3    H224661   5.131   2.066   4.402
 8233TIP3   OH224662   3.251   5.051   4.313
 8233TIP3    H124663   3.274   5.084   4.400
 8233TIP3    H224664   3.164   5.088   4.295
 8234TIP3   OH224665   4.382   5.704   4.162
 8234TIP3    H124666   4.332   5.624   4.145
 8234TIP3    H224667   4.458   5.674   4.212
 8235TIP3   OH224668   1.085   4.322   3.523
 8235TIP3    H124669   1.060   4.294   3.611
 8235TIP3    H224670   1.122   4.243   3.482
 8236TIP3   OH224671   6.280   5.372   3.680
 8236TIP3    H124672   6.268   5.329   3.764
 8236TIP3    H224673   6.345   5.319   3.634
 8237TIP3   OH224674   0.379   3.609   5.595
 8237TIP3    H124675   0.353   3.663   5.669
 8237TIP3    H224676   0.362   3.519   5.624
 8238TIP3   OH224677   3.748   1.752   4.085
 8238TIP3    H124678   3.712   1.689   4.022
 8238TIP3    H224679   3.784   1.822   4.031
 8239TIP3   OH224680   2.751   4.852   0.690
 8239TIP3    H124681   2.810   4.926   0.706
 8239TIP3    H224682   2.681   4.888   0.635
 8240TIP3   OH224683   5.014   3.058   1.734
 8240TIP3    H124684   5.059   3.107   1.666
 8240TIP3    H224685   4.922   3.058   1.707
 8241TIP3   OH224686   3.460   3.676   1.579
 8241TIP3    H124687   3.482   3.667   1.486
 8241TIP3    H224688   3.454   3.771   1.593
 8242TIP3   OH224689   1.552   3.215   5.773
 8242TIP3    H124690   1.547   3.126   5.807
 8242TIP3    H224691   1.610   3.261   5.834
 8243TIP3   OH224692   5.568   1.581   1.545
 8243TIP3    H124693   5.619   1.643   1.492
 8243TIP3    H224694   5.489   1.629   1.569
 8244TIP3   OH224695   4.590   0.505   0.973
 8244TIP3    H124696   4.553   0.486   0.886
 8244TIP3    H224697   4.648   0.580   0.958
 8245TIP3   OH224698   5.408   3.200   0.875
 8245TIP3    H124699   5.335   3.247   0.915
 8245TIP3    H224700   5.413   3.234   0.786
 8246TIP3   OH224701   6.119   2.959   3.141
 8246TIP3    H124702   6.137   3.044   3.181
 8246TIP3    H224703   6.023   2.952   3.141
 8247TIP3   OH224704   0.576   3.539   3.291
 8247TIP3    H124705   0.656   3.515   3.338
 8247TIP3    H224706   0.522   3.582   3.357
 8248TIP3   OH224707   7.111   5.518   3.286
 8248TIP3    H124708   7.196   5.525   3.241
 8248TIP3    H224709   7.126   5.559   3.371
 8249TIP3   OH224710   5.022   1.852   0.373
 8249TIP3    H124711   5.115   1.850   0.353
 8249TIP3    H224712   4.978   1.845   0.288
 8250TIP3   OH224713   3.291   1.750   0.441
 8250TIP3    H124714   3.207   1.734   0.398
 8250TIP3    H224715   3.307   1.844   0.428
 8251TIP3   OH224716   4.135   3.739   1.901
 8251TIP3    H124717   4.191   3.768   1.973
 8251TIP3    H224718   4.050   3.723   1.942
 8252TIP3   OH224719   4.247   1.390   1.553
 8252TIP3    H124720   4.256   1.383   1.458
 8252TIP3    H224721   4.169   1.443   1.567
 8253TIP3   OH224722   0.470   3.099   0.067
 8253TIP3    H124723   0.510   3.091   0.154
 8253TIP3    H224724   0.419   3.019   0.057
 8254TIP3   OH224725   1.902   2.665   2.155
 8254TIP3    H124726   1.943   2.579   2.158
 8254TIP3    H224727   1.933   2.702   2.072
 8255TIP3   OH224728   0.557   5.507   4.731
 8255TIP3    H124729   0.503   5.550   4.797
 8255TIP3    H224730   0.584   5.424   4.771
 8256TIP3   OH224731   4.412   1.143   3.843
 8256TIP3    H124732   4.340   1.190   3.802
 8256TIP3    H224733   4.451   1.093   3.771
 8257TIP3   OH224734   0.960   3.086   0.638
 8257TIP3    H124735   1.046   3.127   0.634
 8257TIP3    H224736   0.900   3.152   0.602
 8258TIP3   OH224737   4.612   6.716   0.589
 8258TIP3    H124738   4.667   6.734   0.666
 8258TIP3    H224739   4.638   6.629   0.561
 8259TIP3   OH224740   5.873   0.250   3.719
 8259TIP3    H124741   5.904   0.169   3.760
 8259TIP3    H224742   5.938   0.316   3.742
 8260TIP3   OH224743   4.971   4.865   5.155
 8260TIP3    H124744   4.906   4.797   5.137
 8260TIP3    H224745   5.055   4.823   5.137
 8261TIP3   OH224746   3.690   0.528   1.256
 8261TIP3    H124747   3.673   0.602   1.314
 8261TIP3    H224748   3.625   0.463   1.280
 8262TIP3   OH224749   5.417   6.637   4.325
 8262TIP3    H124750   5.400   6.623   4.232
 8262TIP3    H224751   5.348   6.696   4.354
 8263TIP3   OH224752   4.751   3.498   4.625
 8263TIP3    H124753   4.731   3.573   4.569
 8263TIP3    H224754   4.720   3.422   4.576
 8264TIP3   OH224755   6.434   6.097   0.145
 8264TIP3    H124756   6.442   6.193   0.145
 8264TIP3    H224757   6.404   6.076   0.234
 8265TIP3   OH224758   5.189   1.660   0.095
 8265TIP3    H124759   5.236   1.610   0.162
 8265TIP3    H224760   5.256   1.714   0.054
 8266TIP3   OH224761   2.453   6.071   5.271
 8266TIP3    H124762   2.363   6.102   5.278
 8266TIP3    H224763   2.450   5.980   5.301
 8267TIP3   OH224764   2.412   3.911   2.225
 8267TIP3    H124765   2.486   3.923   2.285
 8267TIP3    H224766   2.419   3.984   2.164
 8268TIP3   OH224767   0.325   3.224   3.818
 8268TIP3    H124768   0.345   3.147   3.871
 8268TIP3    H224769   0.267   3.191   3.749
 8269TIP3   OH224770   7.016   6.711   4.722
 8269TIP3    H124771   6.932   6.682   4.686
 8269TIP3    H224772   7.069   6.735   4.645
 8270TIP3   OH224773   5.060   1.490   0.476
 8270TIP3    H124774   5.093   1.487   0.565
 8270TIP3    H224775   5.027   1.402   0.459
 8271TIP3   OH224776   0.185   1.083   2.160
 8271TIP3    H124777   0.141   1.095   2.076
 8271TIP3    H224778   0.132   1.133   2.222
 8272TIP3   OH224779   7.022   3.934   1.604
 8272TIP3    H124780   6.983   4.021   1.617
 8272TIP3    H224781   6.966   3.892   1.540
 8273TIP3   OH224782   5.038   5.021   3.487
 8273TIP3    H124783   5.090   5.076   3.429
 8273TIP3    H224784   4.966   5.078   3.516
 8274TIP3   OH224785   0.979   4.393   0.602
 8274TIP3    H124786   0.939   4.371   0.686
 8274TIP3    H224787   1.071   4.410   0.622
 8275TIP3   OH224788   6.661   3.620   2.988
 8275TIP3    H124789   6.704   3.543   3.024
 8275TIP3    H224790   6.570   3.613   3.017
 8276TIP3   OH224791   6.995   3.505   1.269
 8276TIP3    H124792   7.023   3.518   1.360
 8276TIP3    H224793   7.041   3.426   1.242
 8277TIP3   OH224794   5.195   4.391   1.858
 8277TIP3    H124795   5.272   4.356   1.814
 8277TIP3    H224796   5.230   4.445   1.929
 8278TIP3   OH224797   1.361   4.789   3.862
 8278TIP3    H124798   1.371   4.852   3.791
 8278TIP3    H224799   1.353   4.842   3.941
 8279TIP3   OH224800   1.988   6.514   3.123
 8279TIP3    H124801   1.907   6.469   3.146
 8279TIP3    H224802   2.056   6.470   3.175
 8280TIP3   OH224803   3.172   0.020   0.140
 8280TIP3    H124804   3.206   0.016   0.229
 8280TIP3    H224805   3.244  -0.013   0.086
 8281TIP3   OH224806   0.269   4.772   4.660
 8281TIP3    H124807   0.219   4.739   4.585
 8281TIP3    H224808   0.358   4.782   4.627
 8282TIP3   OH224809   4.592   2.721   1.013
 8282TIP3    H124810   4.600   2.629   0.988
 8282TIP3    H224811   4.504   2.746   0.987
 8283TIP3   OH224812   2.314   4.519   1.508
 8283TIP3    H124813   2.357   4.433   1.499
 8283TIP3    H224814   2.241   4.516   1.446
 8284TIP3   OH224815   3.055   5.265   3.119
 8284TIP3    H124816   3.039   5.173   3.099
 8284TIP3    H224817   3.147   5.278   3.097
 8285TIP3   OH224818   6.309   5.917   2.187
 8285TIP3    H124819   6.365   5.965   2.126
 8285TIP3    H224820   6.333   5.825   2.176
 8286TIP3   OH224821   3.909   3.357   5.417
 8286TIP3    H124822   3.881   3.325   5.503
 8286TIP3    H224823   3.830   3.354   5.363
 8287TIP3   OH224824   5.279   6.530   4.067
 8287TIP3    H124825   5.213   6.462   4.087
 8287TIP3    H224826   5.234   6.612   4.084
 8288TIP3   OH224827   4.363   3.005   3.724
 8288TIP3    H124828   4.416   3.084   3.714
 8288TIP3    H224829   4.398   2.945   3.657
 8289TIP3   OH224830   5.812   0.395   2.742
 8289TIP3    H124831   5.777   0.394   2.831
 8289TIP3    H224832   5.845   0.484   2.730
 8290TIP3   OH224833   5.367   1.440   1.341
 8290TIP3    H124834   5.456   1.408   1.353
 8290TIP3    H224835   5.367   1.528   1.378
 8291TIP3   OH224836   0.869   2.993   3.416
 8291TIP3    H124837   0.896   2.981   3.325
 8291TIP3    H224838   0.888   3.085   3.435
 8292TIP3   OH224839   1.099   6.303   2.988
 8292TIP3    H124840   1.139   6.378   3.031
 8292TIP3    H224841   1.155   6.229   3.011
 8293TIP3   OH224842   5.687   6.039   5.181
 8293TIP3    H124843   5.652   6.104   5.242
 8293TIP3    H224844   5.733   6.090   5.114
 8294TIP3   OH224845   4.973   0.784   0.405
 8294TIP3    H124846   5.015   0.779   0.491
 8294TIP3    H224847   5.019   0.720   0.351
 8295TIP3   OH224848   1.654   0.806   5.541
 8295TIP3    H124849   1.572   0.853   5.559
 8295TIP3    H224850   1.722   0.861   5.579
 8296TIP3   OH224851   3.307   5.529   5.098
 8296TIP3    H124852   3.311   5.465   5.169
 8296TIP3    H224853   3.341   5.483   5.021
 8297TIP3   OH224854   1.551   5.519   2.707
 8297TIP3    H124855   1.474   5.501   2.761
 8297TIP3    H224856   1.623   5.473   2.751
 8298TIP3   OH224857   6.629   0.437   2.789
 8298TIP3    H124858   6.628   0.448   2.884
 8298TIP3    H224859   6.538   0.452   2.762
 8299TIP3   OH224860   3.591   3.755   5.795
 8299TIP3    H124861   3.643   3.754   5.715
 8299TIP3    H224862   3.500   3.749   5.765
 8300TIP3   OH224863   0.580   5.419   0.754
 8300TIP3    H124864   0.641   5.417   0.680
 8300TIP3    H224865   0.633   5.394   0.829
 8301TIP3   OH224866   0.068   4.179   0.315
 8301TIP3    H124867   0.109   4.110   0.367
 8301TIP3    H224868   0.062   4.254   0.375
 8302TIP3   OH224869   2.861   4.660   1.128
 8302TIP3    H124870   2.823   4.587   1.079
 8302TIP3    H224871   2.832   4.738   1.082
 8303TIP3   OH224872   5.926   0.800   5.494
 8303TIP3    H124873   5.967   0.789   5.580
 8303TIP3    H224874   5.991   0.849   5.443
 8304TIP3   OH224875   1.313   1.526   2.143
 8304TIP3    H124876   1.390   1.573   2.110
 8304TIP3    H224877   1.334   1.434   2.130
 8305TIP3   OH224878   5.427   1.737   5.625
 8305TIP3    H124879   5.396   1.689   5.548
 8305TIP3    H224880   5.461   1.820   5.590
 8306TIP3   OH224881   3.643   5.635   0.836
 8306TIP3    H124882   3.671   5.708   0.891
 8306TIP3    H224883   3.649   5.558   0.893
 8307TIP3   OH224884   6.125   2.076   1.845
 8307TIP3    H124885   6.096   2.150   1.791
 8307TIP3    H224886   6.206   2.105   1.886
 8308TIP3   OH224887   3.492   5.569   3.908
 8308TIP3    H124888   3.573   5.609   3.940
 8308TIP3    H224889   3.436   5.564   3.986
 8309TIP3   OH224890   0.231   4.261   5.399
 8309TIP3    H124891   0.311   4.299   5.434
 8309TIP3    H224892   0.179   4.239   5.476
 8310TIP3   OH224893   0.632   3.303   0.222
 8310TIP3    H124894   0.579   3.252   0.282
 8310TIP3    H224895   0.576   3.316   0.145
 8311TIP3   OH224896   4.398   6.129   4.258
 8311TIP3    H124897   4.434   6.190   4.194
 8311TIP3    H224898   4.473   6.076   4.285
 8312TIP3   OH224899   5.076   6.065   3.496
 8312TIP3    H124900   5.149   6.022   3.451
 8312TIP3    H224901   5.098   6.158   3.493
 8313TIP3   OH224902   5.491   6.437   3.955
 8313TIP3    H124903   5.512   6.393   4.037
 8313TIP3    H224904   5.404   6.474   3.970
 8314TIP3   OH224905   5.502   2.737   1.800
 8314TIP3    H124906   5.486   2.782   1.884
 8314TIP3    H224907   5.421   2.690   1.782
 8315TIP3   OH224908   2.935   3.363   2.653
 8315TIP3    H124909   2.980   3.447   2.668
 8315TIP3    H224910   2.910   3.365   2.561
 8316TIP3   OH224911   7.059   5.327   5.681
 8316TIP3    H124912   7.092   5.243   5.712
 8316TIP3    H224913   6.967   5.310   5.659
 8317TIP3   OH224914   6.288   1.957   3.322
 8317TIP3    H124915   6.370   1.917   3.295
 8317TIP3    H224916   6.309   2.048   3.341
 8318TIP3   OH224917   1.396   5.992   2.269
 8318TIP3    H124918   1.490   5.989   2.285
 8318TIP3    H224919   1.359   6.032   2.348
 8319TIP3   OH224920   5.082   4.124   2.028
 8319TIP3    H124921   5.104   4.033   2.005
 8319TIP3    H224922   5.118   4.176   1.957
 8320TIP3   OH224923   3.810   1.771   4.380
 8320TIP3    H124924   3.875   1.837   4.354
 8320TIP3    H224925   3.727   1.805   4.348
 8321TIP3   OH224926   2.533   4.556   3.971
 8321TIP3    H124927   2.443   4.574   3.998
 8321TIP3    H224928   2.562   4.486   4.029
 8322TIP3   OH224929   5.576   2.265   5.119
 8322TIP3    H124930   5.595   2.182   5.076
 8322TIP3    H224931   5.655   2.317   5.108
 8323TIP3   OH224932   4.167   1.373   2.510
 8323TIP3    H124933   4.238   1.421   2.469
 8323TIP3    H224934   4.109   1.441   2.546
 8324TIP3   OH224935   2.289   6.308   4.320
 8324TIP3    H124936   2.235   6.387   4.326
 8324TIP3    H224937   2.245   6.244   4.376
 8325TIP3   OH224938   0.896   1.531   0.534
 8325TIP3    H124939   0.955   1.538   0.459
 8325TIP3    H224940   0.936   1.465   0.591
 8326TIP3   OH224941   2.161   4.608   0.678
 8326TIP3    H124942   2.100   4.541   0.712
 8326TIP3    H224943   2.108   4.661   0.619
 8327TIP3   OH224944   5.208   1.936   0.797
 8327TIP3    H124945   5.170   1.851   0.820
 8327TIP3    H224946   5.171   1.957   0.711
 8328TIP3   OH224947   1.735   4.270   4.872
 8328TIP3    H124948   1.652   4.290   4.916
 8328TIP3    H224949   1.797   4.333   4.908
 8329TIP3   OH224950   2.087   4.250   2.567
 8329TIP3    H124951   2.118   4.170   2.523
 8329TIP3    H224952   2.110   4.321   2.507
 8330TIP3   OH224953   1.986   5.235   3.460
 8330TIP3    H124954   2.076   5.269   3.463
 8330TIP3    H224955   1.941   5.281   3.530
 8331TIP3   OH224956   2.003   2.638   0.222
 8331TIP3    H124957   2.065   2.618   0.293
 8331TIP3    H224958   1.975   2.552   0.190
 8332TIP3   OH224959   1.050   0.663   0.913
 8332TIP3    H124960   0.981   0.696   0.855
 8332TIP3    H224961   1.026   0.697   0.999
 8333TIP3   OH224962   0.182   2.381   1.522
 8333TIP3    H124963   0.255   2.424   1.477
 8333TIP3    H224964   0.135   2.451   1.566
 8334TIP3   OH224965   1.692   3.688   1.326
 8334TIP3    H124966   1.652   3.602   1.317
 8334TIP3    H224967   1.629   3.739   1.377
 8335TIP3   OH224968   5.788   0.944   5.884
 8335TIP3    H124969   5.783   0.850   5.899
 8335TIP3    H224970   5.710   0.964   5.831
 8336TIP3   OH224971   2.697   6.448   5.191
 8336TIP3    H124972   2.745   6.431   5.109
 8336TIP3    H224973   2.609   6.415   5.173
 8337TIP3   OH224974   4.176   2.569   1.026
 8337TIP3    H124975   4.120   2.499   0.991
 8337TIP3    H224976   4.122   2.613   1.091
 8338TIP3   OH224977   2.926   2.856   1.088
 8338TIP3    H124978   3.010   2.899   1.072
 8338TIP3    H224979   2.863   2.928   1.089
 8339TIP3   OH224980   3.143   1.297   1.106
 8339TIP3    H124981   3.197   1.316   1.182
 8339TIP3    H224982   3.159   1.205   1.087
 8340TIP3   OH224983   4.750   5.597   3.193
 8340TIP3    H124984   4.771   5.504   3.195
 8340TIP3    H224985   4.830   5.639   3.162
 8341TIP3   OH224986   2.360   5.735   3.525
 8341TIP3    H124987   2.357   5.818   3.573
 8341TIP3    H224988   2.284   5.739   3.466
 8342TIP3   OH224989   0.411   1.933   0.557
 8342TIP3    H124990   0.427   1.991   0.483
 8342TIP3    H224991   0.389   1.992   0.629
 8343TIP3   OH224992   3.895   5.566   0.803
 8343TIP3    H124993   3.806   5.586   0.829
 8343TIP3    H224994   3.939   5.650   0.800
 8344TIP3   OH224995   6.006   3.514   1.398
 8344TIP3    H124996   5.967   3.582   1.343
 8344TIP3    H224997   6.057   3.562   1.463
 8345TIP3   OH224998   6.841   3.494   0.874
 8345TIP3    H124999   6.898   3.424   0.842
 8345TIP3    H225000   6.775   3.450   0.926
 8346TIP3   OH225001   3.242   0.956   1.245
 8346TIP3    H125002   3.172   0.895   1.220
 8346TIP3    H225003   3.271   0.926   1.331
 8347TIP3   OH225004   4.365   3.666   0.310
 8347TIP3    H125005   4.311   3.621   0.245
 8347TIP3    H225006   4.435   3.706   0.259
 8348TIP3   OH225007   6.219   2.577   0.210
 8348TIP3    H125008   6.223   2.497   0.262
 8348TIP3    H225009   6.209   2.647   0.274
 8349TIP3   OH225010   6.658   0.821   3.649
 8349TIP3    H125011   6.629   0.803   3.738
 8349TIP3    H225012   6.607   0.897   3.622
 8350TIP3   OH225013   6.248   6.029   1.343
 8350TIP3    H125014   6.231   5.998   1.432
 8350TIP3    H225015   6.310   5.965   1.306
 8351TIP3   OH225016   3.681   4.144   4.908
 8351TIP3    H125017   3.725   4.064   4.880
 8351TIP3    H225018   3.740   4.215   4.882
 8352TIP3   OH225019   3.808   3.924   4.793
 8352TIP3    H125020   3.768   3.911   4.707
 8352TIP3    H225021   3.830   3.836   4.823
 8353TIP3   OH225022   5.751   4.034   5.729
 8353TIP3    H125023   5.821   3.977   5.763
 8353TIP3    H225024   5.681   4.026   5.794
 8354TIP3   OH225025   4.189   2.690   0.066
 8354TIP3    H125026   4.165   2.645   0.146
 8354TIP3    H225027   4.212   2.779   0.094
 8355TIP3   OH225028   7.203   4.924   3.247
 8355TIP3    H125029   7.193   4.998   3.307
 8355TIP3    H225030   7.161   4.850   3.292
 8356TIP3   OH225031   0.404   3.683   4.690
 8356TIP3    H125032   0.476   3.744   4.706
 8356TIP3    H225033   0.386   3.645   4.776
 8357TIP3   OH225034   4.764   4.235   0.803
 8357TIP3    H125035   4.771   4.139   0.802
 8357TIP3    H225036   4.848   4.265   0.767
 8358TIP3   OH225037   3.032   1.899   4.865
 8358TIP3    H125038   3.083   1.942   4.934
 8358TIP3    H225039   2.967   1.964   4.840
 8359TIP3   OH225040   7.167   0.672   0.699
 8359TIP3    H125041   7.085   0.633   0.671
 8359TIP3    H225042   7.234   0.607   0.677
 8360TIP3   OH225043   5.840   5.942   3.270
 8360TIP3    H125044   5.761   5.888   3.277
 8360TIP3    H225045   5.881   5.936   3.357
 8361TIP3   OH225046   4.901   5.451   4.261
 8361TIP3    H125047   4.992   5.425   4.245
 8361TIP3    H225048   4.890   5.442   4.356
 8362TIP3   OH225049   4.772   3.573   4.897
 8362TIP3    H125050   4.760   3.537   4.809
 8362TIP3    H225051   4.861   3.546   4.922
 8363TIP3   OH225052   1.050   3.433   4.947
 8363TIP3    H125053   1.005   3.516   4.935
 8363TIP3    H225054   1.085   3.411   4.861
 8364TIP3   OH225055   4.568   5.302   3.945
 8364TIP3    H125056   4.612   5.217   3.948
 8364TIP3    H225057   4.580   5.331   3.854
 8365TIP3   OH225058   3.668   6.278   3.911
 8365TIP3    H125059   3.586   6.319   3.940
 8365TIP3    H225060   3.643   6.228   3.833
 8366TIP3   OH225061   4.809   2.174   0.674
 8366TIP3    H125062   4.811   2.206   0.584
 8366TIP3    H225063   4.747   2.232   0.718
 8367TIP3   OH225064   6.453   6.648   2.664
 8367TIP3    H125065   6.505   6.570   2.686
 8367TIP3    H225066   6.385   6.615   2.605
 8368TIP3   OH225067   0.168   5.637   1.289
 8368TIP3    H125068   0.166   5.633   1.385
 8368TIP3    H225069   0.109   5.709   1.266
 8369TIP3   OH225070   0.059   1.386   4.528
 8369TIP3    H125071   0.062   1.468   4.576
 8369TIP3    H225072   0.088   1.409   4.439
 8370TIP3   OH225073   0.774   4.531   4.530
 8370TIP3    H125074   0.852   4.586   4.532
 8370TIP3    H225075   0.707   4.586   4.490
 8371TIP3   OH225076   1.346   5.289   5.655
 8371TIP3    H125077   1.379   5.199   5.652
 8371TIP3    H225078   1.297   5.294   5.737
 8372TIP3   OH225079   3.294   5.225   2.811
 8372TIP3    H125080   3.370   5.257   2.761
 8372TIP3    H225081   3.220   5.274   2.775
 8373TIP3   OH225082   6.815   5.490   3.261
 8373TIP3    H125083   6.903   5.523   3.281
 8373TIP3    H225084   6.817   5.471   3.168
 8374TIP3   OH225085   2.541   3.223   0.794
 8374TIP3    H125086   2.594   3.301   0.810
 8374TIP3    H225087   2.604   3.155   0.771
 8375TIP3   OH225088   0.766   3.839   5.006
 8375TIP3    H125089   0.729   3.847   5.094
 8375TIP3    H225090   0.755   3.746   4.984
 8376TIP3   OH225091   0.096   0.923   1.091
 8376TIP3    H125092   0.031   0.902   1.023
 8376TIP3    H225093   0.065   0.876   1.168
 8377TIP3   OH225094   5.821   1.750   3.950
 8377TIP3    H125095   5.750   1.736   3.888
 8377TIP3    H225096   5.817   1.675   4.009
 8378TIP3   OH225097   3.721   6.025   1.606
 8378TIP3    H125098   3.810   6.042   1.636
 8378TIP3    H225099   3.722   6.048   1.514
 8379TIP3   OH225100   6.477   0.270   1.180
 8379TIP3    H125101   6.473   0.351   1.231
 8379TIP3    H225102   6.512   0.205   1.242
 8380TIP3   OH225103   5.142   1.118   4.431
 8380TIP3    H125104   5.139   1.091   4.339
 8380TIP3    H225105   5.197   1.052   4.473
 8381TIP3   OH225106   2.260   2.004   1.436
 8381TIP3    H125107   2.207   2.075   1.473
 8381TIP3    H225108   2.327   1.987   1.501
 8382TIP3   OH225109   5.803   2.212   2.653
 8382TIP3    H125110   5.781   2.198   2.561
 8382TIP3    H225111   5.720   2.233   2.695
 8383TIP3   OH225112   4.189   3.996   4.726
 8383TIP3    H125113   4.159   3.994   4.635
 8383TIP3    H225114   4.188   4.088   4.750
 8384TIP3   OH225115   0.941   4.665   0.541
 8384TIP3    H125116   0.943   4.572   0.567
 8384TIP3    H225117   0.866   4.672   0.483
 8385TIP3   OH225118   5.406   5.473   5.469
 8385TIP3    H125119   5.374   5.473   5.378
 8385TIP3    H225120   5.413   5.381   5.492
 8386TIP3   OH225121   3.851   4.077   2.145
 8386TIP3    H125122   3.834   3.996   2.193
 8386TIP3    H225123   3.912   4.052   2.076
 8387TIP3   OH225124   3.604   5.042   3.957
 8387TIP3    H125125   3.599   4.995   3.873
 8387TIP3    H225126   3.617   5.134   3.932
 8388TIP3   OH225127   6.791   0.831   4.805
 8388TIP3    H125128   6.865   0.813   4.863
 8388TIP3    H225129   6.808   0.778   4.727
 8389TIP3   OH225130   5.440   0.991   5.353
 8389TIP3    H125131   5.345   1.002   5.355
 8389TIP3    H225132   5.474   1.075   5.320
 8390TIP3   OH225133   4.141   6.232   4.417
 8390TIP3    H125134   4.048   6.237   4.395
 8390TIP3    H225135   4.185   6.216   4.333
 8391TIP3   OH225136   4.789   6.572   3.593
 8391TIP3    H125137   4.759   6.501   3.536
 8391TIP3    H225138   4.717   6.586   3.654
 8392TIP3   OH225139   3.543   6.414   0.574
 8392TIP3    H125140   3.629   6.451   0.557
 8392TIP3    H225141   3.522   6.441   0.664
 8393TIP3   OH225142   4.986   4.030   4.987
 8393TIP3    H125143   5.030   3.951   4.956
 8393TIP3    H225144   4.895   4.004   4.998
 8394TIP3   OH225145   2.930   4.358   5.083
 8394TIP3    H125146   3.010   4.379   5.133
 8394TIP3    H225147   2.960   4.349   4.993
 8395TIP3   OH225148   6.857   6.215   3.805
 8395TIP3    H125149   6.807   6.134   3.794
 8395TIP3    H225150   6.825   6.273   3.735
 8396TIP3   OH225151   5.765   5.541   3.464
 8396TIP3    H125152   5.855   5.559   3.439
 8396TIP3    H225153   5.772   5.501   3.551
 8397TIP3   OH225154   7.046   3.425   1.873
 8397TIP3    H125155   6.971   3.405   1.929
 8397TIP3    H225156   7.015   3.496   1.817
 8398TIP3   OH225157   3.591   2.493   4.451
 8398TIP3    H125158   3.496   2.507   4.449
 8398TIP3    H225159   3.602   2.403   4.481
 8399TIP3   OH225160   4.641   6.496   3.168
 8399TIP3    H125161   4.626   6.561   3.238
 8399TIP3    H225162   4.562   6.443   3.168
 8400TIP3   OH225163   2.496   5.116   4.884
 8400TIP3    H125164   2.414   5.159   4.908
 8400TIP3    H225165   2.480   5.023   4.901
 8401TIP3   OH225166   0.104   3.389   0.758
 8401TIP3    H125167   0.191   3.376   0.794
 8401TIP3    H225168   0.117   3.386   0.663
 8402TIP3   OH225169   6.496   6.573   3.605
 8402TIP3    H125170   6.543   6.600   3.526
 8402TIP3    H225171   6.408   6.607   3.593
 8403TIP3   OH225172   5.257   6.455   4.962
 8403TIP3    H125173   5.254   6.361   4.981
 8403TIP3    H225174   5.315   6.463   4.886
 8404TIP3   OH225175   3.786   5.049   5.793
 8404TIP3    H125176   3.705   5.069   5.839
 8404TIP3    H225177   3.806   4.959   5.817
 8405TIP3   OH225178   1.879   1.507   0.815
 8405TIP3    H125179   1.845   1.526   0.727
 8405TIP3    H225180   1.972   1.490   0.801
 8406TIP3   OH225181   2.160   1.862   3.316
 8406TIP3    H125182   2.206   1.857   3.233
 8406TIP3    H225183   2.164   1.773   3.351
 8407TIP3   OH225184   5.651   6.336   1.981
 8407TIP3    H125185   5.652   6.247   1.945
 8407TIP3    H225186   5.726   6.378   1.941
 8408TIP3   OH225187   4.507   0.100   2.553
 8408TIP3    H125188   4.459   0.110   2.635
 8408TIP3    H225189   4.599   0.090   2.580
 8409TIP3   OH225190   1.390   6.591   1.020
 8409TIP3    H125191   1.427   6.569   1.106
 8409TIP3    H225192   1.388   6.687   1.019
 8410TIP3   OH225193   4.454   2.700   4.593
 8410TIP3    H125194   4.464   2.654   4.510
 8410TIP3    H225195   4.479   2.790   4.573
 8411TIP3   OH225196   6.005   0.276   5.243
 8411TIP3    H125197   6.100   0.272   5.231
 8411TIP3    H225198   5.992   0.328   5.322
 8412TIP3   OH225199   2.207   3.628   5.647
 8412TIP3    H125200   2.285   3.573   5.639
 8412TIP3    H225201   2.135   3.572   5.616
 8413TIP3   OH225202   3.915   4.745   0.522
 8413TIP3    H125203   4.003   4.739   0.487
 8413TIP3    H225204   3.888   4.835   0.503
 8414TIP3   OH225205   1.443   2.727   3.520
 8414TIP3    H125206   1.517   2.703   3.575
 8414TIP3    H225207   1.465   2.692   3.434
 8415TIP3   OH225208   5.621   3.004   0.373
 8415TIP3    H125209   5.675   2.925   0.367
 8415TIP3    H225210   5.683   3.074   0.393
 8416TIP3   OH225211   5.283   2.911   4.414
 8416TIP3    H125212   5.344   2.863   4.471
 8416TIP3    H225213   5.282   3.000   4.448
 8417TIP3   OH225214   5.522   6.424   5.186
 8417TIP3    H125215   5.492   6.513   5.200
 8417TIP3    H225216   5.521   6.412   5.091
 8418TIP3   OH225217   0.208   6.628   5.081
 8418TIP3    H125218   0.129   6.648   5.031
 8418TIP3    H225219   0.219   6.534   5.074
 8419TIP3   OH225220   0.887   6.290   1.032
 8419TIP3    H125221   0.802   6.249   1.048
 8419TIP3    H225222   0.947   6.245   1.091
 8420TIP3   OH225223   0.588   6.219   0.127
 8420TIP3    H125224   0.595   6.169   0.209
 8420TIP3    H225225   0.506   6.268   0.136
 8421TIP3   OH225226   1.773   6.464   1.772
 8421TIP3    H125227   1.781   6.369   1.777
 8421TIP3    H225228   1.714   6.480   1.698
 8422TIP3   OH225229   2.245   0.196   1.889
 8422TIP3    H125230   2.250   0.140   1.812
 8422TIP3    H225231   2.318   0.167   1.944
 8423TIP3   OH225232   5.354   3.883   2.245
 8423TIP3    H125233   5.340   3.973   2.215
 8423TIP3    H225234   5.417   3.847   2.182
 8424TIP3   OH225235   1.718   5.628   3.613
 8424TIP3    H125236   1.779   5.701   3.607
 8424TIP3    H225237   1.653   5.645   3.545
 8425TIP3   OH225238   5.410   0.274   1.381
 8425TIP3    H125239   5.483   0.265   1.320
 8425TIP3    H225240   5.335   0.237   1.333
 8426TIP3   OH225241   5.218   1.615   3.624
 8426TIP3    H125242   5.124   1.629   3.639
 8426TIP3    H225243   5.261   1.681   3.678
 8427TIP3   OH225244   2.754   0.657   4.015
 8427TIP3    H125245   2.801   0.672   3.933
 8427TIP3    H225246   2.818   0.613   4.071
 8428TIP3   OH225247   4.930   3.218   3.529
 8428TIP3    H125248   4.938   3.308   3.498
 8428TIP3    H225249   5.014   3.200   3.572
 8429TIP3   OH225250   4.096   6.509   3.723
 8429TIP3    H125251   4.053   6.544   3.644
 8429TIP3    H225252   4.065   6.419   3.729
 8430TIP3   OH225253   2.984   5.860   0.433
 8430TIP3    H125254   2.982   5.937   0.489
 8430TIP3    H225255   3.074   5.856   0.401
 8431TIP3   OH225256   2.467   4.479   0.288
 8431TIP3    H125257   2.555   4.477   0.250
 8431TIP3    H225258   2.409   4.484   0.212
 8432TIP3   OH225259   5.084   0.008   1.878
 8432TIP3    H125260   5.046   0.052   1.953
 8432TIP3    H225261   5.163  -0.034   1.912
 8433TIP3   OH225262   1.847   5.774   1.429
 8433TIP3    H125263   1.844   5.851   1.373
 8433TIP3    H225264   1.765   5.777   1.479
 8434TIP3   OH225265   1.295   5.305   3.236
 8434TIP3    H125266   1.296   5.288   3.330
 8434TIP3    H225267   1.353   5.381   3.225
 8435TIP3   OH225268   0.337   4.512   2.516
 8435TIP3    H125269   0.431   4.529   2.518
 8435TIP3    H225270   0.304   4.569   2.447
 8436TIP3   OH225271   4.802   3.900   5.199
 8436TIP3    H125272   4.776   3.824   5.147
 8436TIP3    H225273   4.827   3.864   5.284
 8437TIP3   OH225274   3.274   0.958   4.209
 8437TIP3    H125275   3.265   1.028   4.274
 8437TIP3    H225276   3.188   0.953   4.168
 8438TIP3   OH225277   0.454   3.525   0.118
 8438TIP3    H125278   0.530   3.566   0.158
 8438TIP3    H225279   0.389   3.521   0.187
 8439TIP3   OH225280   3.457   3.726   1.291
 8439TIP3    H125281   3.531   3.778   1.261
 8439TIP3    H225282   3.453   3.652   1.230
 8440TIP3   OH225283   4.631   3.787   0.188
 8440TIP3    H125284   4.664   3.867   0.148
 8440TIP3    H225285   4.639   3.721   0.119
 8441TIP3   OH225286   3.366   6.624   5.512
 8441TIP3    H125287   3.395   6.708   5.478
 8441TIP3    H225288   3.300   6.647   5.578
 8442TIP3   OH225289   0.491   5.482   5.773
 8442TIP3    H125290   0.412   5.456   5.725
 8442TIP3    H225291   0.507   5.572   5.746
 8443TIP3   OH225292   1.078   5.432   2.386
 8443TIP3    H125293   1.067   5.526   2.401
 8443TIP3    H225294   1.153   5.408   2.440
 8444TIP3   OH225295   5.750   2.935   1.875
 8444TIP3    H125296   5.826   2.974   1.917
 8444TIP3    H225297   5.723   2.999   1.809
 8445TIP3   OH225298   1.470   4.020   3.208
 8445TIP3    H125299   1.427   4.059   3.285
 8445TIP3    H225300   1.430   4.065   3.134
 8446TIP3   OH225301   1.922   6.460   1.058
 8446TIP3    H125302   1.958   6.372   1.043
 8446TIP3    H225303   1.943   6.479   1.149
 8447TIP3   OH225304   1.009   2.060   3.394
 8447TIP3    H125305   0.973   2.060   3.483
 8447TIP3    H225306   0.955   1.996   3.347
 8448TIP3   OH225307   0.299   4.489   1.074
 8448TIP3    H125308   0.280   4.444   1.156
 8448TIP3    H225309   0.338   4.421   1.018
 8449TIP3   OH225310   2.293   3.546   0.449
 8449TIP3    H125311   2.295   3.479   0.381
 8449TIP3    H225312   2.320   3.626   0.404
 8450TIP3   OH225313   3.870   1.335   0.255
 8450TIP3    H125314   3.835   1.375   0.335
 8450TIP3    H225315   3.874   1.407   0.192
 8451TIP3   OH225316   2.559   0.099   0.099
 8451TIP3    H125317   2.570   0.103   0.004
 8451TIP3    H225318   2.465   0.102   0.113
 8452TIP3   OH225319   3.382   1.434   0.312
 8452TIP3    H125320   3.403   1.527   0.303
 8452TIP3    H225321   3.351   1.426   0.402
 8453TIP3   OH225322   6.543   1.872   2.678
 8453TIP3    H125323   6.488   1.934   2.630
 8453TIP3    H225324   6.492   1.790   2.677
 8454TIP3   OH225325   1.046   4.921   1.694
 8454TIP3    H125326   1.130   4.965   1.679
 8454TIP3    H225327   0.983   4.992   1.708
 8455TIP3   OH225328   6.658   4.075   4.763
 8455TIP3    H125329   6.589   4.139   4.741
 8455TIP3    H225330   6.621   4.023   4.834
 8456TIP3   OH225331   3.385   4.909   3.097
 8456TIP3    H125332   3.467   4.862   3.083
 8456TIP3    H225333   3.410   4.986   3.148
 8457TIP3   OH225334   6.775   2.518   4.480
 8457TIP3    H125335   6.751   2.557   4.564
 8457TIP3    H225336   6.865   2.547   4.465
 8458TIP3   OH225337   2.986   2.710   2.246
 8458TIP3    H125338   3.034   2.724   2.165
 8458TIP3    H225339   2.899   2.680   2.219
 8459TIP3   OH225340   4.980   6.110   1.233
 8459TIP3    H125341   5.010   6.180   1.292
 8459TIP3    H225342   5.013   6.136   1.147
 8460TIP3   OH225343   3.808   0.861   1.447
 8460TIP3    H125344   3.893   0.828   1.476
 8460TIP3    H225345   3.823   0.890   1.357
 8461TIP3   OH225346   6.678   5.701   3.959
 8461TIP3    H125347   6.753   5.683   4.015
 8461TIP3    H225348   6.628   5.768   4.006
 8462TIP3   OH225349   5.602   6.806   0.370
 8462TIP3    H125350   5.600   6.865   0.445
 8462TIP3    H225351   5.539   6.737   0.393
 8463TIP3   OH225352   5.704   5.501   5.395
 8463TIP3    H125353   5.694   5.452   5.477
 8463TIP3    H225354   5.620   5.492   5.351
 8464TIP3   OH225355   4.925   2.255   5.662
 8464TIP3    H125356   4.963   2.242   5.748
 8464TIP3    H225357   4.865   2.181   5.651
 8465TIP3   OH225358   4.918   5.543   3.813
 8465TIP3    H125359   4.983   5.567   3.879
 8465TIP3    H225360   4.969   5.497   3.745
 8466TIP3   OH225361   7.093   4.523   0.687
 8466TIP3    H125362   7.055   4.441   0.657
 8466TIP3    H225363   7.180   4.499   0.720
 8467TIP3   OH225364   5.876   0.690   2.737
 8467TIP3    H125365   5.951   0.655   2.786
 8467TIP3    H225366   5.904   0.778   2.712
 8468TIP3   OH225367   1.194   5.659   2.632
 8468TIP3    H125368   1.282   5.655   2.669
 8468TIP3    H225369   1.203   5.710   2.552
 8469TIP3   OH225370   3.667   4.073   4.026
 8469TIP3    H125371   3.753   4.094   3.988
 8469TIP3    H225372   3.621   4.025   3.957
 8470TIP3   OH225373   3.402   4.641   4.739
 8470TIP3    H125374   3.313   4.677   4.732
 8470TIP3    H225375   3.400   4.588   4.818
 8471TIP3   OH225376   4.315   5.804   4.971
 8471TIP3    H125377   4.311   5.845   5.057
 8471TIP3    H225378   4.258   5.858   4.916
 8472TIP3   OH225379   2.084   5.901   3.977
 8472TIP3    H125380   2.161   5.869   4.024
 8472TIP3    H225381   2.029   5.941   4.044
 8473TIP3   OH225382   0.601   4.563   1.612
 8473TIP3    H125383   0.677   4.592   1.661
 8473TIP3    H225384   0.634   4.548   1.523
 8474TIP3   OH225385   4.642   3.054   2.916
 8474TIP3    H125386   4.574   2.988   2.928
 8474TIP3    H225387   4.688   3.026   2.837
 8475TIP3   OH225388   2.088   5.394   0.701
 8475TIP3    H125389   2.174   5.357   0.721
 8475TIP3    H225390   2.065   5.445   0.778
 8476TIP3   OH225391   3.338   5.088   3.714
 8476TIP3    H125392   3.358   5.092   3.807
 8476TIP3    H225393   3.246   5.065   3.710
 8477TIP3   OH225394   5.511   5.408   3.549
 8477TIP3    H125395   5.573   5.432   3.618
 8477TIP3    H225396   5.558   5.425   3.467
 8478TIP3   OH225397   3.085   3.143   2.741
 8478TIP3    H125398   3.087   3.161   2.835
 8478TIP3    H225399   3.048   3.223   2.702
 8479TIP3   OH225400   6.017   1.803   0.319
 8479TIP3    H125401   6.048   1.837   0.403
 8479TIP3    H225402   6.016   1.880   0.262
 8480TIP3   OH225403   4.815   3.846   4.805
 8480TIP3    H125404   4.742   3.809   4.756
 8480TIP3    H225405   4.852   3.772   4.853
 8481TIP3   OH225406   5.081   2.332   4.208
 8481TIP3    H125407   5.149   2.306   4.146
 8481TIP3    H225408   5.076   2.427   4.199
 8482TIP3   OH225409   5.310   0.952   4.575
 8482TIP3    H125410   5.280   0.863   4.560
 8482TIP3    H225411   5.342   0.952   4.665
 8483TIP3   OH225412   1.070   2.251   2.566
 8483TIP3    H125413   1.098   2.264   2.657
 8483TIP3    H225414   1.109   2.325   2.519
 8484TIP3   OH225415   4.188   2.195   3.423
 8484TIP3    H125416   4.261   2.243   3.461
 8484TIP3    H225417   4.215   2.179   3.332
 8485TIP3   OH225418   4.853   2.586   0.738
 8485TIP3    H125419   4.917   2.515   0.733
 8485TIP3    H225420   4.857   2.628   0.652
 8486TIP3   OH225421   6.145   0.583   3.704
 8486TIP3    H125422   6.219   0.625   3.661
 8486TIP3    H225423   6.082   0.567   3.634
 8487TIP3   OH225424   2.249   5.384   5.670
 8487TIP3    H125425   2.165   5.348   5.697
 8487TIP3    H225426   2.263   5.349   5.582
 8488TIP3   OH225427   3.955   6.056   5.536
 8488TIP3    H125428   3.941   6.070   5.443
 8488TIP3    H225429   3.984   5.965   5.542
 8489TIP3   OH225430   5.508   6.743   2.053
 8489TIP3    H125431   5.427   6.693   2.044
 8489TIP3    H225432   5.571   6.681   2.090
 8490TIP3   OH225433   1.733   6.500   2.263
 8490TIP3    H125434   1.818   6.490   2.220
 8490TIP3    H225435   1.731   6.429   2.327
 8491TIP3   OH225436   6.644   2.738   3.640
 8491TIP3    H125437   6.703   2.770   3.571
 8491TIP3    H225438   6.693   2.669   3.684
 8492TIP3   OH225439   6.111   1.963   2.378
 8492TIP3    H125440   6.199   1.950   2.341
 8492TIP3    H225441   6.052   1.928   2.311
 8493TIP3   OH225442   4.883   2.034   3.383
 8493TIP3    H125443   4.800   2.027   3.429
 8493TIP3    H225444   4.944   2.070   3.448
 8494TIP3   OH225445   4.248   0.206   3.344
 8494TIP3    H125446   4.271   0.207   3.252
 8494TIP3    H225447   4.292   0.282   3.382
 8495TIP3   OH225448   4.136   2.694   1.436
 8495TIP3    H125449   4.152   2.788   1.437
 8495TIP3    H225450   4.043   2.685   1.416
 8496TIP3   OH225451   0.126   3.230   4.517
 8496TIP3    H125452   0.140   3.187   4.601
 8496TIP3    H225453   0.033   3.217   4.498
 8497TIP3   OH225454   0.126   2.091   0.821
 8497TIP3    H125455   0.060   2.066   0.757
 8497TIP3    H225456   0.162   2.008   0.852
 8498TIP3   OH225457   4.019   3.762   3.757
 8498TIP3    H125458   3.996   3.758   3.850
 8498TIP3    H225459   4.028   3.855   3.738
 8499TIP3   OH225460   4.322   0.092   2.743
 8499TIP3    H125461   4.286   0.043   2.816
 8499TIP3    H225462   4.341   0.179   2.779
 8500TIP3   OH225463   1.999   1.866   4.640
 8500TIP3    H125464   1.938   1.793   4.647
 8500TIP3    H225465   1.989   1.897   4.550
 8501TIP3   OH225466   2.410   6.232   2.798
 8501TIP3    H125467   2.388   6.289   2.872
 8501TIP3    H225468   2.335   6.174   2.790
 8502TIP3   OH225469   6.820   0.865   2.624
 8502TIP3    H125470   6.741   0.845   2.574
 8502TIP3    H225471   6.841   0.955   2.601
 8503TIP3   OH225472   6.744   1.116   0.203
 8503TIP3    H125473   6.712   1.206   0.201
 8503TIP3    H225474   6.791   1.110   0.286
 8504TIP3   OH225475   5.923   5.960   1.191
 8504TIP3    H125476   5.994   5.927   1.247
 8504TIP3    H225477   5.844   5.953   1.246
 8505TIP3   OH225478   7.007   4.400   1.775
 8505TIP3    H125479   7.051   4.384   1.859
 8505TIP3    H225480   7.063   4.462   1.730
 8506TIP3   OH225481   5.618   3.872   0.669
 8506TIP3    H125482   5.676   3.945   0.692
 8506TIP3    H225483   5.560   3.907   0.602
 8507TIP3   OH225484   0.769   6.693   0.667
 8507TIP3    H125485   0.721   6.700   0.749
 8507TIP3    H225486   0.780   6.599   0.654
 8508TIP3   OH225487   7.215   4.209   2.523
 8508TIP3    H125488   7.244   4.133   2.573
 8508TIP3    H225489   7.144   4.247   2.575
 8509TIP3   OH225490   2.855   6.332   1.762
 8509TIP3    H125491   2.921   6.276   1.802
 8509TIP3    H225492   2.906   6.402   1.720
 8510TIP3   OH225493   1.075   5.148   2.296
 8510TIP3    H125494   1.090   5.237   2.326
 8510TIP3    H225495   0.995   5.154   2.242
 8511TIP3   OH225496   4.002   6.063   2.538
 8511TIP3    H125497   3.970   6.099   2.621
 8511TIP3    H225498   3.939   5.994   2.517
 8512TIP3   OH225499   4.994   5.396   0.779
 8512TIP3    H125500   4.981   5.442   0.696
 8512TIP3    H225501   4.921   5.423   0.834
 8513TIP3   OH225502   2.716   6.113   4.422
 8513TIP3    H125503   2.694   6.079   4.335
 8513TIP3    H225504   2.802   6.076   4.441
 8514TIP3   OH225505   4.136   5.001   4.581
 8514TIP3    H125506   4.053   4.965   4.614
 8514TIP3    H225507   4.131   5.094   4.602
 8515TIP3   OH225508   3.151   0.935   5.837
 8515TIP3    H125509   3.153   0.869   5.907
 8515TIP3    H225510   3.158   1.019   5.883
 8516TIP3   OH225511   4.199   3.194   0.476
 8516TIP3    H125512   4.167   3.187   0.566
 8516TIP3    H225513   4.183   3.285   0.451
 8517TIP3   OH225514   3.237   5.081   4.796
 8517TIP3    H125515   3.168   5.142   4.819
 8517TIP3    H225516   3.245   5.024   4.873
 8518TIP3   OH225517   2.127   5.547   2.602
 8518TIP3    H125518   2.171   5.471   2.565
 8518TIP3    H225519   2.045   5.514   2.636
 8519TIP3   OH225520   5.490   5.034   2.312
 8519TIP3    H125521   5.537   5.113   2.284
 8519TIP3    H225522   5.436   5.011   2.236
 8520TIP3   OH225523   1.598   2.951   1.702
 8520TIP3    H125524   1.506   2.963   1.727
 8520TIP3    H225525   1.611   3.014   1.631
 8521TIP3   OH225526   4.461   3.881   5.697
 8521TIP3    H125527   4.543   3.917   5.732
 8521TIP3    H225528   4.484   3.791   5.672
 8522TIP3   OH225529   6.042   3.285   4.319
 8522TIP3    H125530   6.067   3.334   4.397
 8522TIP3    H225531   6.025   3.196   4.351
 8523TIP3   OH225532   0.383   4.018   4.842
 8523TIP3    H125533   0.467   3.975   4.828
 8523TIP3    H225534   0.326   3.949   4.875
 8524TIP3   OH225535   3.897   3.673   4.326
 8524TIP3    H125536   3.895   3.710   4.238
 8524TIP3    H225537   3.907   3.749   4.384
 8525TIP3   OH225538   3.262   3.049   4.876
 8525TIP3    H125539   3.174   3.015   4.891
 8525TIP3    H225540   3.271   3.121   4.938
 8526TIP3   OH225541   5.929   4.739   4.647
 8526TIP3    H125542   5.909   4.831   4.660
 8526TIP3    H225543   5.924   4.726   4.552
 8527TIP3   OH225544   0.656   1.092   5.538
 8527TIP3    H125545   0.732   1.034   5.533
 8527TIP3    H225546   0.618   1.090   5.450
 8528TIP3   OH225547   2.857   1.788   1.555
 8528TIP3    H125548   2.819   1.717   1.503
 8528TIP3    H225549   2.820   1.775   1.643
 8529TIP3   OH225550   2.550   0.591   1.361
 8529TIP3    H125551   2.533   0.644   1.439
 8529TIP3    H225552   2.473   0.604   1.306
 8530TIP3   OH225553   5.304   5.698   3.174
 8530TIP3    H125554   5.383   5.693   3.227
 8530TIP3    H225555   5.257   5.775   3.208
 8531TIP3   OH225556   4.362   5.681   0.326
 8531TIP3    H125557   4.355   5.771   0.294
 8531TIP3    H225558   4.283   5.638   0.293
 8532TIP3   OH225559   4.338   5.101   3.721
 8532TIP3    H125560   4.432   5.085   3.728
 8532TIP3    H225561   4.306   5.100   3.811
 8533TIP3   OH225562   2.861   0.984   2.410
 8533TIP3    H125563   2.898   0.919   2.350
 8533TIP3    H225564   2.818   1.048   2.353
 8534TIP3   OH225565   0.281   5.468   3.819
 8534TIP3    H125566   0.200   5.504   3.783
 8534TIP3    H225567   0.282   5.377   3.789
 8535TIP3   OH225568   5.924   4.205   3.437
 8535TIP3    H125569   5.858   4.259   3.480
 8535TIP3    H225570   6.007   4.247   3.458
 8536TIP3   OH225571   3.627   3.625   4.440
 8536TIP3    H125572   3.703   3.606   4.384
 8536TIP3    H225573   3.554   3.634   4.380
 8537TIP3   OH225574   0.183   4.250   4.327
 8537TIP3    H125575   0.208   4.329   4.375
 8537TIP3    H225576   0.236   4.180   4.366
 8538TIP3   OH225577   0.462   6.285   4.716
 8538TIP3    H125578   0.475   6.198   4.679
 8538TIP3    H225579   0.439   6.269   4.808
 8539TIP3   OH225580   6.912   3.785   4.378
 8539TIP3    H125581   6.839   3.756   4.433
 8539TIP3    H225582   6.976   3.819   4.440
 8540TIP3   OH225583   5.247   3.654   1.157
 8540TIP3    H125584   5.217   3.732   1.204
 8540TIP3    H225585   5.298   3.689   1.084
 8541TIP3   OH225586   0.506   0.338   0.247
 8541TIP3    H125587   0.460   0.340   0.163
 8541TIP3    H225588   0.449   0.286   0.304
 8542TIP3   OH225589   4.584   2.122   1.060
 8542TIP3    H125590   4.669   2.134   1.018
 8542TIP3    H225591   4.570   2.203   1.110
 8543TIP3   OH225592   3.054   1.660   0.848
 8543TIP3    H125593   3.116   1.607   0.799
 8543TIP3    H225594   3.051   1.620   0.935
 8544TIP3   OH225595   0.633   6.416   1.161
 8544TIP3    H125596   0.704   6.479   1.144
 8544TIP3    H225597   0.672   6.352   1.221
 8545TIP3   OH225598   5.099   4.166   0.411
 8545TIP3    H125599   5.011   4.131   0.399
 8545TIP3    H225600   5.098   4.250   0.364
 8546TIP3   OH225601   4.340   4.293   1.315
 8546TIP3    H125602   4.423   4.320   1.274
 8546TIP3    H225603   4.306   4.373   1.353
 8547TIP3   OH225604   4.931   3.588   1.206
 8547TIP3    H125605   4.870   3.654   1.175
 8547TIP3    H225606   5.000   3.585   1.140
 8548TIP3   OH225607   7.095   1.027   2.681
 8548TIP3    H125608   7.137   1.112   2.677
 8548TIP3    H225609   7.004   1.043   2.655
 8549TIP3   OH225610   0.416   3.832   3.669
 8549TIP3    H125611   0.504   3.803   3.694
 8549TIP3    H225612   0.397   3.903   3.731
 8550TIP3   OH225613   1.100   2.786   3.413
 8550TIP3    H125614   1.089   2.868   3.460
 8550TIP3    H225615   1.169   2.740   3.460
 8551TIP3   OH225616   1.832   4.697   3.438
 8551TIP3    H125617   1.925   4.713   3.453
 8551TIP3    H225618   1.787   4.766   3.488
 8552TIP3   OH225619   3.760   0.239   2.908
 8552TIP3    H125620   3.841   0.277   2.875
 8552TIP3    H225621   3.741   0.290   2.987
 8553TIP3   OH225622   4.136   3.733   4.655
 8553TIP3    H125623   4.220   3.749   4.698
 8553TIP3    H225624   4.097   3.820   4.645
 8554TIP3   OH225625   2.436   3.769   0.341
 8554TIP3    H125626   2.448   3.819   0.261
 8554TIP3    H225627   2.445   3.833   0.412
 8555TIP3   OH225628   6.639   4.353   4.185
 8555TIP3    H125629   6.654   4.281   4.122
 8555TIP3    H225630   6.581   4.315   4.251
 8556TIP3   OH225631   2.008   1.928   5.646
 8556TIP3    H125632   1.968   1.842   5.656
 8556TIP3    H225633   2.027   1.956   5.735
 8557TIP3   OH225634   3.596   6.190   5.522
 8557TIP3    H125635   3.667   6.254   5.516
 8557TIP3    H225636   3.600   6.142   5.440
 8558TIP3   OH225637   5.467   0.375   3.141
 8558TIP3    H125638   5.555   0.399   3.170
 8558TIP3    H225639   5.439   0.308   3.204
 8559TIP3   OH225640   2.788   5.144   1.198
 8559TIP3    H125641   2.841   5.219   1.224
 8559TIP3    H225642   2.699   5.168   1.223
 8560TIP3   OH225643   0.355   2.637   4.053
 8560TIP3    H125644   0.361   2.732   4.045
 8560TIP3    H225645   0.321   2.622   4.142
 8561TIP3   OH225646   2.694   6.373   1.356
 8561TIP3    H125647   2.692   6.467   1.336
 8561TIP3    H225648   2.786   6.349   1.347
 8562TIP3   OH225649   6.604   6.581   0.261
 8562TIP3    H125650   6.619   6.639   0.336
 8562TIP3    H225651   6.691   6.562   0.227
 8563TIP3   OH225652   6.692   2.574   4.961
 8563TIP3    H125653   6.646   2.651   4.994
 8563TIP3    H225654   6.707   2.520   5.039
 8564TIP3   OH225655   4.699   0.665   1.274
 8564TIP3    H125656   4.761   0.730   1.243
 8564TIP3    H225657   4.742   0.581   1.259
 8565TIP3   OH225658   1.147   4.971   4.640
 8565TIP3    H125659   1.097   4.894   4.616
 8565TIP3    H225660   1.235   4.938   4.658
 8566TIP3   OH225661   5.150   0.343   3.988
 8566TIP3    H125662   5.204   0.270   3.958
 8566TIP3    H225663   5.164   0.411   3.922
 8567TIP3   OH225664   1.577   0.331   0.008
 8567TIP3    H125665   1.539   0.407   0.053
 8567TIP3    H225666   1.671   0.347   0.010
 8568TIP3   OH225667   2.887   3.907   4.908
 8568TIP3    H125668   2.854   3.975   4.967
 8568TIP3    H225669   2.978   3.895   4.933
 8569TIP3   OH225670   2.362   5.726   0.429
 8569TIP3    H125671   2.332   5.729   0.338
 8569TIP3    H225672   2.289   5.687   0.477
 8570TIP3   OH225673   6.987   6.063   0.635
 8570TIP3    H125674   7.000   6.128   0.704
 8570TIP3    H225675   6.916   6.008   0.667
 8571TIP3   OH225676   6.654   3.746   0.480
 8571TIP3    H125677   6.623   3.816   0.422
 8571TIP3    H225678   6.575   3.710   0.519
 8572TIP3   OH225679   1.025   3.722   4.941
 8572TIP3    H125680   1.089   3.743   5.010
 8572TIP3    H225681   0.966   3.797   4.940
 8573TIP3   OH225682   5.811   3.598   4.002
 8573TIP3    H125683   5.801   3.597   3.907
 8573TIP3    H225684   5.787   3.687   4.028
 8574TIP3   OH225685   6.112   2.287   5.304
 8574TIP3    H125686   6.127   2.339   5.225
 8574TIP3    H225687   6.132   2.346   5.376
 8575TIP3   OH225688   1.785   0.703   2.508
 8575TIP3    H125689   1.755   0.647   2.437
 8575TIP3    H225690   1.877   0.722   2.486
 8576TIP3   OH225691   2.625   1.062   0.678
 8576TIP3    H125692   2.628   1.036   0.586
 8576TIP3    H225693   2.532   1.077   0.695
 8577TIP3   OH225694   4.088   5.267   1.871
 8577TIP3    H125695   4.125   5.340   1.921
 8577TIP3    H225696   4.000   5.255   1.907
 8578TIP3   OH225697   3.576   4.887   4.440
 8578TIP3    H125698   3.532   4.951   4.384
 8578TIP3    H225699   3.525   4.807   4.429
 8579TIP3   OH225700   6.416   4.677   2.752
 8579TIP3    H125701   6.494   4.690   2.807
 8579TIP3    H225702   6.397   4.584   2.760
 8580TIP3   OH225703   5.894  -0.039   4.155
 8580TIP3    H125704   5.820  -0.037   4.094
 8580TIP3    H225705   5.962   0.013   4.112
 8581TIP3   OH225706   1.653   6.025   2.327
 8581TIP3    H125707   1.689   5.947   2.369
 8581TIP3    H225708   1.697   6.098   2.370
 8582TIP3   OH225709   2.856   3.644   2.443
 8582TIP3    H125710   2.930   3.628   2.501
 8582TIP3    H225711   2.891   3.635   2.355
 8583TIP3   OH225712   0.248   6.366   5.560
 8583TIP3    H125713   0.188   6.396   5.628
 8583TIP3    H225714   0.335   6.384   5.596
 8584TIP3   OH225715   4.810   5.967   2.387
 8584TIP3    H125716   4.807   5.898   2.454
 8584TIP3    H225717   4.852   5.925   2.312
 8585TIP3   OH225718   6.158   1.482   3.121
 8585TIP3    H125719   6.185   1.548   3.185
 8585TIP3    H225720   6.162   1.527   3.037
 8586TIP3   OH225721   4.922   0.440   1.877
 8586TIP3    H125722   4.860   0.449   1.949
 8586TIP3    H225723   5.006   0.421   1.919
 8587TIP3   OH225724   3.540   5.048   3.529
 8587TIP3    H125725   3.465   5.068   3.586
 8587TIP3    H225726   3.503   5.049   3.441
 8588TIP3   OH225727   6.340   6.628   4.415
 8588TIP3    H125728   6.337   6.687   4.491
 8588TIP3    H225729   6.276   6.560   4.436
 8589TIP3   OH225730   0.016   2.488   2.418
 8589TIP3    H125731  -0.054   2.539   2.460
 8589TIP3    H225732   0.097   2.533   2.442
 8590TIP3   OH225733   1.907   5.841   3.432
 8590TIP3    H125734   1.967   5.844   3.507
 8590TIP3    H225735   1.938   5.767   3.379
 8591TIP3   OH225736   3.808   0.076   0.415
 8591TIP3    H125737   3.761  -0.003   0.444
 8591TIP3    H225738   3.900   0.052   0.421
 8592TIP3   OH225739   3.588   1.368   4.599
 8592TIP3    H125740   3.568   1.395   4.510
 8592TIP3    H225741   3.683   1.378   4.606
 8593TIP3   OH225742   4.578   4.949   5.915
 8593TIP3    H125743   4.598   4.875   5.857
 8593TIP3    H225744   4.521   5.006   5.862
 8594TIP3   OH225745   2.105   4.457   2.328
 8594TIP3    H125746   2.184   4.502   2.296
 8594TIP3    H225747   2.062   4.427   2.248
 8595TIP3   OH225748   4.540   4.227   2.864
 8595TIP3    H125749   4.635   4.233   2.854
 8595TIP3    H225750   4.505   4.281   2.793
 8596TIP3   OH225751   6.707   2.110   3.924
 8596TIP3    H125752   6.668   2.029   3.955
 8596TIP3    H225753   6.801   2.100   3.942
 8597TIP3   OH225754   1.307   0.518   3.839
 8597TIP3    H125755   1.265   0.583   3.895
 8597TIP3    H225756   1.347   0.569   3.769
 8598TIP3   OH225757   6.209   3.736   4.160
 8598TIP3    H125758   6.140   3.798   4.184
 8598TIP3    H225759   6.183   3.703   4.074
 8599TIP3   OH225760   3.699   2.729   2.378
 8599TIP3    H125761   3.685   2.654   2.435
 8599TIP3    H225762   3.612   2.770   2.371
 8600TIP3   OH225763   2.002   4.968   1.397
 8600TIP3    H125764   2.017   5.047   1.449
 8600TIP3    H225765   2.090   4.939   1.372
 8601TIP3   OH225766   5.250   3.678   1.655
 8601TIP3    H125767   5.181   3.743   1.642
 8601TIP3    H225768   5.205   3.601   1.689
 8602TIP3   OH225769   1.580   3.227   5.102
 8602TIP3    H125770   1.512   3.258   5.043
 8602TIP3    H225771   1.568   3.278   5.182
 8603TIP3   OH225772   3.680   0.209   3.783
 8603TIP3    H125773   3.629   0.227   3.862
 8603TIP3    H225774   3.675   0.291   3.732
 8604TIP3   OH225775   4.299   2.807   2.272
 8604TIP3    H125776   4.256   2.882   2.313
 8604TIP3    H225777   4.232   2.739   2.271
 8605TIP3   OH225778   2.468   1.704   3.381
 8605TIP3    H125779   2.404   1.644   3.421
 8605TIP3    H225780   2.553   1.666   3.402
 8606TIP3   OH225781   2.241   4.619   4.693
 8606TIP3    H125782   2.214   4.528   4.709
 8606TIP3    H225783   2.207   4.639   4.605
 8607TIP3   OH225784   1.617   6.189   0.429
 8607TIP3    H125785   1.551   6.218   0.493
 8607TIP3    H225786   1.611   6.094   0.430
 8608TIP3   OH225787   1.084   6.536   1.235
 8608TIP3    H125788   1.115   6.447   1.220
 8608TIP3    H225789   0.988   6.528   1.231
 8609TIP3   OH225790   5.276   0.183   5.141
 8609TIP3    H125791   5.285   0.110   5.202
 8609TIP3    H225792   5.271   0.260   5.197
 8610TIP3   OH225793   3.616   0.962   0.501
 8610TIP3    H125794   3.672   1.039   0.501
 8610TIP3    H225795   3.536   0.990   0.546
 8611TIP3   OH225796   5.660   2.524   1.717
 8611TIP3    H125797   5.616   2.604   1.747
 8611TIP3    H225798   5.753   2.543   1.724
 8612TIP3   OH225799   6.369   4.793   0.236
 8612TIP3    H125800   6.332   4.708   0.259
 8612TIP3    H225801   6.306   4.857   0.269
 8613TIP3   OH225802   2.993   2.015   1.456
 8613TIP3    H125803   2.928   1.945   1.447
 8613TIP3    H225804   3.077   1.970   1.456
 8614TIP3   OH225805   4.837   0.364   3.965
 8614TIP3    H125806   4.788   0.445   3.949
 8614TIP3    H225807   4.926   0.384   3.937
 8615TIP3   OH225808   2.024   0.117   3.272
 8615TIP3    H125809   1.946   0.162   3.303
 8615TIP3    H225810   2.091   0.138   3.337
 8616TIP3   OH225811   4.369   1.178   2.201
 8616TIP3    H125812   4.283   1.216   2.216
 8616TIP3    H225813   4.383   1.119   2.275
 8617TIP3   OH225814   0.227   0.413   2.896
 8617TIP3    H125815   0.257   0.478   2.833
 8617TIP3    H225816   0.301   0.353   2.906
 8618TIP3   OH225817   0.980   1.364   2.407
 8618TIP3    H125818   0.932   1.428   2.355
 8618TIP3    H225819   0.928   1.284   2.403
 8619TIP3   OH225820   5.216   1.309   2.790
 8619TIP3    H125821   5.303   1.298   2.754
 8619TIP3    H225822   5.229   1.359   2.871
 8620TIP3   OH225823   5.050   0.592   0.245
 8620TIP3    H125824   5.082   0.517   0.295
 8620TIP3    H225825   4.980   0.556   0.189
 8621TIP3   OH225826   5.215   0.035   5.565
 8621TIP3    H125827   5.214  -0.024   5.640
 8621TIP3    H225828   5.144   0.097   5.582
 8622TIP3   OH225829   3.062   6.151   2.203
 8622TIP3    H125830   3.081   6.149   2.297
 8622TIP3    H225831   3.142   6.119   2.161
 8623TIP3   OH225832   5.673   6.129   4.051
 8623TIP3    H125833   5.612   6.076   4.000
 8623TIP3    H225834   5.639   6.125   4.140
 8624TIP3   OH225835   6.238   1.879   1.377
 8624TIP3    H125836   6.206   1.792   1.400
 8624TIP3    H225837   6.174   1.939   1.416
 8625TIP3   OH225838   7.064   3.481   1.528
 8625TIP3    H125839   7.107   3.396   1.518
 8625TIP3    H225840   7.117   3.526   1.594
 8626TIP3   OH225841   5.224   2.021   5.276
 8626TIP3    H125842   5.159   2.054   5.339
 8626TIP3    H225843   5.249   1.936   5.310
 8627TIP3   OH225844   2.363   4.511   5.635
 8627TIP3    H125845   2.345   4.523   5.728
 8627TIP3    H225846   2.277   4.517   5.593
 8628TIP3   OH225847   7.009   5.986   4.021
 8628TIP3    H125848   6.924   6.022   4.043
 8628TIP3    H225849   7.072   6.051   4.053
 8629TIP3   OH225850   0.529   4.091   1.867
 8629TIP3    H125851   0.464   4.148   1.827
 8629TIP3    H225852   0.569   4.045   1.794
 8630TIP3   OH225853   3.264   0.675   3.073
 8630TIP3    H125854   3.324   0.684   2.999
 8630TIP3    H225855   3.180   0.651   3.034
 8631TIP3   OH225856   1.305   4.645   4.516
 8631TIP3    H125857   1.209   4.654   4.510
 8631TIP3    H225858   1.336   4.669   4.429
 8632TIP3   OH225859   0.337   3.615   0.355
 8632TIP3    H125860   0.416   3.584   0.400
 8632TIP3    H225861   0.265   3.571   0.400
 8633TIP3   OH225862   0.140   4.284   1.585
 8633TIP3    H125863   0.069   4.347   1.596
 8633TIP3    H225864   0.133   4.255   1.494
 8634TIP3   OH225865   0.812   4.249   0.380
 8634TIP3    H125866   0.852   4.323   0.425
 8634TIP3    H225867   0.886   4.202   0.341
 8635TIP3   OH225868   6.783   1.442   3.770
 8635TIP3    H125869   6.742   1.376   3.714
 8635TIP3    H225870   6.856   1.475   3.718
 8636TIP3   OH225871   6.077   4.460   5.236
 8636TIP3    H125872   6.157   4.435   5.283
 8636TIP3    H225873   6.088   4.423   5.149
 8637TIP3   OH225874   6.961   4.587   0.254
 8637TIP3    H125875   6.875   4.590   0.211
 8637TIP3    H225876   6.982   4.494   0.258
 8638TIP3   OH225877   0.126   1.108   3.110
 8638TIP3    H125878   0.078   1.188   3.131
 8638TIP3    H225879   0.198   1.107   3.173
 8639TIP3   OH225880   5.007   0.147   2.143
 8639TIP3    H125881   4.937   0.187   2.194
 8639TIP3    H225882   5.066   0.110   2.208
 8640TIP3   OH225883   5.023   2.920   2.205
 8640TIP3    H125884   4.978   2.836   2.200
 8640TIP3    H225885   5.108   2.905   2.164
 8641TIP3   OH225886   3.846   2.640   2.633
 8641TIP3    H125887   3.868   2.711   2.693
 8641TIP3    H225888   3.924   2.585   2.631
 8642TIP3   OH225889   0.965   5.609   5.073
 8642TIP3    H125890   0.876   5.597   5.040
 8642TIP3    H225891   0.984   5.528   5.119
 8643TIP3   OH225892   4.182   3.454   0.754
 8643TIP3    H125893   4.197   3.475   0.662
 8643TIP3    H225894   4.265   3.470   0.797
 8644TIP3   OH225895   0.414   2.858   0.941
 8644TIP3    H125896   0.329   2.900   0.955
 8644TIP3    H225897   0.452   2.906   0.867
 8645TIP3   OH225898   0.831   3.902   4.662
 8645TIP3    H125899   0.892   3.921   4.734
 8645TIP3    H225900   0.806   3.988   4.629
 8646TIP3   OH225901   4.289   1.234   4.710
 8646TIP3    H125902   4.197   1.240   4.737
 8646TIP3    H225903   4.293   1.156   4.655
 8647TIP3   OH225904   4.341   4.747   3.357
 8647TIP3    H125905   4.419   4.758   3.301
 8647TIP3    H225906   4.376   4.736   3.445
 8648TIP3   OH225907   1.356   3.621   4.193
 8648TIP3    H125908   1.263   3.634   4.208
 8648TIP3    H225909   1.385   3.565   4.264
 8649TIP3   OH225910   4.193   2.254   4.822
 8649TIP3    H125911   4.220   2.324   4.762
 8649TIP3    H225912   4.264   2.250   4.886
 8650TIP3   OH225913   3.916   5.720   1.940
 8650TIP3    H125914   3.931   5.627   1.924
 8650TIP3    H225915   4.004   5.758   1.946
 8651TIP3   OH225916   6.075  -0.013   5.515
 8651TIP3    H125917   5.991   0.012   5.476
 8651TIP3    H225918   6.107   0.067   5.557
 8652TIP3   OH225919   6.603   1.219   3.304
 8652TIP3    H125920   6.631   1.136   3.342
 8652TIP3    H225921   6.516   1.234   3.340
 8653TIP3   OH225922   5.092   1.114   4.138
 8653TIP3    H125923   5.002   1.099   4.169
 8653TIP3    H225924   5.089   1.088   4.046
 8654TIP3   OH225925   3.961   1.280   4.008
 8654TIP3    H125926   3.942   1.215   4.075
 8654TIP3    H225927   4.033   1.332   4.044
 8655TIP3   OH225928   4.798   5.236   0.250
 8655TIP3    H125929   4.724   5.186   0.283
 8655TIP3    H225930   4.785   5.324   0.285
 8656TIP3   OH225931   2.027   3.512   2.777
 8656TIP3    H125932   1.939   3.476   2.787
 8656TIP3    H225933   2.019   3.576   2.706
 8657TIP3   OH225934   4.530   2.549   4.237
 8657TIP3    H125935   4.583   2.533   4.316
 8657TIP3    H225936   4.445   2.577   4.270
 8658TIP3   OH225937   2.075   1.566   3.760
 8658TIP3    H125938   2.095   1.502   3.829
 8658TIP3    H225939   2.070   1.649   3.806
 8659TIP3   OH225940   0.880   1.476   5.378
 8659TIP3    H125941   0.904   1.560   5.419
 8659TIP3    H225942   0.801   1.448   5.424
 8660TIP3   OH225943   1.239   6.013   4.672
 8660TIP3    H125944   1.298   5.961   4.728
 8660TIP3    H225945   1.191   6.068   4.734
 8661TIP3   OH225946   3.698   1.607   5.679
 8661TIP3    H125947   3.701   1.658   5.598
 8661TIP3    H225948   3.746   1.526   5.658
 8662TIP3   OH225949   1.619   6.476   5.360
 8662TIP3    H125950   1.669   6.483   5.279
 8662TIP3    H225951   1.676   6.429   5.420
 8663TIP3   OH225952   0.787   0.337   4.871
 8663TIP3    H125953   0.798   0.302   4.960
 8663TIP3    H225954   0.822   0.426   4.876
 8664TIP3   OH225955   3.055   3.475   5.139
 8664TIP3    H125956   3.112   3.512   5.072
 8664TIP3    H225957   3.098   3.394   5.166
 8665TIP3   OH225958   0.081   2.446   2.885
 8665TIP3    H125959   0.176   2.440   2.878
 8665TIP3    H225960   0.062   2.540   2.880
 8666TIP3   OH225961   6.866   2.979   5.671
 8666TIP3    H125962   6.935   3.039   5.700
 8666TIP3    H225963   6.830   2.943   5.752
 8667TIP3   OH225964   4.897   6.665   3.116
 8667TIP3    H125965   4.814   6.619   3.107
 8667TIP3    H225966   4.964   6.599   3.098
 8668TIP3   OH225967   7.164   2.167   3.613
 8668TIP3    H125968   7.253   2.196   3.631
 8668TIP3    H225969   7.172   2.073   3.596
 8669TIP3   OH225970   4.762   5.772   2.576
 8669TIP3    H125971   4.696   5.763   2.507
 8669TIP3    H225972   4.784   5.682   2.600
 8670TIP3   OH225973   0.687   0.335   1.937
 8670TIP3    H125974   0.725   0.260   1.891
 8670TIP3    H225975   0.719   0.412   1.889
 8671TIP3   OH225976   4.795   1.010   5.256
 8671TIP3    H125977   4.757   0.973   5.336
 8671TIP3    H225978   4.851   0.941   5.222
 8672TIP3   OH225979   0.865   4.127   5.724
 8672TIP3    H125980   0.818   4.145   5.642
 8672TIP3    H225981   0.859   4.209   5.773
 8673TIP3   OH225982   2.443   1.525   5.133
 8673TIP3    H125983   2.401   1.598   5.176
 8673TIP3    H225984   2.399   1.519   5.048
 8674TIP3   OH225985   3.248   5.253   1.257
 8674TIP3    H125986   3.209   5.296   1.181
 8674TIP3    H225987   3.337   5.231   1.229
 8675TIP3   OH225988   3.558   1.430   4.852
 8675TIP3    H125989   3.471   1.395   4.873
 8675TIP3    H225990   3.566   1.419   4.757
 8676TIP3   OH225991   1.212   1.787   0.091
 8676TIP3    H125992   1.186   1.874   0.119
 8676TIP3    H225993   1.171   1.727   0.154
 8677TIP3   OH225994   1.020   2.512   4.505
 8677TIP3    H125995   1.114   2.526   4.493
 8677TIP3    H225996   0.990   2.474   4.423
 8678TIP3   OH225997   1.963   3.183   1.622
 8678TIP3    H125998   2.026   3.197   1.693
 8678TIP3    H225999   1.926   3.097   1.640
 8679TIP3   OH226000   4.369   2.347   3.553
 8679TIP3    H126001   4.418   2.425   3.525
 8679TIP3    H226002   4.436   2.288   3.588
 8680TIP3   OH226003   7.029   0.134   0.169
 8680TIP3    H126004   7.009   0.040   0.171
 8680TIP3    H226005   7.053   0.155   0.259
 8681TIP3   OH226006   5.486   6.416   3.153
 8681TIP3    H126007   5.418   6.428   3.219
 8681TIP3    H226008   5.440   6.428   3.070
 8682TIP3   OH226009   0.538   2.205   0.134
 8682TIP3    H126010   0.596   2.280   0.139
 8682TIP3    H226011   0.491   2.215   0.052
 8683TIP3   OH226012   2.678   3.647   5.568
 8683TIP3    H126013   2.768   3.619   5.554
 8683TIP3    H226014   2.679   3.741   5.548
 8684TIP3   OH226015   1.782   2.469   1.694
 8684TIP3    H126016   1.754   2.460   1.785
 8684TIP3    H226017   1.731   2.544   1.661
 8685TIP3   OH226018   5.560   1.194   3.561
 8685TIP3    H126019   5.468   1.178   3.581
 8685TIP3    H226020   5.570   1.289   3.563
 8686TIP3   OH226021   7.030   3.216   4.096
 8686TIP3    H126022   7.101   3.182   4.042
 8686TIP3    H226023   7.029   3.310   4.077
 8687TIP3   OH226024   3.571   1.097   1.260
 8687TIP3    H126025   3.584   1.117   1.353
 8687TIP3    H226026   3.560   1.002   1.257
 8688TIP3   OH226027   6.215   5.394   4.439
 8688TIP3    H126028   6.132   5.384   4.392
 8688TIP3    H226029   6.197   5.461   4.505
 8689TIP3   OH226030   5.575   5.736   3.349
 8689TIP3    H126031   5.589   5.795   3.423
 8689TIP3    H226032   5.617   5.654   3.376
 8690TIP3   OH226033   6.061   6.449   1.853
 8690TIP3    H126034   6.156   6.457   1.865
 8690TIP3    H226035   6.040   6.362   1.885
 8691TIP3   OH226036   6.844   2.367   0.207
 8691TIP3    H126037   6.797   2.353   0.125
 8691TIP3    H226038   6.928   2.403   0.181
 8692TIP3   OH226039   3.609   3.621   0.757
 8692TIP3    H126040   3.660   3.580   0.827
 8692TIP3    H226041   3.531   3.566   0.749
 8693TIP3   OH226042   6.336   6.222   3.046
 8693TIP3    H126043   6.318   6.264   3.130
 8693TIP3    H226044   6.424   6.251   3.024
 8694TIP3   OH226045   0.844   5.789   3.806
 8694TIP3    H126046   0.844   5.752   3.894
 8694TIP3    H226047   0.864   5.716   3.748
 8695TIP3   OH226048   2.713   6.585   4.164
 8695TIP3    H126049   2.782   6.521   4.183
 8695TIP3    H226050   2.632   6.540   4.185
 8696TIP3   OH226051   2.032   6.301   2.426
 8696TIP3    H126052   2.036   6.314   2.521
 8696TIP3    H226053   2.073   6.379   2.389
 8697TIP3   OH226054   1.128   0.567   4.661
 8697TIP3    H126055   1.091   0.622   4.592
 8697TIP3    H226056   1.079   0.485   4.656
 8698TIP3   OH226057   4.388   3.238   5.367
 8698TIP3    H126058   4.352   3.195   5.445
 8698TIP3    H226059   4.311   3.255   5.312
 8699TIP3   OH226060   5.624   1.342   0.659
 8699TIP3    H126061   5.653   1.423   0.617
 8699TIP3    H226062   5.651   1.351   0.751
 8700TIP3   OH226063   5.653   0.244   1.253
 8700TIP3    H126064   5.695   0.195   1.182
 8700TIP3    H226065   5.706   0.224   1.330
 8701TIP3   OH226066   1.319   6.140   2.467
 8701TIP3    H126067   1.381   6.174   2.532
 8701TIP3    H226068   1.235   6.176   2.493
 8702TIP3   OH226069   3.250   4.327   5.849
 8702TIP3    H126070   3.332   4.297   5.811
 8702TIP3    H226071   3.262   4.316   5.943
 8703TIP3   OH226072   1.641   0.181   2.083
 8703TIP3    H126073   1.609   0.108   2.136
 8703TIP3    H226074   1.600   0.169   1.998
 8704TIP3   OH226075   3.299   6.582   3.489
 8704TIP3    H126076   3.222   6.637   3.475
 8704TIP3    H226077   3.297   6.518   3.418
 8705TIP3   OH226078   3.179   4.039   1.085
 8705TIP3    H126079   3.172   4.051   0.990
 8705TIP3    H226080   3.092   4.009   1.112
 8706TIP3   OH226081   0.637   2.839   2.812
 8706TIP3    H126082   0.701   2.896   2.768
 8706TIP3    H226083   0.675   2.823   2.898
 8707TIP3   OH226084   4.303   2.943   5.054
 8707TIP3    H126085   4.329   2.929   4.963
 8707TIP3    H226086   4.382   2.975   5.097
 8708TIP3   OH226087   1.488   6.020   3.937
 8708TIP3    H126088   1.574   5.988   3.909
 8708TIP3    H226089   1.426   5.968   3.885
 8709TIP3   OH226090   2.352   1.782   3.116
 8709TIP3    H126091   2.328   1.718   3.049
 8709TIP3    H226092   2.387   1.730   3.188
 8710TIP3   OH226093   1.063   6.219   2.380
 8710TIP3    H126094   1.001   6.148   2.394
 8710TIP3    H226095   1.012   6.299   2.393
 8711TIP3   OH226096   2.481   1.679   1.494
 8711TIP3    H126097   2.504   1.708   1.406
 8711TIP3    H226098   2.470   1.760   1.544
 8712TIP3   OH226099   4.024   1.814   0.111
 8712TIP3    H126100   4.058   1.824   0.022
 8712TIP3    H226101   4.091   1.853   0.166
 8713TIP3   OH226102   5.050   4.742   3.118
 8713TIP3    H126103   5.096   4.775   3.195
 8713TIP3    H226104   5.025   4.653   3.142
 8714TIP3   OH226105   2.409   3.233   2.542
 8714TIP3    H126106   2.325   3.274   2.521
 8714TIP3    H226107   2.475   3.288   2.501
 8715TIP3   OH226108   0.491   5.891   3.245
 8715TIP3    H126109   0.558   5.841   3.199
 8715TIP3    H226110   0.493   5.858   3.335
 8716TIP3   OH226111   4.935   2.571   4.851
 8716TIP3    H126112   4.951   2.496   4.909
 8716TIP3    H226113   4.860   2.546   4.799
 8717TIP3   OH226114   4.486   0.968   0.293
 8717TIP3    H126115   4.540   1.032   0.340
 8717TIP3    H226116   4.534   0.952   0.212
 8718TIP3   OH226117   4.984   4.972   5.713
 8718TIP3    H126118   4.907   4.970   5.656
 8718TIP3    H226119   4.992   5.064   5.739
 8719TIP3   OH226120   1.464   1.461   1.348
 8719TIP3    H126121   1.390   1.412   1.382
 8719TIP3    H226122   1.482   1.527   1.415
 8720TIP3   OH226123   6.157   0.817   4.645
 8720TIP3    H126124   6.087   0.880   4.662
 8720TIP3    H226125   6.179   0.830   4.553
 8721TIP3   OH226126   2.390   6.665   0.323
 8721TIP3    H126127   2.396   6.614   0.404
 8721TIP3    H226128   2.314   6.628   0.278
 8722TIP3   OH226129   2.058   2.185   1.520
 8722TIP3    H126130   2.058   2.279   1.534
 8722TIP3    H226131   1.968   2.157   1.541
 8723TIP3   OH226132   0.886   5.166   1.644
 8723TIP3    H126133   0.828   5.209   1.707
 8723TIP3    H226134   0.936   5.238   1.605
 8724TIP3   OH226135   7.114   2.571  -0.051
 8724TIP3    H126136   7.145   2.630   0.019
 8724TIP3    H226137   7.118   2.484  -0.012
 8725TIP3   OH226138   5.739   3.857   5.469
 8725TIP3    H126139   5.679   3.893   5.404
 8725TIP3    H226140   5.719   3.906   5.549
 8726TIP3   OH226141   6.424   1.913   5.437
 8726TIP3    H126142   6.380   1.865   5.508
 8726TIP3    H226143   6.470   1.845   5.387
 8727TIP3   OH226144   6.665   5.403   1.916
 8727TIP3    H126145   6.760   5.414   1.911
 8727TIP3    H226146   6.639   5.457   1.991
 8728TIP3   OH226147   6.978   3.103   3.349
 8728TIP3    H126148   6.979   3.178   3.291
 8728TIP3    H226149   6.889   3.100   3.384
 8729TIP3   OH226150   0.556   3.098   5.513
 8729TIP3    H126151   0.612   3.080   5.437
 8729TIP3    H226152   0.530   3.011   5.544
 8730TIP3   OH226153   5.081   1.771   1.115
 8730TIP3    H126154   5.123   1.745   1.033
 8730TIP3    H226155   5.015   1.703   1.130
 8731TIP3   OH226156   0.869   6.404   0.528
 8731TIP3    H126157   0.953   6.367   0.501
 8731TIP3    H226158   0.882   6.428   0.620
 8732TIP3   OH226159   3.677   1.620   2.366
 8732TIP3    H126160   3.592   1.577   2.370
 8732TIP3    H226161   3.679   1.677   2.442
 8733TIP3   OH226162   1.685   2.558   4.595
 8733TIP3    H126163   1.710   2.504   4.520
 8733TIP3    H226164   1.631   2.627   4.557
 8734TIP3   OH226165   5.710   2.704   4.157
 8734TIP3    H126166   5.698   2.764   4.230
 8734TIP3    H226167   5.670   2.622   4.185
 8735TIP3   OH226168   3.106   6.383   4.323
 8735TIP3    H126169   3.027   6.371   4.374
 8735TIP3    H226170   3.089   6.337   4.240
 8736TIP3   OH226171   4.919   3.661   1.520
 8736TIP3    H126172   4.951   3.729   1.461
 8736TIP3    H226173   4.936   3.579   1.473
 8737TIP3   OH226174   5.365   0.043   1.675
 8737TIP3    H126175   5.283   0.045   1.626
 8737TIP3    H226176   5.430   0.077   1.615
 8738TIP3   OH226177   5.530   1.446   4.622
 8738TIP3    H126178   5.566   1.401   4.546
 8738TIP3    H226179   5.485   1.378   4.672
 8739TIP3   OH226180   6.379   4.927   1.150
 8739TIP3    H126181   6.285   4.941   1.141
 8739TIP3    H226182   6.419   4.992   1.093
 8740TIP3   OH226183   2.256   2.339   3.168
 8740TIP3    H126184   2.316   2.390   3.221
 8740TIP3    H226185   2.283   2.248   3.180
 8741TIP3   OH226186   2.982   0.343   3.931
 8741TIP3    H126187   2.915   0.338   3.999
 8741TIP3    H226188   2.939   0.309   3.853
 8742TIP3   OH226189   6.299   4.708   4.419
 8742TIP3    H126190   6.371   4.713   4.356
 8742TIP3    H226191   6.243   4.782   4.398
 8743TIP3   OH226192   3.332   0.123   2.779
 8743TIP3    H126193   3.373   0.100   2.862
 8743TIP3    H226194   3.330   0.041   2.729
 8744TIP3   OH226195   6.663   1.768   0.273
 8744TIP3    H126196   6.577   1.739   0.303
 8744TIP3    H226197   6.701   1.812   0.348
 8745TIP3   OH226198   3.699   5.890   2.760
 8745TIP3    H126199   3.763   5.901   2.689
 8745TIP3    H226200   3.624   5.847   2.719
 8746TIP3   OH226201   4.854   0.335   5.198
 8746TIP3    H126202   4.881   0.336   5.290
 8746TIP3    H226203   4.813   0.421   5.185
 8747TIP3   OH226204   6.327   6.389   3.264
 8747TIP3    H126205   6.250   6.416   3.315
 8747TIP3    H226206   6.341   6.460   3.202
 8748TIP3   OH226207   1.729   1.824   4.847
 8748TIP3    H126208   1.650   1.826   4.901
 8748TIP3    H226209   1.740   1.913   4.816
 8749TIP3   OH226210   4.294   5.030   1.333
 8749TIP3    H126211   4.293   4.994   1.421
 8749TIP3    H226212   4.266   5.121   1.344
 8750TIP3   OH226213   6.132   3.603   1.047
 8750TIP3    H126214   6.173   3.674   1.097
 8750TIP3    H226215   6.044   3.636   1.027
 8751TIP3   OH226216   2.271   6.690   5.447
 8751TIP3    H126217   2.280   6.664   5.356
 8751TIP3    H226218   2.298   6.613   5.497
 8752TIP3   OH226219   0.370   6.451   2.312
 8752TIP3    H126220   0.376   6.388   2.240
 8752TIP3    H226221   0.359   6.397   2.390
 8753TIP3   OH226222   0.480   0.091   1.957
 8753TIP3    H126223   0.398   0.042   1.959
 8753TIP3    H226224   0.541   0.040   2.009
 8754TIP3   OH226225   3.535   4.291   4.162
 8754TIP3    H126226   3.563   4.203   4.135
 8754TIP3    H226227   3.443   4.296   4.135
 8755TIP3   OH226228   6.573   0.054   4.930
 8755TIP3    H126229   6.490   0.054   4.883
 8755TIP3    H226230   6.639   0.040   4.863
 8756TIP3   OH226231   7.001   2.009   4.302
 8756TIP3    H126232   7.030   2.093   4.338
 8756TIP3    H226233   7.027   1.944   4.367
 8757TIP3   OH226234   1.407   6.514   2.909
 8757TIP3    H126235   1.325   6.510   2.957
 8757TIP3    H226236   1.430   6.607   2.908
 8758TIP3   OH226237   3.851   5.347   3.266
 8758TIP3    H126238   3.938   5.307   3.252
 8758TIP3    H226239   3.820   5.308   3.348
 8759TIP3   OH226240   1.640   0.979   2.201
 8759TIP3    H126241   1.603   0.994   2.115
 8759TIP3    H226242   1.729   0.947   2.184
 8760TIP3   OH226243   3.986   2.061   0.250
 8760TIP3    H126244   4.009   2.143   0.294
 8760TIP3    H226245   4.058   2.001   0.273
 8761TIP3   OH226246   6.801   3.420   2.014
 8761TIP3    H126247   6.840   3.367   2.084
 8761TIP3    H226248   6.731   3.365   1.979
 8762TIP3   OH226249   3.670   6.007   0.555
 8762TIP3    H126250   3.581   5.986   0.582
 8762TIP3    H226251   3.715   6.032   0.636
 8763TIP3   OH226252   3.298   1.792   3.660
 8763TIP3    H126253   3.374   1.824   3.709
 8763TIP3    H226254   3.230   1.857   3.678
 8764TIP3   OH226255   0.924   3.615   0.161
 8764TIP3    H126256   1.012   3.593   0.193
 8764TIP3    H226257   0.912   3.557   0.086
 8765TIP3   OH226258   4.530   0.757   5.859
 8765TIP3    H126259   4.572   0.693   5.918
 8765TIP3    H226260   4.507   0.830   5.916
 8766TIP3   OH226261   4.620   2.329   0.829
 8766TIP3    H126262   4.588   2.412   0.793
 8766TIP3    H226263   4.642   2.349   0.920
 8767TIP3   OH226264   1.091   1.050   1.234
 8767TIP3    H126265   1.172   1.094   1.208
 8767TIP3    H226266   1.029   1.122   1.249
 8768TIP3   OH226267   0.653   2.010   2.721
 8768TIP3    H126268   0.733   1.987   2.766
 8768TIP3    H226269   0.681   2.033   2.632
 8769TIP3   OH226270   0.107   2.488   0.650
 8769TIP3    H126271   0.164   2.412   0.641
 8769TIP3    H226272   0.033   2.457   0.702
 8770TIP3   OH226273   0.690   0.601   2.605
 8770TIP3    H126274   0.692   0.602   2.701
 8770TIP3    H226275   0.761   0.543   2.580
 8771TIP3   OH226276   3.537   4.283   4.742
 8771TIP3    H126277   3.550   4.213   4.806
 8771TIP3    H226278   3.449   4.268   4.708
 8772TIP3   OH226279   6.957   5.810   5.067
 8772TIP3    H126280   7.045   5.841   5.090
 8772TIP3    H226281   6.939   5.741   5.131
 8773TIP3   OH226282   3.739   2.394   0.718
 8773TIP3    H126283   3.692   2.340   0.782
 8773TIP3    H226284   3.672   2.424   0.657
 8774TIP3   OH226285   4.715   1.586   0.109
 8774TIP3    H126286   4.666   1.505   0.121
 8774TIP3    H226287   4.802   1.567   0.144
 8775TIP3   OH226288   1.467   1.532   3.244
 8775TIP3    H126289   1.500   1.562   3.160
 8775TIP3    H226290   1.545   1.517   3.297
 8776TIP3   OH226291   2.348   0.859   4.317
 8776TIP3    H126292   2.368   0.852   4.411
 8776TIP3    H226293   2.253   0.865   4.313
 8777TIP3   OH226294   3.392   5.389  -0.009
 8777TIP3    H126295   3.469   5.358  -0.057
 8777TIP3    H226296   3.395   5.485  -0.019
 8778TIP3   OH226297   6.457   1.901   1.725
 8778TIP3    H126298   6.495   1.884   1.639
 8778TIP3    H226299   6.467   1.818   1.772
 8779TIP3   OH226300   1.097   0.396   0.825
 8779TIP3    H126301   1.025   0.341   0.856
 8779TIP3    H226302   1.075   0.484   0.855
 8780TIP3   OH226303   0.888   2.080   5.064
 8780TIP3    H126304   0.931   1.994   5.070
 8780TIP3    H226305   0.958   2.143   5.083
 8781TIP3   OH226306   1.426   3.982   3.893
 8781TIP3    H126307   1.505   3.943   3.930
 8781TIP3    H226308   1.356   3.920   3.914
 8782TIP3   OH226309   7.169   0.285   4.196
 8782TIP3    H126310   7.143   0.306   4.286
 8782TIP3    H226311   7.105   0.332   4.142
 8783TIP3   OH226312   1.723   5.850   2.514
 8783TIP3    H126313   1.650   5.852   2.576
 8783TIP3    H226314   1.722   5.761   2.479
 8784TIP3   OH226315   1.950   2.905   1.028
 8784TIP3    H126316   1.884   2.915   0.959
 8784TIP3    H226317   1.913   2.839   1.087
 8785TIP3   OH226318   2.325   5.893   4.923
 8785TIP3    H126319   2.408   5.882   4.969
 8785TIP3    H226320   2.300   5.984   4.940
 8786TIP3   OH226321   2.713   1.663   5.531
 8786TIP3    H126322   2.686   1.620   5.450
 8786TIP3    H226323   2.661   1.621   5.599
 8787TIP3   OH226324   0.889   3.343   0.584
 8787TIP3    H126325   0.935   3.388   0.655
 8787TIP3    H226326   0.877   3.409   0.517
 8788TIP3   OH226327   6.730   2.268   5.450
 8788TIP3    H126328   6.716   2.355   5.412
 8788TIP3    H226329   6.659   2.215   5.413
 8789TIP3   OH226330   5.158   2.702   4.828
 8789TIP3    H126331   5.070   2.666   4.815
 8789TIP3    H226332   5.213   2.625   4.844
 8790TIP3   OH226333   5.355   5.089   2.557
 8790TIP3    H126334   5.319   5.002   2.578
 8790TIP3    H226335   5.420   5.071   2.489
 8791TIP3   OH226336   0.093   1.583   4.796
 8791TIP3    H126337   0.066   1.521   4.864
 8791TIP3    H226338   0.182   1.609   4.821
 8792TIP3   OH226339   5.544   5.015   1.404
 8792TIP3    H126340   5.570   5.107   1.414
 8792TIP3    H226341   5.448   5.018   1.402
 8793TIP3   OH226342   6.185   4.273   3.458
 8793TIP3    H126343   6.227   4.187   3.465
 8793TIP3    H226344   6.223   4.325   3.528
 8794TIP3   OH226345   2.201   0.910   1.443
 8794TIP3    H126346   2.106   0.901   1.455
 8794TIP3    H226347   2.239   0.858   1.514
 8795TIP3   OH226348   0.916   2.781   1.666
 8795TIP3    H126349   0.931   2.749   1.578
 8795TIP3    H226350   0.881   2.706   1.714
 8796TIP3   OH226351   2.173   3.245   4.603
 8796TIP3    H126352   2.176   3.265   4.697
 8796TIP3    H226353   2.188   3.151   4.598
 8797TIP3   OH226354   4.439   0.172   4.985
 8797TIP3    H126355   4.364   0.232   4.984
 8797TIP3    H226356   4.463   0.165   5.078
 8798TIP3   OH226357   2.244   2.686   1.570
 8798TIP3    H126358   2.267   2.763   1.517
 8798TIP3    H226359   2.226   2.721   1.657
 8799TIP3   OH226360   3.395   0.765   4.940
 8799TIP3    H126361   3.422   0.726   4.857
 8799TIP3    H226362   3.307   0.732   4.954
 8800TIP3   OH226363   1.991   2.926   5.295
 8800TIP3    H126364   1.902   2.958   5.285
 8800TIP3    H226365   2.042   2.974   5.230
 8801TIP3   OH226366   2.613   0.326   3.438
 8801TIP3    H126367   2.568   0.327   3.523
 8801TIP3    H226368   2.603   0.235   3.408
 8802TIP3   OH226369   5.820   4.954   1.286
 8802TIP3    H126370   5.754   4.962   1.356
 8802TIP3    H226371   5.852   4.864   1.295
 8803TIP3   OH226372   1.645   5.130   0.944
 8803TIP3    H126373   1.601   5.052   0.980
 8803TIP3    H226374   1.595   5.203   0.979
 8804TIP3   OH226375   0.567   2.506   0.690
 8804TIP3    H126376   0.508   2.523   0.764
 8804TIP3    H226377   0.523   2.544   0.614
 8805TIP3   OH226378   6.024   3.734   2.024
 8805TIP3    H126379   6.052   3.689   2.104
 8805TIP3    H226380   5.960   3.798   2.054
 8806TIP3   OH226381   3.599   2.384   0.315
 8806TIP3    H126382   3.623   2.476   0.300
 8806TIP3    H226383   3.681   2.341   0.337
 8807TIP3   OH226384   1.388   3.994   5.626
 8807TIP3    H126385   1.390   3.899   5.621
 8807TIP3    H226386   1.388   4.014   5.720
 8808TIP3   OH226387   0.141   5.406   2.018
 8808TIP3    H126388   0.109   5.494   2.037
 8808TIP3    H226389   0.066   5.349   2.035
 8809TIP3   OH226390   2.674   4.679   5.301
 8809TIP3    H126391   2.585   4.711   5.314
 8809TIP3    H226392   2.672   4.636   5.215
 8810TIP3   OH226393   0.458   2.606   3.006
 8810TIP3    H126394   0.384   2.628   3.062
 8810TIP3    H226395   0.420   2.555   2.934
 8811TIP3   OH226396   3.224   3.527   1.520
 8811TIP3    H126397   3.185   3.522   1.607
 8811TIP3    H226398   3.294   3.592   1.527
 8812TIP3   OH226399   0.901   6.449   0.799
 8812TIP3    H126400   0.911   6.535   0.839
 8812TIP3    H226401   0.889   6.389   0.873
 8813TIP3   OH226402   2.092   3.618   2.105
 8813TIP3    H126403   2.018   3.583   2.056
 8813TIP3    H226404   2.054   3.687   2.160
 8814TIP3   OH226405   7.094   0.861   1.599
 8814TIP3    H126406   7.102   0.951   1.631
 8814TIP3    H226407   7.007   0.833   1.626
 8815TIP3   OH226408   0.334   0.854   4.052
 8815TIP3    H126409   0.252   0.868   4.100
 8815TIP3    H226410   0.306   0.818   3.967
 8816TIP3   OH226411   5.522   5.837   2.195
 8816TIP3    H126412   5.547   5.806   2.108
 8816TIP3    H226413   5.592   5.897   2.220
 8817TIP3   OH226414   0.859   6.568   3.871
 8817TIP3    H126415   0.806   6.603   3.800
 8817TIP3    H226416   0.950   6.582   3.842
 8818TIP3   OH226417   6.828   0.574   3.884
 8818TIP3    H126418   6.746   0.616   3.858
 8818TIP3    H226419   6.890   0.647   3.893
 8819TIP3   OH226420   1.763   4.007   2.268
 8819TIP3    H126421   1.694   3.965   2.217
 8819TIP3    H226422   1.722   4.027   2.352
 8820TIP3   OH226423   4.704   6.233   3.004
 8820TIP3    H126424   4.723   6.321   3.038
 8820TIP3    H226425   4.658   6.189   3.075
 8821TIP3   OH226426   5.318   0.577   5.101
 8821TIP3    H126427   5.249   0.642   5.093
 8821TIP3    H226428   5.398   0.624   5.077
 8822TIP3   OH226429   5.327   4.390   5.024
 8822TIP3    H126430   5.262   4.331   5.064
 8822TIP3    H226431   5.397   4.331   4.994
 8823TIP3   OH226432   7.112   6.226   0.386
 8823TIP3    H126433   7.119   6.281   0.308
 8823TIP3    H226434   7.196   6.235   0.430
 8824TIP3   OH226435   2.204   5.867   0.654
 8824TIP3    H126436   2.183   5.958   0.632
 8824TIP3    H226437   2.299   5.865   0.659
 8825TIP3   OH226438   4.613   0.659   0.022
 8825TIP3    H126439   4.560   0.737   0.036
 8825TIP3    H226440   4.674   0.658   0.096
 8826TIP3   OH226441  -0.020   0.663   4.412
 8826TIP3    H126442   0.004   0.583   4.459
 8826TIP3    H226443  -0.034   0.633   4.322
 8827TIP3   OH226444   5.550   3.249   3.620
 8827TIP3    H126445   5.575   3.157   3.617
 8827TIP3    H226446   5.606   3.287   3.688
 8828TIP3   OH226447   3.082   4.552   2.937
 8828TIP3    H126448   2.989   4.556   2.915
 8828TIP3    H226449   3.115   4.478   2.886
 8829TIP3   OH226450   1.322   1.016   5.096
 8829TIP3    H126451   1.229   1.037   5.093
 8829TIP3    H226452   1.348   1.007   5.004
 8830TIP3   OH226453   4.400   2.590   1.225
 8830TIP3    H126454   4.346   2.518   1.256
 8830TIP3    H226455   4.345   2.634   1.159
 8831TIP3   OH226456   0.487   4.906   3.519
 8831TIP3    H126457   0.466   4.992   3.484
 8831TIP3    H226458   0.576   4.914   3.553
 8832TIP3   OH226459   0.050   4.927   3.838
 8832TIP3    H126460   0.025   4.925   3.931
 8832TIP3    H226461   0.144   4.905   3.839
 8833TIP3   OH226462   0.559   5.031   2.609
 8833TIP3    H126463   0.466   5.021   2.593
 8833TIP3    H226464   0.579   5.121   2.582
 8834TIP3   OH226465   5.237   2.253   3.987
 8834TIP3    H126466   5.225   2.169   3.942
 8834TIP3    H226467   5.209   2.318   3.922
 8835TIP3   OH226468   0.986   0.074   5.298
 8835TIP3    H126469   0.894   0.097   5.312
 8835TIP3    H226470   1.008   0.114   5.214
 8836TIP3   OH226471   0.934   0.309   2.356
 8836TIP3    H126472   1.026   0.306   2.332
 8836TIP3    H226473   0.889   0.259   2.288
 8837TIP3   OH226474   1.958   6.044   5.493
 8837TIP3    H126475   2.048   6.077   5.494
 8837TIP3    H226476   1.905   6.120   5.518
 8838TIP3   OH226477   0.716   2.280   4.423
 8838TIP3    H126478   0.809   2.286   4.399
 8838TIP3    H226479   0.690   2.370   4.440
 8839TIP3   OH226480   1.258   6.098   3.518
 8839TIP3    H126481   1.205   6.175   3.538
 8839TIP3    H226482   1.307   6.122   3.439
 8840TIP3   OH226483   2.112   2.445   5.415
 8840TIP3    H126484   2.180   2.453   5.349
 8840TIP3    H226485   2.042   2.503   5.384
 8841TIP3   OH226486   2.473   3.541   4.619
 8841TIP3    H126487   2.563   3.565   4.599
 8841TIP3    H226488   2.426   3.624   4.623
 8842TIP3   OH226489   5.380   1.930   3.399
 8842TIP3    H126490   5.343   1.961   3.482
 8842TIP3    H226491   5.407   2.010   3.354
 8843TIP3   OH226492   2.527   5.135   0.328
 8843TIP3    H126493   2.477   5.200   0.376
 8843TIP3    H226494   2.523   5.165   0.237
 8844TIP3   OH226495   2.028   3.424   5.588
 8844TIP3    H126496   2.006   3.373   5.510
 8844TIP3    H226497   2.001   3.369   5.661
 8845TIP3   OH226498   1.850   1.445   0.070
 8845TIP3    H126499   1.890   1.424  -0.015
 8845TIP3    H226500   1.900   1.521   0.101
 8846TIP3   OH226501   4.761   5.775   5.284
 8846TIP3    H126502   4.792   5.684   5.291
 8846TIP3    H226503   4.841   5.827   5.288
 8847TIP3   OH226504   6.110   3.351   2.057
 8847TIP3    H126505   6.048   3.405   2.008
 8847TIP3    H226506   6.190   3.352   2.005
 8848TIP3   OH226507   2.747   3.849   0.824
 8848TIP3    H126508   2.685   3.890   0.764
 8848TIP3    H226509   2.810   3.918   0.844
 8849TIP3   OH226510   2.916   5.143   2.858
 8849TIP3    H126511   2.953   5.131   2.945
 8849TIP3    H226512   2.913   5.054   2.821
 8850TIP3   OH226513   5.625   3.524   4.820
 8850TIP3    H126514   5.531   3.513   4.804
 8850TIP3    H226515   5.630   3.562   4.908
 8851TIP3   OH226516   1.637   1.393   2.346
 8851TIP3    H126517   1.718   1.343   2.345
 8851TIP3    H226518   1.578   1.342   2.402
 8852TIP3   OH226519   4.608   3.973   3.300
 8852TIP3    H126520   4.623   4.067   3.293
 8852TIP3    H226521   4.513   3.965   3.310
 8853TIP3   OH226522   1.537   3.496   1.251
 8853TIP3    H126523   1.509   3.405   1.246
 8853TIP3    H226524   1.510   3.534   1.167
 8854TIP3   OH226525   5.207   3.911   1.891
 8854TIP3    H126526   5.132   3.922   1.833
 8854TIP3    H226527   5.280   3.948   1.843
 8855TIP3   OH226528   1.429   4.954   0.528
 8855TIP3    H126529   1.511   4.972   0.573
 8855TIP3    H226530   1.430   5.014   0.453
 8856TIP3   OH226531   0.695   0.612   4.056
 8856TIP3    H126532   0.707   0.701   4.089
 8856TIP3    H226533   0.783   0.575   4.055
 8857TIP3   OH226534   3.400   1.642   4.302
 8857TIP3    H126535   3.420   1.648   4.396
 8857TIP3    H226536   3.451   1.567   4.272
 8858TIP3   OH226537   6.411   0.099   0.392
 8858TIP3    H126538   6.386   0.190   0.413
 8858TIP3    H226539   6.499   0.106   0.355
 8859TIP3   OH226540   6.440   3.749   3.716
 8859TIP3    H126541   6.407   3.687   3.781
 8859TIP3    H226542   6.406   3.718   3.632
 8860TIP3   OH226543   0.243   2.249   0.040
 8860TIP3    H126544   0.167   2.269   0.094
 8860TIP3    H226545   0.225   2.161   0.006
 8861TIP3   OH226546   2.466   5.360   2.141
 8861TIP3    H126547   2.376   5.343   2.115
 8861TIP3    H226548   2.459   5.399   2.228
 8862TIP3   OH226549   1.949   4.171   3.161
 8862TIP3    H126550   1.926   4.181   3.254
 8862TIP3    H226551   2.042   4.193   3.156
 8863TIP3   OH226552   4.877   2.496   3.933
 8863TIP3    H126553   4.870   2.520   3.840
 8863TIP3    H226554   4.919   2.572   3.974
 8864TIP3   OH226555   5.898   4.882   0.288
 8864TIP3    H126556   5.863   4.956   0.238
 8864TIP3    H226557   5.833   4.813   0.276
 8865TIP3   OH226558   4.925   4.230   1.122
 8865TIP3    H126559   4.858   4.190   1.177
 8865TIP3    H226560   5.006   4.218   1.171
 8866TIP3   OH226561   0.503   1.674   5.709
 8866TIP3    H126562   0.540   1.608   5.767
 8866TIP3    H226563   0.504   1.633   5.622
 8867TIP3   OH226564   0.463   1.260   5.850
 8867TIP3    H126565   0.426   1.267   5.762
 8867TIP3    H226566   0.469   1.350   5.882
 8868TIP3   OH226567   5.822   5.240   5.738
 8868TIP3    H126568   5.804   5.253   5.831
 8868TIP3    H226569   5.866   5.155   5.734
 8869TIP3   OH226570   5.256   3.567   1.989
 8869TIP3    H126571   5.161   3.575   1.993
 8869TIP3    H226572   5.284   3.566   2.080
 8870TIP3   OH226573   0.908   4.904   2.412
 8870TIP3    H126574   0.945   4.932   2.328
 8870TIP3    H226575   0.884   4.986   2.456
 8871TIP3   OH226576   0.657   1.300   1.163
 8871TIP3    H126577   0.654   1.390   1.196
 8871TIP3    H226578   0.589   1.296   1.096
 8872TIP3   OH226579   5.434   3.051   2.388
 8872TIP3    H126580   5.355   3.087   2.347
 8872TIP3    H226581   5.421   3.066   2.482
 8873TIP3   OH226582   1.877   5.843   2.779
 8873TIP3    H126583   1.942   5.847   2.708
 8873TIP3    H226584   1.802   5.798   2.741
 8874TIP3   OH226585   3.365   4.580   2.836
 8874TIP3    H126586   3.339   4.618   2.919
 8874TIP3    H226587   3.403   4.495   2.859
 8875TIP3   OH226588   6.302   6.366   0.099
 8875TIP3    H126589   6.339   6.454   0.098
 8875TIP3    H226590   6.228   6.372   0.161
 8876TIP3   OH226591   3.246   1.703   3.114
 8876TIP3    H126592   3.332   1.727   3.081
 8876TIP3    H226593   3.241   1.744   3.200
 8877TIP3   OH226594   3.328   2.584   4.440
 8877TIP3    H126595   3.286   2.670   4.433
 8877TIP3    H226596   3.324   2.564   4.534
 8878TIP3   OH226597   1.181   0.693   4.898
 8878TIP3    H126598   1.228   0.624   4.945
 8878TIP3    H226599   1.168   0.658   4.810
 8879TIP3   OH226600   5.492   4.734   1.473
 8879TIP3    H126601   5.432   4.730   1.548
 8879TIP3    H226602   5.482   4.824   1.440
 8880TIP3   OH226603   2.561   4.433   1.312
 8880TIP3    H126604   2.613   4.401   1.238
 8880TIP3    H226605   2.495   4.490   1.272
 8881TIP3   OH226606   2.169   0.731   4.916
 8881TIP3    H126607   2.151   0.801   4.853
 8881TIP3    H226608   2.255   0.698   4.892
 8882TIP3   OH226609   1.710   6.318   0.205
 8882TIP3    H126610   1.683   6.403   0.240
 8882TIP3    H226611   1.690   6.256   0.276
 8883TIP3   OH226612   6.253   1.495   5.522
 8883TIP3    H126613   6.199   1.426   5.561
 8883TIP3    H226614   6.343   1.462   5.531
 8884TIP3   OH226615   2.416   0.381   4.651
 8884TIP3    H126616   2.463   0.407   4.730
 8884TIP3    H226617   2.356   0.454   4.634
 8885TIP3   OH226618   0.212   5.344   4.365
 8885TIP3    H126619   0.283   5.378   4.310
 8885TIP3    H226620   0.253   5.326   4.449
 8886TIP3   OH226621   1.767   4.012   1.250
 8886TIP3    H126622   1.723   3.932   1.223
 8886TIP3    H226623   1.749   4.075   1.181
 8887TIP3   OH226624   4.174   0.877   1.538
 8887TIP3    H126625   4.190   0.797   1.488
 8887TIP3    H226626   4.176   0.946   1.472
 8888TIP3   OH226627   0.610   2.566   5.724
 8888TIP3    H126628   0.615   2.476   5.690
 8888TIP3    H226629   0.605   2.556   5.819
 8889TIP3   OH226630   0.376   0.932   1.064
 8889TIP3    H126631   0.397   0.992   0.993
 8889TIP3    H226632   0.280   0.926   1.062
 8890TIP3   OH226633   3.028   1.026   4.525
 8890TIP3    H126634   2.936   1.037   4.548
 8890TIP3    H226635   3.030   0.947   4.469
 8891TIP3   OH226636   1.395   3.234   3.711
 8891TIP3    H126637   1.399   3.144   3.678
 8891TIP3    H226638   1.338   3.280   3.649
 8892TIP3   OH226639   5.155   4.348   4.002
 8892TIP3    H126640   5.186   4.312   4.085
 8892TIP3    H226641   5.108   4.428   4.026
 8893TIP3   OH226642   6.870   0.349   0.736
 8893TIP3    H126643   6.953   0.316   0.770
 8893TIP3    H226644   6.837   0.278   0.682
 8894TIP3   OH226645   0.512   5.107   1.779
 8894TIP3    H126646   0.500   5.012   1.778
 8894TIP3    H226647   0.428   5.141   1.811
 8895TIP3   OH226648   3.599   5.147   0.697
 8895TIP3    H126649   3.605   5.054   0.678
 8895TIP3    H226650   3.644   5.190   0.624
 8896TIP3   OH226651   0.368   2.630   4.634
 8896TIP3    H126652   0.400   2.645   4.723
 8896TIP3    H226653   0.288   2.681   4.628
 8897TIP3   OH226654   1.080   3.201   0.031
 8897TIP3    H126655   0.994   3.184   0.067
 8897TIP3    H226656   1.137   3.211   0.107
 8898TIP3   OH226657   2.233   4.628   3.540
 8898TIP3    H126658   2.192   4.645   3.625
 8898TIP3    H226659   2.321   4.665   3.548
 8899TIP3   OH226660   0.833   6.585   4.571
 8899TIP3    H126661   0.796   6.583   4.482
 8899TIP3    H226662   0.910   6.641   4.563
 8900TIP3   OH226663   5.953   5.466   5.220
 8900TIP3    H126664   5.955   5.373   5.240
 8900TIP3    H226665   5.879   5.500   5.271
 8901TIP3   OH226666   2.262   0.531   3.425
 8901TIP3    H126667   2.271   0.438   3.408
 8901TIP3    H226668   2.351   0.564   3.434
 8902TIP3   OH226669   0.683   5.271   5.253
 8902TIP3    H126670   0.702   5.352   5.206
 8902TIP3    H226671   0.675   5.298   5.345
 8903TIP3   OH226672   2.620   3.759   1.310
 8903TIP3    H126673   2.697   3.753   1.254
 8903TIP3    H226674   2.563   3.689   1.279
 8904TIP3   OH226675   6.456   5.962   3.816
 8904TIP3    H126676   6.377   6.009   3.843
 8904TIP3    H226677   6.480   5.909   3.893
 8905TIP3   OH226678   1.963   6.452   1.358
 8905TIP3    H126679   1.991   6.386   1.421
 8905TIP3    H226680   2.018   6.528   1.378
 8906TIP3   OH226681   4.821   6.726   1.082
 8906TIP3    H126682   4.879   6.790   1.040
 8906TIP3    H226683   4.764   6.778   1.138
 8907TIP3   OH226684   5.644   5.231   1.252
 8907TIP3    H126685   5.739   5.234   1.265
 8907TIP3    H226686   5.633   5.244   1.158
 8908TIP3   OH226687   0.790   0.304   1.341
 8908TIP3    H126688   0.730   0.315   1.416
 8908TIP3    H226689   0.848   0.380   1.346
 8909TIP3   OH226690   5.460   6.518   2.712
 8909TIP3    H126691   5.374   6.496   2.678
 8909TIP3    H226692   5.520   6.508   2.638
 8910TIP3   OH226693   0.718   4.311   3.649
 8910TIP3    H126694   0.723   4.407   3.654
 8910TIP3    H226695   0.679   4.294   3.563
 8911TIP3   OH226696   5.032   2.920   5.009
 8911TIP3    H126697   4.999   3.010   5.006
 8911TIP3    H226698   4.955   2.867   5.027
 8912TIP3   OH226699   3.019   0.628   3.430
 8912TIP3    H126700   2.976   0.709   3.401
 8912TIP3    H226701   3.109   0.636   3.400
 8913TIP3   OH226702   4.864   0.136   2.965
 8913TIP3    H126703   4.798   0.167   3.026
 8913TIP3    H226704   4.917   0.214   2.946
 8914TIP3   OH226705   0.428   5.421   2.064
 8914TIP3    H126706   0.334   5.436   2.058
 8914TIP3    H226707   0.436   5.336   2.107
 8915TIP3   OH226708   0.189   2.827   1.516
 8915TIP3    H126709   0.233   2.787   1.441
 8915TIP3    H226710   0.261   2.861   1.570
 8916TIP3   OH226711   6.046   3.517   5.715
 8916TIP3    H126712   6.005   3.444   5.669
 8916TIP3    H226713   6.138   3.493   5.719
 8917TIP3   OH226714   3.944   6.290   2.084
 8917TIP3    H126715   4.025   6.292   2.034
 8917TIP3    H226716   3.960   6.229   2.156
 8918TIP3   OH226717   1.155   0.275   3.205
 8918TIP3    H126718   1.079   0.282   3.147
 8918TIP3    H226719   1.220   0.225   3.154
 8919TIP3   OH226720   3.555   3.723   2.715
 8919TIP3    H126721   3.644   3.746   2.690
 8919TIP3    H226722   3.565   3.646   2.771
 8920TIP3   OH226723   4.554   5.068   4.260
 8920TIP3    H126724   4.629   5.033   4.307
 8920TIP3    H226725   4.532   5.000   4.196
 8921TIP3   OH226726   7.065   0.586   1.240
 8921TIP3    H126727   7.007   0.575   1.165
 8921TIP3    H226728   7.025   0.533   1.309
 8922TIP3   OH226729   5.633   0.004   4.049
 8922TIP3    H126730   5.619   0.016   4.143
 8922TIP3    H226731   5.546   0.017   4.011
 8923TIP3   OH226732   6.119   5.321   1.547
 8923TIP3    H126733   6.077   5.316   1.632
 8923TIP3    H226734   6.193   5.261   1.552
 8924TIP3   OH226735   1.412   4.233   4.377
 8924TIP3    H126736   1.348   4.190   4.320
 8924TIP3    H226737   1.489   4.177   4.374
 8925TIP3   OH226738   3.029   1.005   4.132
 8925TIP3    H126739   2.959   0.945   4.106
 8925TIP3    H226740   2.984   1.077   4.177
 8926TIP3   OH226741   5.158   0.376   0.398
 8926TIP3    H126742   5.228   0.416   0.450
 8926TIP3    H226743   5.175   0.282   0.404
 8927TIP3   OH226744   5.236   2.401   4.880
 8927TIP3    H126745   5.213   2.399   4.787
 8927TIP3    H226746   5.160   2.365   4.925
 8928TIP3   OH226747   6.484   3.000   0.296
 8928TIP3    H126748   6.500   3.094   0.300
 8928TIP3    H226749   6.478   2.980   0.202
 8929TIP3   OH226750   3.498   0.091   5.631
 8929TIP3    H126751   3.574   0.065   5.579
 8929TIP3    H226752   3.471   0.010   5.675
 8930TIP3   OH226753   3.837   4.302   0.200
 8930TIP3    H126754   3.770   4.257   0.148
 8930TIP3    H226755   3.891   4.347   0.135
 8931TIP3   OH226756   3.673   0.727   2.946
 8931TIP3    H126757   3.766   0.701   2.946
 8931TIP3    H226758   3.666   0.793   3.014
 8932TIP3   OH226759   3.732   3.759   0.407
 8932TIP3    H126760   3.775   3.823   0.350
 8932TIP3    H226761   3.679   3.706   0.347
 8933TIP3   OH226762   5.971   1.921   4.637
 8933TIP3    H126763   5.949   1.905   4.545
 8933TIP3    H226764   5.975   2.017   4.645
 8934TIP3   OH226765   5.011   6.336   5.810
 8934TIP3    H126766   5.090   6.282   5.822
 8934TIP3    H226767   4.963   6.325   5.892
 8935TIP3   OH226768   3.746   2.855   5.118
 8935TIP3    H126769   3.777   2.926   5.175
 8935TIP3    H226770   3.734   2.781   5.177
 8936TIP3   OH226771   2.179   3.803   1.357
 8936TIP3    H126772   2.138   3.871   1.303
 8936TIP3    H226773   2.106   3.748   1.386
 8937TIP3   OH226774   5.823   5.175   4.486
 8937TIP3    H126775   5.854   5.148   4.572
 8937TIP3    H226776   5.740   5.128   4.475
 8938TIP3   OH226777   4.568   5.825   3.973
 8938TIP3    H126778   4.592   5.834   3.881
 8938TIP3    H226779   4.506   5.752   3.975
 8939TIP3   OH226780   5.893   4.119   0.136
 8939TIP3    H126781   5.915   4.030   0.108
 8939TIP3    H226782   5.950   4.136   0.211
 8940TIP3   OH226783   3.893   5.019   0.472
 8940TIP3    H126784   3.959   5.053   0.533
 8940TIP3    H226785   3.920   5.051   0.387
 8941TIP3   OH226786   2.341   1.005   5.796
 8941TIP3    H126787   2.339   0.931   5.736
 8941TIP3    H226788   2.434   1.019   5.815
 8942TIP3   OH226789   5.495   2.635   3.593
 8942TIP3    H126790   5.541   2.665   3.514
 8942TIP3    H226791   5.408   2.674   3.586
 8943TIP3   OH226792   0.434   4.395   1.365
 8943TIP3    H126793   0.519   4.438   1.377
 8943TIP3    H226794   0.455   4.301   1.359
 8944TIP3   OH226795   1.099   2.347   1.425
 8944TIP3    H126796   1.148   2.267   1.444
 8944TIP3    H226797   1.009   2.327   1.450
 8945TIP3   OH226798   0.823   2.435   0.549
 8945TIP3    H126799   0.887   2.379   0.592
 8945TIP3    H226800   0.754   2.447   0.615
 8946TIP3   OH226801   3.620   5.580   0.207
 8946TIP3    H126802   3.648   5.672   0.202
 8946TIP3    H226803   3.552   5.572   0.140
 8947TIP3   OH226804   0.008   4.105   1.892
 8947TIP3    H126805  -0.052   4.175   1.867
 8947TIP3    H226806   0.039   4.130   1.980
 8948TIP3   OH226807   5.099   2.059   3.090
 8948TIP3    H126808   5.151   2.052   3.010
 8948TIP3    H226809   5.009   2.073   3.058
 8949TIP3   OH226810   6.925   4.787   5.828
 8949TIP3    H126811   6.913   4.788   5.923
 8949TIP3    H226812   6.837   4.771   5.793
 8950TIP3   OH226813   6.434   3.808   0.988
 8950TIP3    H126814   6.376   3.835   1.060
 8950TIP3    H226815   6.514   3.858   1.002
 8951TIP3   OH226816   6.584   3.270   5.710
 8951TIP3    H126817   6.618   3.296   5.625
 8951TIP3    H226818   6.533   3.191   5.693
 8952TIP3   OH226819   5.077   4.422   4.363
 8952TIP3    H126820   5.000   4.366   4.349
 8952TIP3    H226821   5.148   4.378   4.315
 8953TIP3   OH226822   2.930   5.805   2.330
 8953TIP3    H126823   3.023   5.823   2.342
 8953TIP3    H226824   2.900   5.777   2.417
 8954TIP3   OH226825   3.692   6.333   1.657
 8954TIP3    H126826   3.696   6.284   1.574
 8954TIP3    H226827   3.748   6.283   1.717
 8955TIP3   OH226828   1.590   2.254   4.972
 8955TIP3    H126829   1.670   2.254   4.921
 8955TIP3    H226830   1.617   2.278   5.061
 8956TIP3   OH226831   1.252   6.143   3.152
 8956TIP3    H126832   1.238   6.052   3.127
 8956TIP3    H226833   1.347   6.152   3.154
 8957TIP3   OH226834   4.814   4.059   0.050
 8957TIP3    H126835   4.744   4.034  -0.010
 8957TIP3    H226836   4.892   4.068  -0.005
 8958TIP3   OH226837   4.493   5.450   2.627
 8958TIP3    H126838   4.409   5.405   2.622
 8958TIP3    H226839   4.527   5.429   2.714
 8959TIP3   OH226840   2.912   2.489   1.527
 8959TIP3    H126841   3.003   2.461   1.521
 8959TIP3    H226842   2.862   2.419   1.483
 8960TIP3   OH226843   5.615   2.164   0.818
 8960TIP3    H126844   5.707   2.154   0.793
 8960TIP3    H226845   5.618   2.184   0.911
 8961TIP3   OH226846   6.612   0.521   2.167
 8961TIP3    H126847   6.544   0.457   2.185
 8961TIP3    H226848   6.693   0.470   2.166
 8962TIP3   OH226849   2.088   1.545   4.414
 8962TIP3    H126850   2.175   1.578   4.391
 8962TIP3    H226851   2.044   1.532   4.331
 8963TIP3   OH226852   1.735   4.419   1.784
 8963TIP3    H126853   1.686   4.337   1.783
 8963TIP3    H226854   1.734   4.448   1.875
 8964TIP3   OH226855   4.919   0.405   0.618
 8964TIP3    H126856   5.014   0.393   0.618
 8964TIP3    H226857   4.885   0.329   0.571
 8965TIP3   OH226858   2.026   4.806   0.515
 8965TIP3    H126859   1.977   4.852   0.447
 8965TIP3    H226860   2.074   4.875   0.561
 8966TIP3   OH226861   1.610   6.279   5.101
 8966TIP3    H126862   1.670   6.214   5.066
 8966TIP3    H226863   1.638   6.362   5.063
 8967TIP3   OH226864   1.329   4.537   5.438
 8967TIP3    H126865   1.388   4.515   5.366
 8967TIP3    H226866   1.248   4.564   5.395
 8968TIP3   OH226867   1.822   4.956   1.167
 8968TIP3    H126868   1.883   4.966   1.240
 8968TIP3    H226869   1.738   4.938   1.208
 8969TIP3   OH226870   1.312   0.201   1.608
 8969TIP3    H126871   1.257   0.127   1.582
 8969TIP3    H226872   1.273   0.277   1.563
 8970TIP3   OH226873   6.706   5.680   4.300
 8970TIP3    H126874   6.683   5.755   4.246
 8970TIP3    H226875   6.752   5.621   4.239
 8971TIP3   OH226876   4.790   1.897   2.230
 8971TIP3    H126877   4.793   1.992   2.242
 8971TIP3    H226878   4.711   1.882   2.178
 8972TIP3   OH226879   5.064   3.964   2.855
 8972TIP3    H126880   5.132   3.969   2.787
 8972TIP3    H226881   5.098   4.018   2.926
 8973TIP3   OH226882   4.893   0.148   3.808
 8973TIP3    H126883   4.858   0.212   3.870
 8973TIP3    H226884   4.860   0.064   3.839
 8974TIP3   OH226885   0.780   1.443   0.873
 8974TIP3    H126886   0.873   1.463   0.884
 8974TIP3    H226887   0.779   1.359   0.826
 8975TIP3   OH226888   1.994   3.852   1.902
 8975TIP3    H126889   1.948   3.850   1.987
 8975TIP3    H226890   2.086   3.839   1.925
 8976TIP3   OH226891   3.995   3.519   4.766
 8976TIP3    H126892   3.908   3.516   4.725
 8976TIP3    H226893   4.038   3.592   4.722
 8977TIP3   OH226894   3.120   2.427   3.881
 8977TIP3    H126895   3.175   2.368   3.933
 8977TIP3    H226896   3.128   2.512   3.924
 8978TIP3   OH226897   5.933   2.186   4.551
 8978TIP3    H126898   5.853   2.237   4.534
 8978TIP3    H226899   5.996   2.218   4.487
 8979TIP3   OH226900   2.003   0.467   5.245
 8979TIP3    H126901   1.941   0.501   5.182
 8979TIP3    H226902   1.987   0.373   5.246
 8980TIP3   OH226903   2.016   1.826   3.852
 8980TIP3    H126904   1.962   1.904   3.863
 8980TIP3    H226905   2.096   1.857   3.811
 8981TIP3   OH226906   3.671   4.553   0.689
 8981TIP3    H126907   3.597   4.594   0.732
 8981TIP3    H226908   3.648   4.460   0.683
 8982TIP3   OH226909   2.999   0.858   1.189
 8982TIP3    H126910   2.908   0.888   1.186
 8982TIP3    H226911   2.993   0.767   1.218
 8983TIP3   OH226912   1.683   6.398   3.991
 8983TIP3    H126913   1.714   6.324   4.044
 8983TIP3    H226914   1.603   6.366   3.950
 8984TIP3   OH226915   4.408   0.406   1.347
 8984TIP3    H126916   4.415   0.439   1.257
 8984TIP3    H226917   4.422   0.483   1.402
 8985TIP3   OH226918   1.521   0.501   1.663
 8985TIP3    H126919   1.593   0.540   1.615
 8985TIP3    H226920   1.547   0.409   1.674
 8986TIP3   OH226921   5.911   4.710   1.236
 8986TIP3    H126922   5.927   4.641   1.301
 8986TIP3    H226923   5.878   4.664   1.159
 8987TIP3   OH226924   5.757   5.159   5.143
 8987TIP3    H126925   5.816   5.192   5.211
 8987TIP3    H226926   5.672   5.198   5.164
 8988TIP3   OH226927   6.551   4.002   5.714
 8988TIP3    H126928   6.642   3.969   5.716
 8988TIP3    H226929   6.499   3.925   5.691
 8989TIP3   OH226930   0.415   3.010   1.583
 8989TIP3    H126931   0.444   3.097   1.556
 8989TIP3    H226932   0.473   2.950   1.537
 8990TIP3   OH226933   1.719   1.300   2.935
 8990TIP3    H126934   1.644   1.259   2.977
 8990TIP3    H226935   1.779   1.319   3.007
 8991TIP3   OH226936   5.605   6.016   1.125
 8991TIP3    H126937   5.657   6.085   1.084
 8991TIP3    H226938   5.642   5.934   1.091
 8992TIP3   OH226939   4.257   3.156   1.662
 8992TIP3    H126940   4.262   3.247   1.691
 8992TIP3    H226941   4.255   3.105   1.743
 8993TIP3   OH226942   5.609   1.415   3.752
 8993TIP3    H126943   5.597   1.323   3.778
 8993TIP3    H226944   5.544   1.463   3.802
 8994TIP3   OH226945   2.531   1.056   4.781
 8994TIP3    H126946   2.468   1.112   4.826
 8994TIP3    H226947   2.537   0.977   4.835
 8995TIP3   OH226948   4.866   3.511   4.187
 8995TIP3    H126949   4.891   3.600   4.160
 8995TIP3    H226950   4.793   3.524   4.247
 8996TIP3   OH226951   0.700   0.428   4.262
 8996TIP3    H126952   0.671   0.503   4.210
 8996TIP3    H226953   0.625   0.368   4.262
 8997TIP3   OH226954   1.683   2.116   5.523
 8997TIP3    H126955   1.777   2.122   5.504
 8997TIP3    H226956   1.660   2.027   5.497
 8998TIP3   OH226957   6.881   5.802   1.311
 8998TIP3    H126958   6.904   5.810   1.403
 8998TIP3    H226959   6.817   5.872   1.296
 8999TIP3   OH226960   0.831   0.164   4.172
 8999TIP3    H126961   0.925   0.153   4.161
 8999TIP3    H226962   0.822   0.233   4.237
 9000TIP3   OH226963   0.490   2.784   2.060
 9000TIP3    H126964   0.576   2.796   2.021
 9000TIP3    H226965   0.451   2.871   2.061
 9001TIP3   OH226966   2.345   4.278   3.891
 9001TIP3    H126967   2.418   4.301   3.834
 9001TIP3    H226968   2.284   4.232   3.834
 9002TIP3   OH226969   1.783   2.667   2.626
 9002TIP3    H126970   1.866   2.698   2.590
 9002TIP3    H226971   1.802   2.647   2.718
 9003TIP3   OH226972   6.530   1.000   2.070
 9003TIP3    H126973   6.441   0.964   2.065
 9003TIP3    H226974   6.519   1.086   2.112
 9004TIP3   OH226975   2.654   5.465   2.606
 9004TIP3    H126976   2.692   5.529   2.546
 9004TIP3    H226977   2.652   5.383   2.555
 9005TIP3   OH226978  -0.016   2.787   3.610
 9005TIP3    H126979   0.026   2.806   3.694
 9005TIP3    H226980  -0.041   2.695   3.616
 9006TIP3   OH226981   4.360   0.099   0.279
 9006TIP3    H126982   4.274   0.135   0.254
 9006TIP3    H226983   4.423   0.159   0.238
 9007TIP3   OH226984   0.311   6.062   3.154
 9007TIP3    H126985   0.246   6.016   3.100
 9007TIP3    H226986   0.376   5.995   3.174
 9008TIP3   OH226987   7.042   6.756   1.728
 9008TIP3    H126988   7.045   6.706   1.810
 9008TIP3    H226989   6.976   6.712   1.675
 9009TIP3   OH226990   3.626   2.282   1.553
 9009TIP3    H126991   3.651   2.203   1.505
 9009TIP3    H226992   3.540   2.262   1.589
 9010TIP3   OH226993   1.564   4.981   2.749
 9010TIP3    H126994   1.615   4.938   2.817
 9010TIP3    H226995   1.623   4.986   2.674
 9011TIP3   OH226996   0.682   4.301   2.312
 9011TIP3    H126997   0.593   4.275   2.287
 9011TIP3    H226998   0.714   4.352   2.238
 9012TIP3   OH226999   4.708   3.490   1.035
 9012TIP3    H127000   4.680   3.581   1.037
 9012TIP3    H227001   4.648   3.444   1.094
 9013TIP3   OH227002   7.081   2.228   4.985
 9013TIP3    H127003   7.089   2.241   4.890
 9013TIP3    H227004   7.159   2.179   5.010
 9014TIP3   OH227005   6.078   5.655   1.685
 9014TIP3    H127006   6.154   5.630   1.631
 9014TIP3    H227007   6.057   5.576   1.734
 9015TIP3   OH227008   4.790   2.319   2.690
 9015TIP3    H127009   4.763   2.327   2.781
 9015TIP3    H227010   4.745   2.240   2.659
 9016TIP3   OH227011   6.075   1.664   1.063
 9016TIP3    H127012   5.997   1.646   1.010
 9016TIP3    H227013   6.134   1.712   1.004
 9017TIP3   OH227014   4.025   3.031   4.388
 9017TIP3    H127015   3.989   3.082   4.460
 9017TIP3    H227016   4.102   3.080   4.360
 9018TIP3   OH227017   4.224   3.329   4.762
 9018TIP3    H127018   4.209   3.238   4.736
 9018TIP3    H227019   4.138   3.370   4.758
 9019TIP3   OH227020   2.540   5.644   2.082
 9019TIP3    H127021   2.631   5.635   2.111
 9019TIP3    H227022   2.507   5.554   2.077
 9020TIP3   OH227023   5.920   1.304   2.146
 9020TIP3    H127024   5.906   1.319   2.052
 9020TIP3    H227025   5.893   1.214   2.160
 9021TIP3   OH227026   6.823   2.988   1.022
 9021TIP3    H127027   6.754   2.982   1.088
 9021TIP3    H227028   6.776   2.992   0.939
 9022TIP3   OH227029   4.003   2.451   4.625
 9022TIP3    H127030   4.098   2.460   4.633
 9022TIP3    H227031   3.991   2.383   4.558
 9023TIP3   OH227032   2.058   5.481   2.178
 9023TIP3    H127033   1.974   5.503   2.137
 9023TIP3    H227034   2.104   5.565   2.184
 9024TIP3   OH227035   6.954   0.853   0.231
 9024TIP3    H127036   6.906   0.888   0.156
 9024TIP3    H227037   6.886   0.820   0.290
 9025TIP3   OH227038   0.564   2.496   4.454
 9025TIP3    H127039   0.492   2.541   4.498
 9025TIP3    H227040   0.617   2.566   4.416
 9026TIP3   OH227041   3.315   0.492   0.524
 9026TIP3    H127042   3.389   0.482   0.464
 9026TIP3    H227043   3.280   0.579   0.505
 9027TIP3   OH227044   3.638   3.191   4.449
 9027TIP3    H127045   3.575   3.195   4.377
 9027TIP3    H227046   3.670   3.101   4.447
 9028TIP3   OH227047   0.742   2.476   3.073
 9028TIP3    H127048   0.792   2.546   3.115
 9028TIP3    H227049   0.653   2.487   3.106
 9029TIP3   OH227050   1.771   4.627   0.621
 9029TIP3    H127051   1.759   4.714   0.582
 9029TIP3    H227052   1.841   4.587   0.569
 9030TIP3   OH227053   5.700   4.196   4.038
 9030TIP3    H127054   5.641   4.212   3.963
 9030TIP3    H227055   5.669   4.113   4.075
 9031TIP3   OH227056   0.205   2.585   5.338
 9031TIP3    H127057   0.115   2.598   5.366
 9031TIP3    H227058   0.197   2.545   5.251
 9032TIP3   OH227059   4.305   5.985   2.206
 9032TIP3    H127060   4.218   6.026   2.208
 9032TIP3    H227061   4.314   5.944   2.291
 9033TIP3   OH227062   2.158   5.618   3.731
 9033TIP3    H127063   2.097   5.690   3.715
 9033TIP3    H227064   2.202   5.606   3.647
 9034TIP3   OH227065   6.175   6.493   0.315
 9034TIP3    H127066   6.199   6.569   0.262
 9034TIP3    H227067   6.244   6.486   0.381
 9035TIP3   OH227068   2.329   3.513   2.433
 9035TIP3    H127069   2.423   3.498   2.426
 9035TIP3    H227070   2.318   3.557   2.518
 9036TIP3   OH227071   3.380   2.235   0.288
 9036TIP3    H127072   3.468   2.272   0.281
 9036TIP3    H227073   3.322   2.308   0.270
 9037TIP3   OH227074   1.831   6.202   1.531
 9037TIP3    H127075   1.923   6.200   1.557
 9037TIP3    H227076   1.782   6.194   1.613
 9038TIP3   OH227077   2.218   1.295   3.663
 9038TIP3    H127078   2.176   1.330   3.584
 9038TIP3    H227079   2.212   1.200   3.653
 9039TIP3   OH227080   1.931   5.734   5.808
 9039TIP3    H127081   1.874   5.657   5.801
 9039TIP3    H227082   1.881   5.804   5.766
 9040TIP3   OH227083   1.439   0.235   2.824
 9040TIP3    H127084   1.473   0.294   2.891
 9040TIP3    H227085   1.477   0.266   2.742
 9041TIP3   OH227086   2.039   2.766   2.566
 9041TIP3    H127087   2.049   2.860   2.558
 9041TIP3    H227088   2.082   2.744   2.649
 9042TIP3   OH227089   2.300   4.510   0.075
 9042TIP3    H127090   2.301   4.502  -0.020
 9042TIP3    H227091   2.235   4.446   0.103
 9043TIP3   OH227092   2.755   0.563   4.351
 9043TIP3    H127093   2.832   0.591   4.301
 9043TIP3    H227094   2.708   0.506   4.291
 9044TIP3   OH227095   5.225   3.415   1.030
 9044TIP3    H127096   5.221   3.510   1.035
 9044TIP3    H227097   5.133   3.387   1.026
 9045TIP3   OH227098   3.522   4.799   2.158
 9045TIP3    H127099   3.531   4.820   2.065
 9045TIP3    H227100   3.494   4.881   2.199
 9046TIP3   OH227101   6.672   6.028   1.193
 9046TIP3    H127102   6.647   6.104   1.245
 9046TIP3    H227103   6.704   6.065   1.110
 9047TIP3   OH227104   2.159   2.048   4.767
 9047TIP3    H127105   2.106   2.088   4.836
 9047TIP3    H227106   2.102   1.981   4.730
 9048TIP3   OH227107   6.535   3.896   4.908
 9048TIP3    H127108   6.463   3.846   4.869
 9048TIP3    H227109   6.543   3.861   4.997
 9049TIP3   OH227110   6.044   5.938   0.618
 9049TIP3    H127111   6.020   6.026   0.590
 9049TIP3    H227112   5.985   5.880   0.571
 9050TIP3   OH227113   2.300   4.741   2.526
 9050TIP3    H127114   2.287   4.662   2.579
 9050TIP3    H227115   2.308   4.709   2.437
 9051TIP3   OH227116   0.679   5.406   2.810
 9051TIP3    H127117   0.595   5.361   2.800
 9051TIP3    H227118   0.666   5.490   2.764
 9052TIP3   OH227119   0.839   3.645   5.237
 9052TIP3    H127120   0.788   3.615   5.161
 9052TIP3    H227121   0.795   3.726   5.264
 9053TIP3   OH227122   4.133   5.842   2.038
 9053TIP3    H127123   4.227   5.859   2.027
 9053TIP3    H227124   4.127   5.787   2.116
 9054TIP3   OH227125   5.903   2.246   4.204
 9054TIP3    H127126   5.947   2.168   4.169
 9054TIP3    H227127   5.899   2.306   4.130
 9055TIP3   OH227128   4.783   4.480   5.798
 9055TIP3    H127129   4.841   4.484   5.722
 9055TIP3    H227130   4.832   4.431   5.864
 9056TIP3   OH227131   3.962   2.068   1.515
 9056TIP3    H127132   3.973   2.132   1.586
 9056TIP3    H227133   3.958   1.983   1.559
 9057TIP3   OH227134   4.434   5.151   1.137
 9057TIP3    H127135   4.382   5.158   1.057
 9057TIP3    H227136   4.388   5.084   1.189
 9058TIP3   OH227137   6.178   6.691   2.055
 9058TIP3    H127138   6.100   6.725   2.011
 9058TIP3    H227139   6.177   6.597   2.038
 9059TIP3   OH227140   4.430   2.921   3.188
 9059TIP3    H127141   4.487   2.996   3.203
 9059TIP3    H227142   4.428   2.911   3.093
 9060TIP3   OH227143   0.031   0.885   2.490
 9060TIP3    H127144  -0.041   0.922   2.540
 9060TIP3    H227145   0.108   0.932   2.521
 9061TIP3   OH227146   4.228   5.918   4.253
 9061TIP3    H127147   4.285   5.872   4.191
 9061TIP3    H227148   4.244   6.011   4.235
 9062TIP3   OH227149   4.433   0.757   3.842
 9062TIP3    H127150   4.366   0.759   3.911
 9062TIP3    H227151   4.494   0.826   3.867
 9063TIP3   OH227152   5.027   2.189   5.374
 9063TIP3    H127153   5.076   2.270   5.360
 9063TIP3    H227154   5.009   2.188   5.468
 9064TIP3   OH227155   0.857   6.754   5.430
 9064TIP3    H127156   0.940   6.736   5.387
 9064TIP3    H227157   0.796   6.772   5.359
 9065TIP3   OH227158   6.496   2.834   2.124
 9065TIP3    H127159   6.452   2.885   2.057
 9065TIP3    H227160   6.562   2.894   2.160
 9066TIP3   OH227161   2.420   0.956   1.058
 9066TIP3    H127162   2.387   0.870   1.035
 9066TIP3    H227163   2.440   0.950   1.152
 9067TIP3   OH227164   0.625   6.561   5.799
 9067TIP3    H127165   0.702   6.556   5.743
 9067TIP3    H227166   0.636   6.642   5.849
 9068TIP3   OH227167   0.797   5.691   0.686
 9068TIP3    H127168   0.772   5.764   0.630
 9068TIP3    H227169   0.760   5.614   0.642
 9069TIP3   OH227170   1.631   0.190   3.054
 9069TIP3    H127171   1.714   0.222   3.017
 9069TIP3    H227172   1.627   0.099   3.025
 9070TIP3   OH227173   4.352   3.977   3.579
 9070TIP3    H127174   4.325   3.902   3.633
 9070TIP3    H227175   4.448   3.977   3.586
 9071TIP3   OH227176   2.417   2.840   1.251
 9071TIP3    H127177   2.437   2.761   1.301
 9071TIP3    H227178   2.463   2.828   1.168
 9072TIP3   OH227179   4.941   1.347   2.274
 9072TIP3    H127180   4.898   1.432   2.265
 9072TIP3    H227181   4.994   1.338   2.194
 9073TIP3   OH227182   4.416   5.026   3.189
 9073TIP3    H127183   4.341   5.056   3.240
 9073TIP3    H227184   4.473   4.984   3.253
 9074TIP3   OH227185   0.759   4.241   4.033
 9074TIP3    H127186   0.774   4.334   4.053
 9074TIP3    H227187   0.828   4.219   3.970
 9075TIP3   OH227188   5.540   4.746   4.172
 9075TIP3    H127189   5.604   4.809   4.140
 9075TIP3    H227190   5.590   4.667   4.188
 9076TIP3   OH227191   3.703   1.066   0.223
 9076TIP3    H127192   3.634   1.002   0.214
 9076TIP3    H227193   3.662   1.150   0.201
 9077TIP3   OH227194   7.027   1.227   1.574
 9077TIP3    H127195   7.105   1.268   1.611
 9077TIP3    H227196   6.975   1.202   1.650
 9078TIP3   OH227197   5.547   2.177   3.643
 9078TIP3    H127198   5.487   2.240   3.682
 9078TIP3    H227199   5.620   2.229   3.611
 9079TIP3   OH227200   5.607   5.410   4.525
 9079TIP3    H127201   5.698   5.426   4.552
 9079TIP3    H227202   5.596   5.315   4.536
 9080TIP3   OH227203   4.905   0.767   2.376
 9080TIP3    H127204   4.844   0.761   2.449
 9080TIP3    H227205   4.899   0.858   2.347
 9081TIP3   OH227206   6.882   4.870   1.987
 9081TIP3    H127207   6.906   4.933   2.055
 9081TIP3    H227208   6.937   4.794   2.005
 9082TIP3   OH227209   5.200   2.672   4.524
 9082TIP3    H127210   5.211   2.767   4.515
 9082TIP3    H227211   5.209   2.657   4.618
 9083TIP3   OH227212   3.200   1.433   3.081
 9083TIP3    H127213   3.245   1.436   2.997
 9083TIP3    H227214   3.189   1.524   3.107
 9084TIP3   OH227215   3.818   1.429   2.271
 9084TIP3    H127216   3.779   1.513   2.296
 9084TIP3    H227217   3.901   1.452   2.230
 9085TIP3   OH227218   3.638   6.501   3.418
 9085TIP3    H127219   3.620   6.566   3.485
 9085TIP3    H227220   3.689   6.548   3.352
 9086TIP3   OH227221   5.256   4.762   2.073
 9086TIP3    H127222   5.164   4.786   2.074
 9086TIP3    H227223   5.303   4.845   2.085
 9087TIP3   OH227224   1.676   0.011   0.598
 9087TIP3    H127225   1.747   0.063   0.636
 9087TIP3    H227226   1.608   0.010   0.665
 9088TIP3   OH227227   6.392   3.310   1.392
 9088TIP3    H127228   6.314   3.346   1.349
 9088TIP3    H227229   6.362   3.228   1.432
 9089TIP3   OH227230   2.005   1.110   3.453
 9089TIP3    H127231   1.953   1.067   3.385
 9089TIP3    H227232   1.985   1.061   3.533
 9090TIP3   OH227233   4.066   2.954   5.780
 9090TIP3    H127234   4.019   2.954   5.863
 9090TIP3    H227235   3.999   2.929   5.715
 9091TIP3   OH227236   5.190   5.430   3.260
 9091TIP3    H127237   5.141   5.477   3.327
 9091TIP3    H227238   5.224   5.499   3.202
 9092TIP3   OH227239   2.971   6.312   1.059
 9092TIP3    H127240   2.983   6.363   1.139
 9092TIP3    H227241   3.015   6.364   0.991
 9093TIP3   OH227242   2.979   2.588   5.562
 9093TIP3    H127243   2.988   2.629   5.648
 9093TIP3    H227244   3.069   2.568   5.536
 9094TIP3   OH227245   1.828   1.624   5.057
 9094TIP3    H127246   1.832   1.581   4.971
 9094TIP3    H227247   1.737   1.613   5.085
 9095TIP3   OH227248   7.125   5.312   0.291
 9095TIP3    H127249   7.156   5.391   0.248
 9095TIP3    H227250   7.088   5.342   0.374
 9096TIP3   OH227251   5.403   0.202   5.475
 9096TIP3    H127252   5.367   0.263   5.410
 9096TIP3    H227253   5.342   0.128   5.475
 9097TIP3   OH227254   2.902   2.277   2.738
 9097TIP3    H127255   2.823   2.328   2.724
 9097TIP3    H227256   2.948   2.322   2.809
 9098TIP3   OH227257   5.576   5.830   0.139
 9098TIP3    H127258   5.630   5.875   0.203
 9098TIP3    H227259   5.531   5.762   0.189
 9099TIP3   OH227260   2.207   5.299   2.783
 9099TIP3    H127261   2.142   5.232   2.764
 9099TIP3    H227262   2.250   5.269   2.863
 9100TIP3   OH227263   1.229   1.877   5.774
 9100TIP3    H127264   1.259   1.883   5.683
 9100TIP3    H227265   1.246   1.787   5.799
 9101TIP3   OH227266   1.778   3.182   2.677
 9101TIP3    H127267   1.831   3.139   2.743
 9101TIP3    H227268   1.733   3.252   2.725
 9102TIP3   OH227269   3.173   5.910   4.277
 9102TIP3    H127270   3.176   5.981   4.213
 9102TIP3    H227271   3.089   5.921   4.321
 9103TIP3   OH227272   7.163   0.831   1.317
 9103TIP3    H127273   7.134   0.838   1.407
 9103TIP3    H227274   7.134   0.744   1.289
 9104TIP3   OH227275   5.891   4.641   0.644
 9104TIP3    H127276   5.802   4.623   0.612
 9104TIP3    H227277   5.930   4.696   0.577
 9105TIP3   OH227278   3.355   5.100   5.281
 9105TIP3    H127279   3.405   5.179   5.299
 9105TIP3    H227280   3.375   5.079   5.190
 9106TIP3   OH227281   0.548   2.548   3.868
 9106TIP3    H127282   0.530   2.597   3.787
 9106TIP3    H227283   0.489   2.587   3.933
 9107TIP3   OH227284   4.011   3.395   4.245
 9107TIP3    H127285   3.918   3.372   4.251
 9107TIP3    H227286   4.011   3.491   4.249
 9108TIP3   OH227287   4.574   6.122   3.444
 9108TIP3    H127288   4.630   6.048   3.467
 9108TIP3    H227289   4.485   6.088   3.448
 9109TIP3   OH227290   2.108   4.951   3.752
 9109TIP3    H127291   2.162   4.995   3.686
 9109TIP3    H227292   2.152   4.971   3.835
 9110TIP3   OH227293   5.893   6.716   4.540
 9110TIP3    H127294   5.923   6.631   4.571
 9110TIP3    H227295   5.832   6.696   4.469
 9111TIP3   OH227296   1.024   0.417   0.223
 9111TIP3    H127297   0.941   0.371   0.234
 9111TIP3    H227298   0.999   0.509   0.209
 9112TIP3   OH227299   5.220   5.072   5.843
 9112TIP3    H127300   5.191   5.087   5.933
 9112TIP3    H227301   5.141   5.047   5.795
 9113TIP3   OH227302   3.760   5.705   4.347
 9113TIP3    H127303   3.764   5.738   4.436
 9113TIP3    H227304   3.675   5.734   4.315
 9114TIP3   OH227305   2.518   3.631   3.156
 9114TIP3    H127306   2.467   3.558   3.120
 9114TIP3    H227307   2.489   3.708   3.107
 9115TIP3   OH227308   3.270   1.791   4.931
 9115TIP3    H127309   3.213   1.734   4.982
 9115TIP3    H227310   3.213   1.828   4.865
 9116TIP3   OH227311   2.481   6.738   2.342
 9116TIP3    H127312   2.489   6.644   2.362
 9116TIP3    H227313   2.553   6.778   2.390
 9117TIP3   OH227314   2.958   4.263   1.760
 9117TIP3    H127315   3.024   4.282   1.693
 9117TIP3    H227316   2.915   4.347   1.776
 9118TIP3   OH227317   0.105   2.073   4.509
 9118TIP3    H127318   0.026   2.123   4.533
 9118TIP3    H227319   0.130   2.029   4.590
 9119TIP3   OH227320   2.893   2.411   3.724
 9119TIP3    H127321   2.985   2.390   3.743
 9119TIP3    H227322   2.871   2.478   3.790
 9120TIP3   OH227323   6.416   1.962   0.486
 9120TIP3    H127324   6.443   1.876   0.454
 9120TIP3    H227325   6.471   2.024   0.437
 9121TIP3   OH227326   4.120   4.285   5.710
 9121TIP3    H127327   4.202   4.238   5.694
 9121TIP3    H227328   4.071   4.277   5.628
 9122TIP3   OH227329   5.741   5.381   4.848
 9122TIP3    H127330   5.755   5.352   4.938
 9122TIP3    H227331   5.646   5.383   4.838
 9123TIP3   OH227332   4.183   3.164   0.756
 9123TIP3    H127333   4.167   3.257   0.769
 9123TIP3    H227334   4.135   3.121   0.827
 9124TIP3   OH227335   3.071   3.665   4.452
 9124TIP3    H127336   3.042   3.703   4.369
 9124TIP3    H227337   3.019   3.585   4.461
 9125TIP3   OH227338   0.939   0.310   3.037
 9125TIP3    H127339   0.918   0.403   3.043
 9125TIP3    H227340   0.928   0.289   2.944
 9126TIP3   OH227341   2.000   4.202   1.357
 9126TIP3    H127342   1.930   4.204   1.292
 9126TIP3    H227343   1.975   4.267   1.422
 9127TIP3   OH227344   0.687   0.855   2.463
 9127TIP3    H127345   0.696   0.772   2.510
 9127TIP3    H227346   0.595   0.878   2.472
 9128TIP3   OH227347   1.596   2.678   2.161
 9128TIP3    H127348   1.689   2.698   2.156
 9128TIP3    H227349   1.589   2.611   2.229
 9129TIP3   OH227350   0.700   2.790   2.275
 9129TIP3    H127351   0.686   2.777   2.181
 9129TIP3    H227352   0.794   2.805   2.283
 9130TIP3   OH227353   7.070   4.585   5.488
 9130TIP3    H127354   7.009   4.602   5.417
 9130TIP3    H227355   7.059   4.659   5.548
 9131TIP3   OH227356   4.002   1.973   5.567
 9131TIP3    H127357   4.095   1.987   5.546
 9131TIP3    H227358   3.960   2.055   5.541
 9132TIP3   OH227359   0.292   6.658   3.025
 9132TIP3    H127360   0.369   6.665   3.081
 9132TIP3    H227361   0.231   6.724   3.058
 9133TIP3   OH227362   3.344   4.527  -0.054
 9133TIP3    H127363   3.278   4.473  -0.010
 9133TIP3    H227364   3.386   4.575   0.017
 9134TIP3   OH227365   3.392   3.129   5.290
 9134TIP3    H127366   3.465   3.107   5.348
 9134TIP3    H227367   3.328   3.059   5.305
 9135TIP3   OH227368   2.487   0.793   3.871
 9135TIP3    H127369   2.538   0.738   3.813
 9135TIP3    H227370   2.496   0.752   3.957
 9136TIP3   OH227371   4.088   1.535   3.587
 9136TIP3    H127372   4.072   1.471   3.518
 9136TIP3    H227373   4.140   1.603   3.545
 9137TIP3   OH227374   5.534   3.931   5.277
 9137TIP3    H127375   5.494   3.928   5.190
 9137TIP3    H227376   5.470   3.888   5.334
 9138TIP3   OH227377   6.643   3.577   1.617
 9138TIP3    H127378   6.677   3.561   1.529
 9138TIP3    H227379   6.721   3.600   1.669
 9139TIP3   OH227380   1.994   0.957   5.735
 9139TIP3    H127381   2.046   0.949   5.655
 9139TIP3    H227382   1.972   0.866   5.758
 9140TIP3   OH227383   3.853   2.412   0.007
 9140TIP3    H127384   3.796   2.375  -0.060
 9140TIP3    H227385   3.808   2.393   0.090
 9141TIP3   OH227386   4.601   3.210   3.992
 9141TIP3    H127387   4.564   3.287   4.035
 9141TIP3    H227388   4.632   3.242   3.907
 9142TIP3   OH227389   2.406   1.861   2.481
 9142TIP3    H127390   2.348   1.882   2.408
 9142TIP3    H227391   2.479   1.922   2.473
 9143TIP3   OH227392   0.664   3.850   5.246
 9143TIP3    H127393   0.580   3.810   5.266
 9143TIP3    H227394   0.654   3.942   5.271
 9144TIP3   OH227395   5.319   2.314   2.517
 9144TIP3    H127396   5.277   2.394   2.551
 9144TIP3    H227397   5.361   2.342   2.436
 9145TIP3   OH227398   7.084   6.408   1.415
 9145TIP3    H127399   7.165   6.450   1.386
 9145TIP3    H227400   7.112   6.348   1.484
 9146TIP3   OH227401   1.902   3.385   2.484
 9146TIP3    H127402   1.881   3.343   2.567
 9146TIP3    H227403   1.818   3.419   2.452
 9147TIP3   OH227404   7.012   3.050   0.648
 9147TIP3    H127405   7.096   3.026   0.689
 9147TIP3    H227406   6.950   2.984   0.679
 9148TIP3   OH227407   1.119   5.555   2.084
 9148TIP3    H127408   1.085   5.644   2.086
 9148TIP3    H227409   1.070   5.509   2.152
 9149TIP3   OH227410   6.201   3.072   5.589
 9149TIP3    H127411   6.186   2.977   5.585
 9149TIP3    H227412   6.115   3.108   5.612
 9150TIP3   OH227413   0.882   3.545   0.418
 9150TIP3    H127414   0.871   3.582   0.331
 9150TIP3    H227415   0.908   3.618   0.473
 9151TIP3   OH227416   2.203   1.022   3.672
 9151TIP3    H127417   2.199   0.943   3.727
 9151TIP3    H227418   2.209   0.988   3.582
 9152TIP3   OH227419   3.456   5.881   1.524
 9152TIP3    H127420   3.543   5.922   1.525
 9152TIP3    H227421   3.459   5.822   1.449
 9153TIP3   OH227422   1.458   2.587   5.263
 9153TIP3    H127423   1.411   2.507   5.240
 9153TIP3    H227424   1.518   2.601   5.189
 9154TIP3   OH227425   6.612   5.090   3.689
 9154TIP3    H127426   6.536   5.038   3.665
 9154TIP3    H227427   6.607   5.099   3.784
 9155TIP3   OH227428   4.356   4.258   4.269
 9155TIP3    H127429   4.411   4.193   4.311
 9155TIP3    H227430   4.406   4.286   4.192
 9156TIP3   OH227431  -0.008   3.252   1.572
 9156TIP3    H127432  -0.034   3.163   1.551
 9156TIP3    H227433   0.026   3.247   1.662
 9157TIP3   OH227434   4.785   3.163   0.795
 9157TIP3    H127435   4.878   3.143   0.797
 9157TIP3    H227436   4.747   3.098   0.735
 9158TIP3   OH227437   0.208   6.074   2.014
 9158TIP3    H127438   0.277   6.040   1.957
 9158TIP3    H227439   0.127   6.042   1.975
 9159TIP3   OH227440   2.874   5.876   4.202
 9159TIP3    H127441   2.792   5.907   4.163
 9159TIP3    H227442   2.940   5.936   4.168
 9160TIP3   OH227443   5.932   2.754   3.969
 9160TIP3    H127444   6.019   2.717   3.989
 9160TIP3    H227445   5.878   2.727   4.043
 9161TIP3   OH227446   5.563   6.154   1.566
 9161TIP3    H127447   5.501   6.083   1.547
 9161TIP3    H227448   5.517   6.208   1.630
 9162TIP3   OH227449   5.503   3.320   4.621
 9162TIP3    H127450   5.583   3.371   4.609
 9162TIP3    H227451   5.520   3.266   4.699
 9163TIP3   OH227452   0.069   5.650   2.678
 9163TIP3    H127453   0.102   5.740   2.684
 9163TIP3    H227454  -0.023   5.657   2.703
 9164TIP3   OH227455   1.147   3.857   3.298
 9164TIP3    H127456   1.069   3.868   3.353
 9164TIP3    H227457   1.113   3.822   3.216
 9165TIP3   OH227458   2.725   6.413   0.424
 9165TIP3    H127459   2.751   6.343   0.364
 9165TIP3    H227460   2.668   6.370   0.488
 9166TIP3   OH227461   5.373   1.272   4.731
 9166TIP3    H127462   5.364   1.176   4.728
 9166TIP3    H227463   5.400   1.290   4.821
 9167TIP3   OH227464   2.243   0.255   5.516
 9167TIP3    H127465   2.246   0.285   5.425
 9167TIP3    H227466   2.335   0.236   5.538
 9168TIP3   OH227467   3.189   3.834   4.988
 9168TIP3    H127468   3.200   3.740   4.976
 9168TIP3    H227469   3.250   3.874   4.925
 9169TIP3   OH227470   2.301   4.122   5.522
 9169TIP3    H127471   2.387   4.117   5.480
 9169TIP3    H227472   2.263   4.035   5.509
 9170TIP3   OH227473   3.055   5.403   0.619
 9170TIP3    H127474   3.015   5.317   0.626
 9170TIP3    H227475   2.987   5.458   0.581
 9171TIP3   OH227476   3.530   5.649   0.581
 9171TIP3    H127477   3.482   5.573   0.550
 9171TIP3    H227478   3.564   5.623   0.666
 9172TIP3   OH227479   1.527   5.853   0.745
 9172TIP3    H127480   1.515   5.948   0.735
 9172TIP3    H227481   1.604   5.833   0.693
 9173TIP3   OH227482   6.435   1.538   3.236
 9173TIP3    H127483   6.437   1.553   3.142
 9173TIP3    H227484   6.463   1.621   3.275
 9174TIP3   OH227485   0.712   6.297   3.673
 9174TIP3    H127486   0.727   6.309   3.767
 9174TIP3    H227487   0.715   6.386   3.637
 9175TIP3   OH227488   6.786   2.404   4.173
 9175TIP3    H127489   6.806   2.463   4.246
 9175TIP3    H227490   6.767   2.320   4.214
 9176TIP3   OH227491   4.695   1.556   2.001
 9176TIP3    H127492   4.663   1.494   2.067
 9176TIP3    H227493   4.617   1.608   1.979
 9177TIP3   OH227494   6.046   6.445   4.424
 9177TIP3    H127495   6.081   6.378   4.365
 9177TIP3    H227496   6.098   6.436   4.504
 9178TIP3   OH227497   5.098   6.033   0.318
 9178TIP3    H127498   5.046   6.025   0.238
 9178TIP3    H227499   5.098   5.945   0.355
 9179TIP3   OH227500   1.411   2.138   1.892
 9179TIP3    H127501   1.424   2.160   1.984
 9179TIP3    H227502   1.355   2.060   1.893
 9180TIP3   OH227503   4.552   5.992   5.854
 9180TIP3    H127504   4.568   5.898   5.846
 9180TIP3    H227505   4.563   6.010   5.947
 9181TIP3   OH227506   3.874   0.855   2.346
 9181TIP3    H127507   3.797   0.819   2.302
 9181TIP3    H227508   3.891   0.938   2.301
 9182TIP3   OH227509   1.770   6.135   4.563
 9182TIP3    H127510   1.703   6.150   4.629
 9182TIP3    H227511   1.815   6.056   4.591
 9183TIP3   OH227512   0.167   3.669   3.145
 9183TIP3    H127513   0.104   3.689   3.076
 9183TIP3    H227514   0.116   3.625   3.212
 9184TIP3   OH227515   3.350   4.910   1.375
 9184TIP3    H127516   3.361   4.853   1.451
 9184TIP3    H227517   3.256   4.925   1.369
 9185TIP3   OH227518   5.849   4.765   2.011
 9185TIP3    H127519   5.890   4.831   1.955
 9185TIP3    H227520   5.819   4.697   1.951
 9186TIP3   OH227521   4.959   5.973   4.056
 9186TIP3    H127522   4.941   5.971   3.962
 9186TIP3    H227523   4.882   5.931   4.095
 9187TIP3   OH227524   4.874   2.110   1.606
 9187TIP3    H127525   4.786   2.080   1.586
 9187TIP3    H227526   4.922   2.099   1.523
 9188TIP3   OH227527   5.093   6.351   3.971
 9188TIP3    H127528   5.057   6.304   3.896
 9188TIP3    H227529   5.046   6.434   3.972
 9189TIP3   OH227530   1.220   2.904   1.344
 9189TIP3    H127531   1.244   2.829   1.398
 9189TIP3    H227532   1.127   2.918   1.363
 9190TIP3   OH227533   1.169   2.245   4.162
 9190TIP3    H127534   1.181   2.284   4.075
 9190TIP3    H227535   1.249   2.269   4.209
 9191TIP3   OH227536   3.608   1.065   4.645
 9191TIP3    H127537   3.589   1.129   4.713
 9191TIP3    H227538   3.536   1.072   4.583
 9192TIP3   OH227539   5.836   0.095   5.459
 9192TIP3    H127540   5.810   0.183   5.488
 9192TIP3    H227541   5.817   0.094   5.365
 9193TIP3   OH227542   1.324   5.307   0.216
 9193TIP3    H127543   1.265   5.245   0.173
 9193TIP3    H227544   1.291   5.393   0.191
 9194TIP3   OH227545   5.752   5.325   1.719
 9194TIP3    H127546   5.767   5.347   1.627
 9194TIP3    H227547   5.817   5.375   1.767
 9195TIP3   OH227548   6.882   0.299   5.683
 9195TIP3    H127549   6.792   0.323   5.702
 9195TIP3    H227550   6.934   0.371   5.719
 9196TIP3   OH227551   1.833   6.458   2.884
 9196TIP3    H127552   1.913   6.464   2.936
 9196TIP3    H227553   1.780   6.532   2.914
 9197TIP3   OH227554   4.202   5.104   0.089
 9197TIP3    H127555   4.148   5.033   0.052
 9197TIP3    H227556   4.196   5.175   0.025
 9198TIP3   OH227557   5.613   4.450   2.037
 9198TIP3    H127558   5.613   4.377   2.100
 9198TIP3    H227559   5.521   4.460   2.012
 9199TIP3   OH227560   0.965   2.483   2.747
 9199TIP3    H127561   0.890   2.533   2.779
 9199TIP3    H227562   0.996   2.434   2.822
 9200TIP3   OH227563   3.088   6.363   5.740
 9200TIP3    H127564   3.116   6.366   5.649
 9200TIP3    H227565   3.001   6.323   5.737
 9201TIP3   OH227566   1.881   0.945   3.954
 9201TIP3    H127567   1.904   1.026   3.908
 9201TIP3    H227568   1.938   0.945   4.031
 9202TIP3   OH227569   6.314   0.426   0.814
 9202TIP3    H127570   6.365   0.345   0.812
 9202TIP3    H227571   6.307   0.448   0.907
 9203TIP3   OH227572   1.177   3.831   0.236
 9203TIP3    H127573   1.203   3.741   0.216
 9203TIP3    H227574   1.135   3.863   0.156
 9204TIP3   OH227575   6.486   4.268   3.014
 9204TIP3    H127576   6.527   4.230   2.936
 9204TIP3    H227577   6.506   4.361   3.008
 9205TIP3   OH227578   0.843   5.685   2.964
 9205TIP3    H127579   0.823   5.766   2.918
 9205TIP3    H227580   0.892   5.633   2.900
 9206TIP3   OH227581   6.261   3.869   0.754
 9206TIP3    H127582   6.338   3.847   0.805
 9206TIP3    H227583   6.187   3.841   0.809
 9207TIP3   OH227584   1.419   1.379   3.634
 9207TIP3    H127585   1.505   1.391   3.675
 9207TIP3    H227586   1.380   1.466   3.636
 9208TIP3   OH227587   2.451   3.965   1.422
 9208TIP3    H127588   2.494   3.888   1.383
 9208TIP3    H227589   2.360   3.938   1.434
 9209TIP3   OH227590   1.635   4.061   4.725
 9209TIP3    H127591   1.695   4.131   4.753
 9209TIP3    H227592   1.556   4.107   4.699
 9210TIP3   OH227593   5.045   5.395   2.641
 9210TIP3    H127594   5.045   5.321   2.700
 9210TIP3    H227595   5.119   5.380   2.583
 9211TIP3   OH227596   2.880   0.986   0.400
 9211TIP3    H127597   2.817   0.944   0.458
 9211TIP3    H227598   2.857   1.079   0.402
 9212TIP3   OH227599   6.054   4.432   5.683
 9212TIP3    H127600   6.124   4.440   5.748
 9212TIP3    H227601   6.072   4.502   5.620
 9213TIP3   OH227602   7.215   0.868   2.214
 9213TIP3    H127603   7.203   0.864   2.309
 9213TIP3    H227604   7.291   0.924   2.201
 9214TIP3   OH227605   1.625   2.913   2.763
 9214TIP3    H127606   1.620   2.864   2.681
 9214TIP3    H227607   1.701   2.876   2.809
 9215TIP3   OH227608   6.521   3.208   2.968
 9215TIP3    H127609   6.505   3.169   2.882
 9215TIP3    H227610   6.435   3.237   2.998
 9216TIP3   OH227611   3.288   6.178   4.871
 9216TIP3    H127612   3.360   6.118   4.851
 9216TIP3    H227613   3.303   6.205   4.962
 9217TIP3   OH227614   0.830   5.151   5.537
 9217TIP3    H127615   0.797   5.093   5.606
 9217TIP3    H227616   0.758   5.211   5.521
 9218TIP3   OH227617   3.488   4.320   4.450
 9218TIP3    H127618   3.536   4.315   4.368
 9218TIP3    H227619   3.548   4.363   4.511
 9219TIP3   OH227620   2.157   2.407   5.671
 9219TIP3    H127621   2.202   2.323   5.679
 9219TIP3    H227622   2.141   2.417   5.577
 9220TIP3   OH227623   6.430   4.198   3.896
 9220TIP3    H127624   6.514   4.201   3.943
 9220TIP3    H227625   6.372   4.255   3.946
 9221TIP3   OH227626   4.123   6.633   1.199
 9221TIP3    H127627   4.139   6.629   1.104
 9221TIP3    H227628   4.131   6.542   1.228
 9222TIP3   OH227629   6.435   3.209   2.123
 9222TIP3    H127630   6.353   3.167   2.146
 9222TIP3    H227631   6.413   3.270   2.053
 9223TIP3   OH227632   6.807   0.681   2.028
 9223TIP3    H127633   6.712   0.676   2.019
 9223TIP3    H227634   6.827   0.774   2.013
 9224TIP3   OH227635   5.593   3.380   0.464
 9224TIP3    H127636   5.602   3.428   0.546
 9224TIP3    H227637   5.669   3.321   0.462
 9225TIP3   OH227638   4.499   4.185   4.524
 9225TIP3    H127639   4.486   4.259   4.583
 9225TIP3    H227640   4.554   4.124   4.573
 9226TIP3   OH227641   6.327   2.525   3.021
 9226TIP3    H127642   6.301   2.441   3.058
 9226TIP3    H227643   6.420   2.534   3.043
 9227TIP3   OH227644   1.119   4.501   2.832
 9227TIP3    H127645   1.162   4.575   2.875
 9227TIP3    H227646   1.026   4.523   2.835
 9228TIP3   OH227647   1.298   6.152   1.538
 9228TIP3    H127648   1.289   6.057   1.532
 9228TIP3    H227649   1.362   6.174   1.470
 9229TIP3   OH227650   3.081   5.964   3.176
 9229TIP3    H127651   3.125   5.880   3.190
 9229TIP3    H227652   3.016   5.945   3.108
 9230TIP3   OH227653   2.394   1.372   4.119
 9230TIP3    H127654   2.354   1.293   4.157
 9230TIP3    H227655   2.331   1.442   4.138
 9231TIP3   OH227656   4.374   3.209   1.286
 9231TIP3    H127657   4.356   3.150   1.213
 9231TIP3    H227658   4.294   3.261   1.295
 9232TIP3   OH227659   3.922   5.186   2.474
 9232TIP3    H127660   3.869   5.173   2.396
 9232TIP3    H227661   4.009   5.209   2.441
 9233TIP3   OH227662   2.435   2.832   3.502
 9233TIP3    H127663   2.368   2.889   3.465
 9233TIP3    H227664   2.518   2.874   3.480
 9234TIP3   OH227665   1.298   0.894   0.053
 9234TIP3    H127666   1.391   0.880   0.034
 9234TIP3    H227667   1.297   0.941   0.136
 9235TIP3   OH227668   4.298   1.908   2.433
 9235TIP3    H127669   4.382   1.867   2.457
 9235TIP3    H227670   4.318   2.001   2.423
 9236TIP3   OH227671   6.439  -0.007   5.750
 9236TIP3    H127672   6.410  -0.088   5.791
 9236TIP3    H227673   6.385   0.061   5.790
 9237TIP3   OH227674   1.121   1.410   2.756
 9237TIP3    H127675   1.203   1.382   2.716
 9237TIP3    H227676   1.143   1.426   2.848
 9238TIP3   OH227677   2.119   6.129   0.625
 9238TIP3    H127678   2.036   6.083   0.615
 9238TIP3    H227679   2.123   6.188   0.550
 9239TIP3   OH227680   3.857   2.925   0.760
 9239TIP3    H127681   3.845   2.835   0.790
 9239TIP3    H227682   3.771   2.952   0.728
 9240TIP3   OH227683   2.823   0.031   2.862
 9240TIP3    H127684   2.746   0.052   2.810
 9240TIP3    H227685   2.797  -0.046   2.914
 9241TIP3   OH227686   2.146   1.999   2.950
 9241TIP3    H127687   2.178   1.952   2.873
 9241TIP3    H227688   2.077   2.056   2.917
 9242TIP3   OH227689   1.988   5.558   3.375
 9242TIP3    H127690   1.912   5.511   3.343
 9242TIP3    H227691   2.016   5.510   3.453
 9243TIP3   OH227692   3.843   5.557   3.863
 9243TIP3    H127693   3.905   5.485   3.851
 9243TIP3    H227694   3.854   5.583   3.955
 9244TIP3   OH227695   3.342   3.744   5.682
 9244TIP3    H127696   3.296   3.822   5.650
 9244TIP3    H227697   3.296   3.720   5.762
 9245TIP3   OH227698   5.980   1.091   4.399
 9245TIP3    H127699   6.026   1.169   4.432
 9245TIP3    H227700   5.917   1.125   4.335
 9246TIP3   OH227701   7.063   5.541   1.242
 9246TIP3    H127702   7.092   5.521   1.153
 9246TIP3    H227703   7.017   5.624   1.234
 9247TIP3   OH227704   4.376   1.207   2.602
 9247TIP3    H127705   4.451   1.264   2.582
 9247TIP3    H227706   4.300   1.257   2.574
 9248TIP3   OH227707   3.611   3.314   5.543
 9248TIP3    H127708   3.612   3.219   5.555
 9248TIP3    H227709   3.518   3.337   5.543
 9249TIP3   OH227710   2.176   4.596   2.053
 9249TIP3    H127711   2.247   4.614   2.114
 9249TIP3    H227712   2.220   4.564   1.974
 9250TIP3   OH227713   3.418   4.026   4.486
 9250TIP3    H127714   3.471   4.104   4.474
 9250TIP3    H227715   3.341   4.041   4.431
 9251TIP3   OH227716   7.002   6.243   3.461
 9251TIP3    H127717   7.054   6.323   3.447
 9251TIP3    H227718   6.913   6.274   3.478
 9252TIP3   OH227719   0.445   3.521   4.260
 9252TIP3    H127720   0.380   3.502   4.327
 9252TIP3    H227721   0.440   3.447   4.199
 9253TIP3   OH227722   0.448   5.755   3.488
 9253TIP3    H127723   0.363   5.717   3.464
 9253TIP3    H227724   0.452   5.746   3.583
 9254TIP3   OH227725   5.136   5.719   4.472
 9254TIP3    H127726   5.043   5.710   4.493
 9254TIP3    H227727   5.176   5.638   4.505
 9255TIP3   OH227728   0.198   0.026   3.303
 9255TIP3    H127729   0.280   0.011   3.350
 9255TIP3    H227730   0.187  -0.051   3.248
 9256TIP3   OH227731   3.788   5.322   4.868
 9256TIP3    H127732   3.841   5.247   4.895
 9256TIP3    H227733   3.756   5.299   4.781
 9257TIP3   OH227734   0.424   2.494   0.955
 9257TIP3    H127735   0.348   2.438   0.966
 9257TIP3    H227736   0.420   2.556   1.028
 9258TIP3   OH227737   1.484   2.023   4.830
 9258TIP3    H127738   1.476   2.086   4.758
 9258TIP3    H227739   1.505   2.078   4.906
 9259TIP3   OH227740   3.723   0.888   0.976
 9259TIP3    H127741   3.710   0.878   0.882
 9259TIP3    H227742   3.635   0.909   1.010
 9260TIP3   OH227743   6.334   2.026   2.574
 9260TIP3    H127744   6.244   2.000   2.595
 9260TIP3    H227745   6.326   2.117   2.544
 9261TIP3   OH227746   3.915   1.030   0.402
 9261TIP3    H127747   3.930   1.122   0.378
 9261TIP3    H227748   3.828   1.010   0.366
 9262TIP3   OH227749   6.291   0.367   3.403
 9262TIP3    H127750   6.305   0.433   3.472
 9262TIP3    H227751   6.248   0.294   3.448
 9263TIP3   OH227752   4.238   2.961   1.436
 9263TIP3    H127753   4.327   2.965   1.399
 9263TIP3    H227754   4.247   2.999   1.523
 9264TIP3   OH227755   6.600   5.614   2.864
 9264TIP3    H127756   6.649   5.532   2.862
 9264TIP3    H227757   6.626   5.655   2.947
 9265TIP3   OH227758   3.144   5.124   0.581
 9265TIP3    H127759   3.112   5.113   0.492
 9265TIP3    H227760   3.228   5.170   0.571
 9266TIP3   OH227761   1.049   6.054   1.921
 9266TIP3    H127762   1.068   6.130   1.865
 9266TIP3    H227763   1.107   6.065   1.997
 9267TIP3   OH227764   6.643   6.651   3.360
 9267TIP3    H127765   6.679   6.619   3.278
 9267TIP3    H227766   6.574   6.712   3.333
 9268TIP3   OH227767   1.135   4.324   4.439
 9268TIP3    H127768   1.103   4.287   4.521
 9268TIP3    H227769   1.223   4.287   4.429
 9269TIP3   OH227770   6.291   0.949   2.944
 9269TIP3    H127771   6.348   0.931   2.869
 9269TIP3    H227772   6.340   0.916   3.020
 9270TIP3   OH227773   2.276   4.451   4.089
 9270TIP3    H127774   2.294   4.367   4.047
 9270TIP3    H227775   2.191   4.478   4.054
 9271TIP3   OH227776   0.096   4.440   4.657
 9271TIP3    H127777   0.122   4.348   4.656
 9271TIP3    H227778   0.123   4.471   4.743
 9272TIP3   OH227779   2.792   6.648   2.762
 9272TIP3    H127780   2.830   6.565   2.789
 9272TIP3    H227781   2.699   6.641   2.786
 9273TIP3   OH227782   4.988   5.900   4.782
 9273TIP3    H127783   5.062   5.862   4.829
 9273TIP3    H227784   4.915   5.897   4.843
 9274TIP3   OH227785   4.233   1.126   1.915
 9274TIP3    H127786   4.292   1.051   1.908
 9274TIP3    H227787   4.212   1.149   1.824
 9275TIP3   OH227788   1.926   0.388   2.145
 9275TIP3    H127789   1.877   0.467   2.167
 9275TIP3    H227790   1.871   0.344   2.080
 9276TIP3   OH227791   4.215   0.303   5.847
 9276TIP3    H127792   4.283   0.247   5.884
 9276TIP3    H227793   4.250   0.392   5.853
 9277TIP3   OH227794   2.619   2.033   2.473
 9277TIP3    H127795   2.694   2.011   2.528
 9277TIP3    H227796   2.599   2.124   2.495
 9278TIP3   OH227797   6.620   3.536   3.638
 9278TIP3    H127798   6.588   3.529   3.728
 9278TIP3    H227799   6.657   3.624   3.632
 9279TIP3   OH227800   5.298   5.473   4.580
 9279TIP3    H127801   5.216   5.427   4.596
 9279TIP3    H227802   5.360   5.404   4.555
 9280TIP3   OH227803   5.716   1.287   0.399
 9280TIP3    H127804   5.666   1.362   0.366
 9280TIP3    H227805   5.696   1.285   0.493
 9281TIP3   OH227806   4.823   2.858   2.759
 9281TIP3    H127807   4.838   2.779   2.811
 9281TIP3    H227808   4.886   2.852   2.687
 9282TIP3   OH227809   0.832   0.191   2.117
 9282TIP3    H127810   0.773   0.249   2.068
 9282TIP3    H227811   0.816   0.104   2.080
 9283TIP3   OH227812   6.064   6.805   1.101
 9283TIP3    H127813   6.146   6.755   1.106
 9283TIP3    H227814   6.003   6.757   1.156
 9284TIP3   OH227815   3.336   1.271   5.638
 9284TIP3    H127816   3.398   1.199   5.643
 9284TIP3    H227817   3.354   1.314   5.554
 9285TIP3   OH227818   6.961   0.587   4.723
 9285TIP3    H127819   6.945   0.635   4.642
 9285TIP3    H227820   6.911   0.506   4.714
 9286TIP3   OH227821   5.818   6.236   2.417
 9286TIP3    H127822   5.873   6.254   2.342
 9286TIP3    H227823   5.878   6.226   2.490
 9287TIP3   OH227824   1.065   3.634   2.437
 9287TIP3    H127825   1.041   3.544   2.414
 9287TIP3    H227826   1.159   3.631   2.451
 9288TIP3   OH227827   5.815   1.009   0.399
 9288TIP3    H127828   5.856   0.990   0.314
 9288TIP3    H227829   5.772   1.094   0.386
 9289TIP3   OH227830   7.008   1.162   2.979
 9289TIP3    H127831   6.934   1.115   2.941
 9289TIP3    H227832   7.074   1.163   2.910
 9290TIP3   OH227833   2.696   4.190   1.423
 9290TIP3    H127834   2.764   4.133   1.460
 9290TIP3    H227835   2.724   4.278   1.445
 9291TIP3   OH227836   7.066   4.327   1.217
 9291TIP3    H127837   6.992   4.376   1.253
 9291TIP3    H227838   7.081   4.367   1.131
 9292TIP3   OH227839   6.420   6.287   0.949
 9292TIP3    H127840   6.418   6.203   0.904
 9292TIP3    H227841   6.399   6.266   1.040
 9293TIP3   OH227842   4.394   1.844   4.139
 9293TIP3    H127843   4.326   1.879   4.082
 9293TIP3    H227844   4.355   1.766   4.179
 9294TIP3   OH227845   3.097   2.782   1.578
 9294TIP3    H127846   3.054   2.830   1.507
 9294TIP3    H227847   3.129   2.702   1.537
 9295TIP3   OH227848   1.743   3.721   5.675
 9295TIP3    H127849   1.724   3.696   5.585
 9295TIP3    H227850   1.722   3.643   5.727
 9296TIP3   OH227851   1.826   2.536   2.920
 9296TIP3    H127852   1.803   2.589   2.996
 9296TIP3    H227853   1.848   2.450   2.956
 9297TIP3   OH227854   3.375   6.564   2.023
 9297TIP3    H127855   3.357   6.478   1.986
 9297TIP3    H227856   3.330   6.625   1.965
 9298TIP3   OH227857   6.871   3.953   5.153
 9298TIP3    H127858   6.950   3.922   5.197
 9298TIP3    H227859   6.903   4.022   5.094
 9299TIP3   OH227860   5.968   2.488   5.807
 9299TIP3    H127861   5.887   2.536   5.823
 9299TIP3    H227862   5.951   2.440   5.726
 9300TIP3   OH227863   2.864   5.837   2.596
 9300TIP3    H127864   2.802   5.819   2.667
 9300TIP3    H227865   2.923   5.903   2.631
 9301TIP3   OH227866   3.688   3.899   1.238
 9301TIP3    H127867   3.706   3.970   1.176
 9301TIP3    H227868   3.708   3.819   1.190
 9302TIP3   OH227869   6.954   2.537   2.159
 9302TIP3    H127870   6.865   2.559   2.131
 9302TIP3    H227871   6.992   2.620   2.187
 9303TIP3   OH227872   2.990   1.509   3.665
 9303TIP3    H127873   2.903   1.471   3.679
 9303TIP3    H227874   3.019   1.471   3.582
 9304TIP3   OH227875   6.970   5.941   3.546
 9304TIP3    H127876   6.987   5.956   3.639
 9304TIP3    H227877   7.018   6.010   3.501
 9305TIP3   OH227878   5.436   4.253   1.788
 9305TIP3    H127879   5.458   4.165   1.819
 9305TIP3    H227880   5.519   4.299   1.784
 9306TIP3   OH227881   5.701   3.390   4.216
 9306TIP3    H127882   5.616   3.353   4.192
 9306TIP3    H227883   5.760   3.362   4.146
 9307TIP3   OH227884   0.553   2.225   2.479
 9307TIP3    H127885   0.636   2.193   2.513
 9307TIP3    H227886   0.550   2.193   2.388
 9308TIP3   OH227887   6.443   4.216   1.003
 9308TIP3    H127888   6.503   4.143   0.987
 9308TIP3    H227889   6.392   4.190   1.079
 9309TIP3   OH227890   6.184   6.145   4.843
 9309TIP3    H127891   6.169   6.060   4.883
 9309TIP3    H227892   6.132   6.143   4.762
 9310TIP3   OH227893   0.986   1.402   1.965
 9310TIP3    H127894   0.945   1.407   2.051
 9310TIP3    H227895   0.942   1.470   1.914
 9311TIP3   OH227896   0.369   4.373   3.277
 9311TIP3    H127897   0.359   4.443   3.212
 9311TIP3    H227898   0.412   4.416   3.351
 9312TIP3   OH227899   2.721   3.753   4.145
 9312TIP3    H127900   2.799   3.700   4.160
 9312TIP3    H227901   2.748   3.817   4.080
 9313TIP3   OH227902   5.493   0.192   1.856
 9313TIP3    H127903   5.453   0.160   1.774
 9313TIP3    H227904   5.584   0.208   1.833
 9314TIP3   OH227905   2.491   6.015   3.937
 9314TIP3    H127906   2.416   6.073   3.949
 9314TIP3    H227907   2.454   5.929   3.922
 9315TIP3   OH227908   0.146   1.953   5.725
 9315TIP3    H127909   0.070   1.945   5.667
 9315TIP3    H227910   0.113   1.925   5.811
 9316TIP3   OH227911   5.594   5.125   0.760
 9316TIP3    H127912   5.541   5.062   0.712
 9316TIP3    H227913   5.635   5.179   0.691
 9317TIP3   OH227914   1.945   4.832   1.750
 9317TIP3    H127915   2.031   4.867   1.772
 9317TIP3    H227916   1.962   4.742   1.722
 9318TIP3   OH227917   1.315   3.301   2.974
 9318TIP3    H127918   1.402   3.340   2.964
 9318TIP3    H227919   1.315   3.227   2.914
 9319TIP3   OH227920   0.441   3.081   4.937
 9319TIP3    H127921   0.455   3.017   4.868
 9319TIP3    H227922   0.379   3.039   4.997
 9320TIP3   OH227923   4.867   6.789   0.750
 9320TIP3    H127924   4.894   6.840   0.826
 9320TIP3    H227925   4.907   6.703   0.763
 9321TIP3   OH227926   1.690   0.810   3.795
 9321TIP3    H127927   1.772   0.835   3.837
 9321TIP3    H227928   1.628   0.800   3.867
 9322TIP3   OH227929   3.789   2.232   2.619
 9322TIP3    H127930   3.872   2.261   2.658
 9322TIP3    H227931   3.734   2.310   2.618
 9323TIP3   OH227932   0.485   5.145   3.192
 9323TIP3    H127933   0.476   5.167   3.284
 9323TIP3    H227934   0.399   5.115   3.165
 9324TIP3   OH227935   1.078   3.003   2.930
 9324TIP3    H127936   1.018   3.034   2.998
 9324TIP3    H227937   1.165   3.008   2.971
 9325TIP3   OH227938   0.100   0.916   0.648
 9325TIP3    H127939   0.187   0.893   0.680
 9325TIP3    H227940   0.043   0.847   0.682
 9326TIP3   OH227941   5.536   0.632   0.045
 9326TIP3    H127942   5.571   0.642  -0.043
 9326TIP3    H227943   5.567   0.546   0.074
 9327TIP3   OH227944   3.199   6.712   5.191
 9327TIP3    H127945   3.170   6.778   5.128
 9327TIP3    H227946   3.290   6.736   5.210
 9328TIP3   OH227947   0.757   5.344   3.351
 9328TIP3    H127948   0.820   5.278   3.320
 9328TIP3    H227949   0.709   5.370   3.272
 9329TIP3   OH227950   4.717   1.034   2.837
 9329TIP3    H127951   4.644   1.094   2.852
 9329TIP3    H227952   4.795   1.091   2.836
 9330TIP3   OH227953   3.504   5.773   4.293
 9330TIP3    H127954   3.454   5.709   4.344
 9330TIP3    H227955   3.456   5.782   4.211
 9331TIP3   OH227956   5.753   6.105   3.633
 9331TIP3    H127957   5.751   6.174   3.700
 9331TIP3    H227958   5.802   6.143   3.560
 9332TIP3   OH227959   4.578   6.200   2.352
 9332TIP3    H127960   4.599   6.251   2.431
 9332TIP3    H227961   4.640   6.232   2.286
 9333TIP3   OH227962   2.295   6.204   2.284
 9333TIP3    H127963   2.384   6.197   2.247
 9333TIP3    H227964   2.273   6.297   2.277
 9334TIP3   OH227965   1.099   3.559   5.610
 9334TIP3    H127966   1.014   3.519   5.592
 9334TIP3    H227967   1.132   3.511   5.686
 9335TIP3   OH227968   0.630   3.428   1.292
 9335TIP3    H127969   0.597   3.495   1.232
 9335TIP3    H227970   0.724   3.443   1.295
 9336TIP3   OH227971   3.347   0.670   4.251
 9336TIP3    H127972   3.397   0.647   4.330
 9336TIP3    H227973   3.370   0.761   4.234
 9337TIP3   OH227974   3.872   2.268   4.450
 9337TIP3    H127975   3.915   2.194   4.492
 9337TIP3    H227976   3.778   2.253   4.465
 9338TIP3   OH227977   1.008   1.992   0.527
 9338TIP3    H127978   1.020   1.922   0.591
 9338TIP3    H227979   1.059   2.066   0.562
 9339TIP3   OH227980   1.224   4.793   0.827
 9339TIP3    H127981   1.132   4.767   0.823
 9339TIP3    H227982   1.222   4.884   0.856
 9340TIP3   OH227983   1.795   5.482   1.705
 9340TIP3    H127984   1.852   5.467   1.630
 9340TIP3    H227985   1.734   5.408   1.705
 9341TIP3   OH227986   2.336   2.449   1.645
 9341TIP3    H127987   2.406   2.500   1.685
 9341TIP3    H227988   2.290   2.511   1.589
 9342TIP3   OH227989   3.886   1.092   5.592
 9342TIP3    H127990   3.882   1.021   5.529
 9342TIP3    H227991   3.938   1.058   5.664
 9343TIP3   OH227992   2.346   2.179   1.731
 9343TIP3    H127993   2.418   2.241   1.738
 9343TIP3    H227994   2.280   2.224   1.678
 9344TIP3   OH227995   1.744   4.140   1.940
 9344TIP3    H127996   1.830   4.115   1.906
 9344TIP3    H227997   1.689   4.149   1.862
 9345TIP3   OH227998   0.064   5.617   4.340
 9345TIP3    H127999  -0.002   5.629   4.272
 9345TIP3    H228000   0.063   5.523   4.358
 9346TIP3   OH228001   2.632   6.233   3.078
 9346TIP3    H128002   2.663   6.323   3.076
 9346TIP3    H228003   2.684   6.188   3.012
 9347TIP3   OH228004   0.898   4.359   1.043
 9347TIP3    H128005   0.914   4.322   0.957
 9347TIP3    H228006   0.974   4.334   1.095
 9348TIP3   OH228007   2.171   5.178   0.006
 9348TIP3    H128008   2.257   5.147   0.032
 9348TIP3    H228009   2.147   5.242   0.074
 9349TIP3   OH228010   5.992   3.054   1.990
 9349TIP3    H128011   5.984   3.000   2.068
 9349TIP3    H228012   6.059   3.119   2.012
 9350TIP3   OH228013   3.241   0.367   2.077
 9350TIP3    H128014   3.237   0.296   2.141
 9350TIP3    H228015   3.267   0.324   1.996
 9351TIP3   OH228016   1.672   6.549   4.220
 9351TIP3    H128017   1.690   6.499   4.141
 9351TIP3    H228018   1.666   6.483   4.289
 9352TIP3   OH228019   4.519   1.769   4.612
 9352TIP3    H128020   4.573   1.847   4.605
 9352TIP3    H228021   4.432   1.802   4.636
 9353TIP3   OH228022   0.263   2.671   0.804
 9353TIP3    H128023   0.337   2.689   0.862
 9353TIP3    H228024   0.282   2.584   0.768
 9354TIP3   OH228025   5.072   0.528   5.434
 9354TIP3    H128026   4.993   0.503   5.481
 9354TIP3    H228027   5.090   0.618   5.463
 9355TIP3   OH228028   6.255   3.292   4.146
 9355TIP3    H128029   6.322   3.303   4.214
 9355TIP3    H228030   6.172   3.292   4.194
 9356TIP3   OH228031   1.872   1.230   2.342
 9356TIP3    H128032   1.964   1.206   2.338
 9356TIP3    H228033   1.845   1.239   2.251
 9357TIP3   OH228034   5.427   2.308   0.684
 9357TIP3    H128035   5.425   2.403   0.701
 9357TIP3    H228036   5.498   2.275   0.738
 9358TIP3   OH228037   0.709   3.821   4.015
 9358TIP3    H128038   0.628   3.778   3.987
 9358TIP3    H228039   0.694   3.843   4.106
 9359TIP3   OH228040   0.087   1.949   4.169
 9359TIP3    H128041   0.104   1.909   4.254
 9359TIP3    H228042   0.069   2.041   4.189
 9360TIP3   OH228043   2.565   2.060   2.193
 9360TIP3    H128044   2.487   2.116   2.186
 9360TIP3    H228045   2.580   2.052   2.287
 9361TIP3   OH228046   2.394   3.090   1.328
 9361TIP3    H128047   2.324   3.080   1.264
 9361TIP3    H228048   2.435   3.003   1.331
 9362TIP3   OH228049   4.999   6.198   4.192
 9362TIP3    H128050   4.982   6.112   4.154
 9362TIP3    H228051   5.022   6.253   4.118
 9363TIP3   OH228052   3.711   2.633   3.286
 9363TIP3    H128053   3.741   2.724   3.285
 9363TIP3    H228054   3.790   2.581   3.274
 9364TIP3   OH228055   1.076   5.673   4.824
 9364TIP3    H128056   1.034   5.670   4.909
 9364TIP3    H228057   1.015   5.720   4.767
 9365TIP3   OH228058   1.369   4.210   3.005
 9365TIP3    H128059   1.279   4.180   2.990
 9365TIP3    H228060   1.366   4.304   2.990
 9366TIP3   OH228061   1.307   3.863   5.355
 9366TIP3    H128062   1.324   3.827   5.442
 9366TIP3    H228063   1.233   3.813   5.322
 9367TIP3   OH228064   1.780   3.877   5.129
 9367TIP3    H128065   1.765   3.957   5.180
 9367TIP3    H228066   1.734   3.893   5.047
 9368TIP3   OH228067   4.534   3.766   2.169
 9368TIP3    H128068   4.513   3.682   2.211
 9368TIP3    H228069   4.516   3.751   2.076
 9369TIP3   OH228070   3.448   3.513   3.502
 9369TIP3    H128071   3.505   3.585   3.475
 9369TIP3    H228072   3.387   3.553   3.564
 9370TIP3   OH228073   5.250   5.638   2.150
 9370TIP3    H128074   5.258   5.718   2.098
 9370TIP3    H228075   5.333   5.592   2.135
 9371TIP3   OH228076   5.913   4.673   5.169
 9371TIP3    H128077   5.962   4.755   5.164
 9371TIP3    H228078   5.976   4.610   5.205
 9372TIP3   OH228079   0.109   3.648   1.436
 9372TIP3    H128080   0.088   3.638   1.529
 9372TIP3    H228081   0.066   3.729   1.410
 9373TIP3   OH228082   5.068   6.291   1.499
 9373TIP3    H128083   5.149   6.322   1.457
 9373TIP3    H228084   5.013   6.369   1.504
 9374TIP3   OH228085   3.797   3.185   0.177
 9374TIP3    H128086   3.822   3.114   0.118
 9374TIP3    H228087   3.725   3.149   0.228
 9375TIP3   OH228088   3.737   4.689   2.812
 9375TIP3    H128089   3.678   4.725   2.747
 9375TIP3    H228090   3.734   4.752   2.885
 9376TIP3   OH228091   1.138   0.383   1.525
 9376TIP3    H128092   1.124   0.418   1.437
 9376TIP3    H228093   1.050   0.376   1.563
 9377TIP3   OH228094   6.413   5.118   0.920
 9377TIP3    H128095   6.322   5.145   0.915
 9377TIP3    H228096   6.419   5.039   0.867
 9378TIP3   OH228097   6.037   3.017   5.116
 9378TIP3    H128098   6.107   2.970   5.161
 9378TIP3    H228099   6.006   3.082   5.180
 9379TIP3   OH228100   6.494   1.630   5.891
 9379TIP3    H128101   6.453   1.634   5.977
 9379TIP3    H228102   6.519   1.720   5.872
 9380TIP3   OH228103   0.091   3.659   2.666
 9380TIP3    H128104   0.106   3.752   2.651
 9380TIP3    H228105   0.141   3.639   2.746
 9381TIP3   OH228106   6.893   4.232   5.007
 9381TIP3    H128107   6.967   4.292   5.016
 9381TIP3    H228108   6.818   4.284   5.035
 9382TIP3   OH228109   6.049   0.280   1.966
 9382TIP3    H128110   6.036   0.365   1.925
 9382TIP3    H228111   6.056   0.299   2.060
 9383TIP3   OH228112   2.027   4.095   0.195
 9383TIP3    H128113   2.040   4.024   0.132
 9383TIP3    H228114   1.933   4.092   0.213
 9384TIP3   OH228115   5.948   2.736   0.164
 9384TIP3    H128116   5.953   2.822   0.122
 9384TIP3    H228117   5.931   2.755   0.256
 9385TIP3   OH228118   7.180   5.531   1.731
 9385TIP3    H128119   7.254   5.575   1.772
 9385TIP3    H228120   7.114   5.599   1.723
 9386TIP3   OH228121   6.449   4.710   1.032
 9386TIP3    H128122   6.414   4.781   1.085
 9386TIP3    H228123   6.484   4.647   1.095
 9387TIP3   OH228124   2.010   2.459   1.162
 9387TIP3    H128125   1.940   2.415   1.210
 9387TIP3    H228126   1.973   2.544   1.137
 9388TIP3   OH228127   4.006   1.362   3.004
 9388TIP3    H128128   4.006   1.458   2.994
 9388TIP3    H228129   3.949   1.331   2.934
 9389TIP3   OH228130   5.911   6.548   3.882
 9389TIP3    H128131   5.907   6.573   3.974
 9389TIP3    H228132   5.823   6.567   3.848
 9390TIP3   OH228133   1.910   5.935   0.540
 9390TIP3    H128134   1.842   5.942   0.474
 9390TIP3    H228135   1.891   5.854   0.587
 9391TIP3   OH228136   5.854   1.316   4.739
 9391TIP3    H128137   5.830   1.238   4.687
 9391TIP3    H228138   5.771   1.356   4.762
 9392TIP3   OH228139   1.500   6.703   2.671
 9392TIP3    H128140   1.585   6.690   2.630
 9392TIP3    H228141   1.520   6.734   2.759
 9393TIP3   OH228142   3.996   5.171   1.083
 9393TIP3    H128143   3.929   5.194   1.019
 9393TIP3    H228144   3.948   5.152   1.163
 9394TIP3   OH228145   0.640   0.866   1.108
 9394TIP3    H128146   0.617   0.854   1.200
 9394TIP3    H228147   0.559   0.897   1.067
 9395TIP3   OH228148   2.624   4.561   2.584
 9395TIP3    H128149   2.692   4.498   2.609
 9395TIP3    H228150   2.545   4.508   2.576
 9396TIP3   OH228151   0.318   2.859   3.457
 9396TIP3    H128152   0.264   2.782   3.440
 9396TIP3    H228153   0.341   2.892   3.371
 9397TIP3   OH228154   1.524   3.875   2.129
 9397TIP3    H128155   1.487   3.954   2.090
 9397TIP3    H228156   1.532   3.813   2.056
 9398TIP3   OH228157   1.065   1.590   2.177
 9398TIP3    H128158   1.048   1.627   2.091
 9398TIP3    H228159   1.156   1.561   2.172
 9399TIP3   OH228160   4.589   6.060   1.508
 9399TIP3    H128161   4.659   6.011   1.465
 9399TIP3    H228162   4.534   6.091   1.437
 9400TIP3   OH228163   4.015   6.684   4.584
 9400TIP3    H128164   3.938   6.642   4.547
 9400TIP3    H228165   4.079   6.682   4.513
 9401TIP3   OH228166   4.573   4.366   4.146
 9401TIP3    H128167   4.565   4.458   4.121
 9401TIP3    H228168   4.663   4.343   4.126
 9402TIP3   OH228169   1.181   2.029   1.205
 9402TIP3    H128170   1.111   1.980   1.163
 9402TIP3    H228171   1.174   2.008   1.298
 9403TIP3   OH228172   3.643   3.716   5.166
 9403TIP3    H128173   3.627   3.651   5.234
 9403TIP3    H228174   3.581   3.786   5.184
 9404TIP3   OH228175   0.560   1.255   2.731
 9404TIP3    H128176   0.543   1.189   2.798
 9404TIP3    H228177   0.655   1.260   2.725
 9405TIP3   OH228178   0.418  -0.017   4.124
 9405TIP3    H128179   0.341   0.023   4.163
 9405TIP3    H228180   0.412   0.006   4.031
 9406TIP3   OH228181   3.897   6.356   4.340
 9406TIP3    H128182   3.813   6.332   4.301
 9406TIP3    H228183   3.875   6.418   4.409
 9407TIP3   OH228184   5.696   6.242   0.921
 9407TIP3    H128185   5.695   6.306   0.993
 9407TIP3    H228186   5.788   6.237   0.895
 9408TIP3   OH228187   3.678   6.261   4.201
 9408TIP3    H128188   3.647   6.351   4.206
 9408TIP3    H228189   3.655   6.233   4.113
 9409TIP3   OH228190   5.559   1.823   2.296
 9409TIP3    H128191   5.481   1.829   2.242
 9409TIP3    H228192   5.619   1.768   2.246
 9410TIP3   OH228193   1.619   0.299   2.334
 9410TIP3    H128194   1.645   0.245   2.260
 9410TIP3    H228195   1.559   0.364   2.297
 9411TIP3   OH228196   0.473   0.183   2.268
 9411TIP3    H128197   0.462   0.245   2.196
 9411TIP3    H228198   0.551   0.212   2.314
 9412TIP3   OH228199   6.704   0.340   3.817
 9412TIP3    H128200   6.661   0.361   3.735
 9412TIP3    H228201   6.772   0.407   3.828
 9413TIP3   OH228202   5.691   0.032   3.356
 9413TIP3    H128203   5.741   0.052   3.277
 9413TIP3    H228204   5.601   0.024   3.326
 9414TIP3   OH228205   4.266   3.682   2.555
 9414TIP3    H128206   4.309   3.753   2.603
 9414TIP3    H228207   4.335   3.620   2.535
 9415TIP3   OH228208   1.000   4.540   5.368
 9415TIP3    H128209   1.036   4.563   5.282
 9415TIP3    H228210   0.910   4.512   5.349
 9416TIP3   OH228211   4.502   0.830   1.466
 9416TIP3    H128212   4.497   0.903   1.405
 9416TIP3    H228213   4.552   0.864   1.540
 9417TIP3   OH228214   1.549   2.702   3.064
 9417TIP3    H128215   1.641   2.721   3.080
 9417TIP3    H228216   1.550   2.640   2.991
 9418TIP3   OH228217   0.312   5.215   3.739
 9418TIP3    H128218   0.251   5.154   3.699
 9418TIP3    H228219   0.302   5.202   3.833
 9419TIP3   OH228220   6.981   5.450   4.344
 9419TIP3    H128221   7.043   5.382   4.319
 9419TIP3    H228222   6.956   5.428   4.434
 9420TIP3   OH228223   4.570   5.727   5.850
 9420TIP3    H128224   4.655   5.705   5.812
 9420TIP3    H228225   4.521   5.644   5.847
 9421TIP3   OH228226   1.091   4.227   2.947
 9421TIP3    H128227   1.075   4.306   2.896
 9421TIP3    H228228   1.098   4.258   3.038
 9422TIP3   OH228229   6.860   1.124   2.589
 9422TIP3    H128230   6.825   1.163   2.509
 9422TIP3    H228231   6.832   1.184   2.659
 9423TIP3   OH228232   6.204   6.276   4.280
 9423TIP3    H128233   6.241   6.277   4.192
 9423TIP3    H228234   6.160   6.191   4.287
 9424TIP3   OH228235   6.068   0.746   2.924
 9424TIP3    H128236   6.073   0.697   3.006
 9424TIP3    H228237   6.102   0.833   2.947
 9425TIP3   OH228238   2.097   2.661   5.755
 9425TIP3    H128239   2.121   2.573   5.725
 9425TIP3    H228240   2.124   2.718   5.683
 9426TIP3   OH228241   5.845   2.960   4.722
 9426TIP3    H128242   5.809   2.871   4.721
 9426TIP3    H228243   5.940   2.947   4.721
 9427TIP3   OH228244   4.569   5.397   2.889
 9427TIP3    H128245   4.590   5.323   2.945
 9427TIP3    H228246   4.493   5.438   2.930
 9428TIP3   OH228247   4.775   6.339   1.075
 9428TIP3    H128248   4.737   6.261   1.116
 9428TIP3    H228249   4.824   6.306   1.000
 9429TIP3   OH228250   5.315   4.246   4.274
 9429TIP3    H128251   5.387   4.234   4.336
 9429TIP3    H228252   5.312   4.164   4.225
 9430TIP3   OH228253   4.631   0.167   3.123
 9430TIP3    H128254   4.554   0.221   3.107
 9430TIP3    H228255   4.632   0.154   3.218
 9431TIP3   OH228256   1.405   1.235   5.231
 9431TIP3    H128257   1.309   1.231   5.240
 9431TIP3    H228258   1.428   1.157   5.181
 9432TIP3   OH228259   6.001   2.077   0.177
 9432TIP3    H128260   6.081   2.129   0.175
 9432TIP3    H228261   5.951   2.113   0.251
 9433TIP3   OH228262   6.897   0.593   0.600
 9433TIP3    H128263   6.826   0.537   0.631
 9433TIP3    H228264   6.863   0.682   0.610
 9434TIP3   OH228265   6.462   3.535   0.188
 9434TIP3    H128266   6.526   3.546   0.259
 9434TIP3    H228267   6.475   3.446   0.157
 9435TIP3   OH228268   1.253   2.425   5.166
 9435TIP3    H128269   1.270   2.499   5.108
 9435TIP3    H228270   1.273   2.348   5.113
 9436TIP3   OH228271   0.547   3.369   3.691
 9436TIP3    H128272   0.517   3.458   3.674
 9436TIP3    H228273   0.467   3.319   3.705
 9437TIP3   OH228274   4.275   0.815   4.781
 9437TIP3    H128275   4.315   0.894   4.816
 9437TIP3    H228276   4.335   0.787   4.711
 9438TIP3   OH228277   5.789   2.300   0.235
 9438TIP3    H128278   5.813   2.352   0.159
 9438TIP3    H228279   5.756   2.217   0.199
 9439TIP3   OH228280   6.551   4.921   1.991
 9439TIP3    H128281   6.551   4.876   2.075
 9439TIP3    H228282   6.607   4.866   1.935
 9440TIP3   OH228283   1.889   3.342   2.194
 9440TIP3    H128284   1.878   3.430   2.158
 9440TIP3    H228285   1.879   3.353   2.289
 9441TIP3   OH228286   7.175   6.721   4.949
 9441TIP3    H128287   7.124   6.706   4.869
 9441TIP3    H228288   7.119   6.780   5.002
 9442TIP3   OH228289   4.703   1.307   3.898
 9442TIP3    H128290   4.687   1.288   3.805
 9442TIP3    H228291   4.616   1.311   3.937
 9443TIP3   OH228292   3.079   5.099   1.882
 9443TIP3    H128293   3.106   5.174   1.936
 9443TIP3    H228294   3.155   5.080   1.828
 9444TIP3   OH228295   0.637   1.894   0.338
 9444TIP3    H128296   0.623   1.799   0.339
 9444TIP3    H228297   0.551   1.931   0.319
 9445TIP3   OH228298   5.627   0.795   1.203
 9445TIP3    H128299   5.584   0.778   1.286
 9445TIP3    H228300   5.671   0.879   1.215
 9446TIP3   OH228301   5.909   0.930   1.453
 9446TIP3    H128302   5.950   0.979   1.382
 9446TIP3    H228303   5.830   0.980   1.474
 9447TIP3   OH228304   6.045   5.347   1.830
 9447TIP3    H128305   6.096   5.372   1.907
 9447TIP3    H228306   6.004   5.264   1.854
 9448TIP3   OH228307   4.089   2.433   3.751
 9448TIP3    H128308   4.181   2.411   3.732
 9448TIP3    H228309   4.065   2.496   3.683
 9449TIP3   OH228310   5.624   5.255   5.540
 9449TIP3    H128311   5.669   5.260   5.624
 9449TIP3    H228312   5.563   5.182   5.550
 9450TIP3   OH228313   0.682   0.131   5.154
 9450TIP3    H128314   0.630   0.162   5.228
 9450TIP3    H228315   0.745   0.201   5.138
 9451TIP3   OH228316   4.195   5.963   3.681
 9451TIP3    H128317   4.246   5.899   3.632
 9451TIP3    H228318   4.261   6.019   3.723
 9452TIP3   OH228319   0.221   3.361   1.430
 9452TIP3    H128320   0.150   3.322   1.480
 9452TIP3    H228321   0.194   3.452   1.417
 9453TIP3   OH228322   2.082   3.048   2.505
 9453TIP3    H128323   2.108   3.131   2.545
 9453TIP3    H228324   1.986   3.055   2.498
 9454TIP3   OH228325   5.938   6.421   5.758
 9454TIP3    H128326   5.908   6.356   5.694
 9454TIP3    H228327   5.874   6.418   5.828
 9455TIP3   OH228328   7.105   2.435   5.639
 9455TIP3    H128329   7.166   2.381   5.590
 9455TIP3    H228330   7.158   2.505   5.676
 9456TIP3   OH228331   4.387   4.686   1.678
 9456TIP3    H128332   4.364   4.672   1.769
 9456TIP3    H228333   4.418   4.601   1.647
 9457TIP3   OH228334   2.500   0.158   4.217
 9457TIP3    H128335   2.438   0.179   4.287
 9457TIP3    H228336   2.586   0.166   4.258
 9458TIP3   OH228337   4.668   2.164   0.042
 9458TIP3    H128338   4.607   2.135   0.109
 9458TIP3    H228339   4.662   2.098  -0.027
 9459TIP3   OH228340   5.649   6.576   1.108
 9459TIP3    H128341   5.675   6.664   1.136
 9459TIP3    H228342   5.670   6.572   1.015
 9460TIP3   OH228343   4.698   2.494   3.330
 9460TIP3    H128344   4.743   2.543   3.262
 9460TIP3    H228345   4.766   2.474   3.395
 9461TIP3   OH228346   2.458   2.133   5.134
 9461TIP3    H128347   2.482   2.081   5.211
 9461TIP3    H228348   2.366   2.157   5.149
 9462TIP3   OH228349   6.988   3.906   5.677
 9462TIP3    H128350   7.027   3.955   5.604
 9462TIP3    H228351   6.997   3.965   5.752
 9463TIP3   OH228352   0.761   2.141   3.522
 9463TIP3    H128353   0.779   2.234   3.537
 9463TIP3    H228354   0.668   2.138   3.499
 9464TIP3   OH228355   2.846   2.589   1.889
 9464TIP3    H128356   2.862   2.679   1.860
 9464TIP3    H228357   2.806   2.599   1.976
 9465TIP3   OH228358   0.111   0.298   2.017
 9465TIP3    H128359   0.162   0.355   1.960
 9465TIP3    H228360   0.137   0.324   2.106
 9466TIP3   OH228361   1.761   3.290   0.700
 9466TIP3    H128362   1.767   3.360   0.635
 9466TIP3    H228363   1.786   3.332   0.783
 9467TIP3   OH228364   0.702   1.306   4.638
 9467TIP3    H128365   0.748   1.250   4.575
 9467TIP3    H228366   0.615   1.318   4.600
 9468TIP3   OH228367   5.826   0.670   3.304
 9468TIP3    H128368   5.811   0.758   3.271
 9468TIP3    H228369   5.908   0.642   3.262
 9469TIP3   OH228370   1.743   2.603   1.399
 9469TIP3    H128371   1.652   2.601   1.428
 9469TIP3    H228372   1.776   2.516   1.420
 9470TIP3   OH228373   3.561   6.592   3.099
 9470TIP3    H128374   3.630   6.586   3.165
 9470TIP3    H228375   3.599   6.644   3.029
 9471TIP3   OH228376   0.369   3.168   2.462
 9471TIP3    H128377   0.443   3.108   2.461
 9471TIP3    H228378   0.360   3.197   2.371
 9472TIP3   OH228379   1.946   2.426   2.596
 9472TIP3    H128380   1.991   2.454   2.675
 9472TIP3    H228381   1.892   2.501   2.570
 9473TIP3   OH228382   4.713   3.602   5.564
 9473TIP3    H128383   4.661   3.543   5.508
 9473TIP3    H228384   4.662   3.609   5.645
 9474TIP3   OH228385   6.698   4.562   0.194
 9474TIP3    H128386   6.631   4.608   0.144
 9474TIP3    H228387   6.653   4.488   0.235
 9475TIP3   OH228388   0.883   5.104   4.683
 9475TIP3    H128389   0.836   5.187   4.690
 9475TIP3    H228390   0.825   5.049   4.630
 9476TIP3   OH228391   3.922   6.123   1.143
 9476TIP3    H128392   3.937   6.040   1.188
 9476TIP3    H228393   4.005   6.171   1.152
 9477TIP3   OH228394   4.319   1.568   4.370
 9477TIP3    H128395   4.359   1.612   4.445
 9477TIP3    H228396   4.354   1.479   4.373
 9478TIP3   OH228397   6.902   3.444   3.506
 9478TIP3    H128398   6.961   3.500   3.455
 9478TIP3    H228399   6.823   3.438   3.453
 9479TIP3   OH228400   5.221   2.744   5.534
 9479TIP3    H128401   5.235   2.746   5.629
 9479TIP3    H228402   5.213   2.650   5.513
 9480TIP3   OH228403   1.100   6.143   4.320
 9480TIP3    H128404   1.068   6.121   4.408
 9480TIP3    H228405   1.095   6.239   4.316
 9481TIP3   OH228406   1.410   2.292   1.664
 9481TIP3    H128407   1.415   2.230   1.591
 9481TIP3    H228408   1.396   2.238   1.741
 9482TIP3   OH228409   0.647   1.982   0.796
 9482TIP3    H128410   0.731   1.998   0.839
 9482TIP3    H228411   0.666   1.990   0.703
 9483TIP3   OH228412   7.000   4.674   4.443
 9483TIP3    H128413   6.951   4.675   4.360
 9483TIP3    H228414   6.936   4.700   4.509
 9484TIP3   OH228415   3.107   3.252   1.516
 9484TIP3    H128416   3.093   3.347   1.514
 9484TIP3    H228417   3.063   3.220   1.437
 9485TIP3   OH228418   5.293   1.437   3.298
 9485TIP3    H128419   5.341   1.517   3.275
 9485TIP3    H228420   5.202   1.465   3.305
 9486TIP3   OH228421   2.304   5.183   0.969
 9486TIP3    H128422   2.322   5.134   1.049
 9486TIP3    H228423   2.239   5.248   0.994
 9487TIP3   OH228424   0.483   1.255   0.612
 9487TIP3    H128425   0.566   1.302   0.608
 9487TIP3    H228426   0.500   1.174   0.565
 9488TIP3   OH228427   4.081   0.571   1.887
 9488TIP3    H128428   4.012   0.635   1.872
 9488TIP3    H228429   4.127   0.565   1.803
 9489TIP3   OH228430   1.496   5.826   5.543
 9489TIP3    H128431   1.443   5.843   5.465
 9489TIP3    H228432   1.520   5.734   5.535
 9490TIP3   OH228433   6.371   4.162   2.047
 9490TIP3    H128434   6.284   4.202   2.039
 9490TIP3    H228435   6.413   4.210   2.119
 9491TIP3   OH228436   2.254   1.527   4.915
 9491TIP3    H128437   2.245   1.534   4.820
 9491TIP3    H228438   2.276   1.435   4.930
 9492TIP3   OH228439   4.864   4.564   2.201
 9492TIP3    H128440   4.886   4.482   2.157
 9492TIP3    H228441   4.944   4.589   2.247
 9493TIP3   OH228442   1.597   3.255   2.969
 9493TIP3    H128443   1.652   3.212   3.034
 9493TIP3    H228444   1.542   3.184   2.934
 9494TIP3   OH228445   4.188   1.097   1.403
 9494TIP3    H128446   4.263   1.089   1.344
 9494TIP3    H228447   4.132   1.163   1.362
 9495TIP3   OH228448   1.467   1.890   0.182
 9495TIP3    H128449   1.483   1.848   0.267
 9495TIP3    H228450   1.391   1.843   0.146
 9496TIP3   OH228451   5.329   0.685   2.568
 9496TIP3    H128452   5.289   0.728   2.492
 9496TIP3    H228453   5.422   0.683   2.547
 9497TIP3   OH228454   1.995   1.300   0.249
 9497TIP3    H128455   1.941   1.237   0.297
 9497TIP3    H228456   1.943   1.324   0.173
 9498TIP3   OH228457   1.806   0.657   5.115
 9498TIP3    H128458   1.817   0.725   5.182
 9498TIP3    H228459   1.711   0.651   5.103
 9499TIP3   OH228460   5.738   0.538   1.156
 9499TIP3    H128461   5.809   0.534   1.091
 9499TIP3    H228462   5.715   0.631   1.160
 9500TIP3   OH228463   2.040   6.635   5.094
 9500TIP3    H128464   2.083   6.648   5.009
 9500TIP3    H228465   1.947   6.649   5.075
 9501TIP3   OH228466   6.673   5.886   2.222
 9501TIP3    H128467   6.604   5.869   2.286
 9501TIP3    H228468   6.754   5.888   2.273
 9502TIP3   OH228469   2.797   2.570   0.879
 9502TIP3    H128470   2.815   2.576   0.973
 9502TIP3    H228471   2.782   2.476   0.864
 9503TIP3   OH228472   6.358   3.272   0.794
 9503TIP3    H128473   6.345   3.230   0.879
 9503TIP3    H228474   6.367   3.365   0.814
 9504TIP3   OH228475   5.090   6.554   1.770
 9504TIP3    H128476   5.039   6.544   1.690
 9504TIP3    H228477   5.044   6.502   1.836
 9505TIP3   OH228478   3.380   3.142   1.099
 9505TIP3    H128479   3.377   3.047   1.099
 9505TIP3    H228480   3.473   3.163   1.089
 9506TIP3   OH228481   2.911   4.413   3.926
 9506TIP3    H128482   2.960   4.341   3.888
 9506TIP3    H228483   2.958   4.436   4.006
 9507TIP3   OH228484   3.755   3.813   5.520
 9507TIP3    H128485   3.804   3.742   5.562
 9507TIP3    H228486   3.807   3.834   5.442
 9508TIP3   OH228487   5.534   2.152   2.648
 9508TIP3    H128488   5.532   2.077   2.588
 9508TIP3    H228489   5.477   2.217   2.606
 9509TIP3   OH228490   2.887   5.716   5.770
 9509TIP3    H128491   2.792   5.730   5.775
 9509TIP3    H228492   2.922   5.801   5.741
 9510TIP3   OH228493   5.284   0.118   0.409
 9510TIP3    H128494   5.359   0.127   0.468
 9510TIP3    H228495   5.221   0.064   0.457
 9511TIP3   OH228496   2.214   4.659   3.278
 9511TIP3    H128497   2.306   4.646   3.253
 9511TIP3    H228498   2.211   4.629   3.369
 9512TIP3   OH228499   1.005   4.682   2.550
 9512TIP3    H128500   0.978   4.754   2.493
 9512TIP3    H228501   0.931   4.622   2.548
 9513TIP3   OH228502   5.480   2.967   1.034
 9513TIP3    H128503   5.416   2.902   1.006
 9513TIP3    H228504   5.457   3.046   0.984
 9514TIP3   OH228505   2.687   2.425   2.735
 9514TIP3    H128506   2.690   2.516   2.707
 9514TIP3    H228507   2.644   2.427   2.820
 9515TIP3   OH228508   3.139   2.646   1.026
 9515TIP3    H128509   3.205   2.715   1.031
 9515TIP3    H228510   3.060   2.685   1.064
 9516TIP3   OH228511   5.116   6.009   2.584
 9516TIP3    H128512   5.078   6.092   2.609
 9516TIP3    H228513   5.158   6.025   2.499
 9517TIP3   OH228514   2.067   0.726   3.399
 9517TIP3    H128515   2.126   0.652   3.411
 9517TIP3    H228516   1.991   0.705   3.454
 9518TIP3   OH228517   4.703   5.507   3.627
 9518TIP3    H128518   4.748   5.507   3.711
 9518TIP3    H228519   4.610   5.496   3.650
 9519TIP3   OH228520   3.667   0.750   0.741
 9519TIP3    H128521   3.626   0.746   0.655
 9519TIP3    H228522   3.641   0.668   0.784
 9520TIP3   OH228523   7.013   1.754   0.418
 9520TIP3    H128524   7.097   1.799   0.431
 9520TIP3    H228525   6.947   1.816   0.450
 9521TIP3   OH228526   1.174   4.814   1.938
 9521TIP3    H128527   1.090   4.770   1.955
 9521TIP3    H228528   1.156   4.872   1.864
 9522TIP3   OH228529   4.481   2.838   0.602
 9522TIP3    H128530   4.422   2.868   0.533
 9522TIP3    H228531   4.485   2.743   0.593
 9523TIP3   OH228532   1.322   5.781   4.043
 9523TIP3    H128533   1.245   5.725   4.050
 9523TIP3    H228534   1.324   5.830   4.125
 9524TIP3   OH228535   1.224   2.557   1.284
 9524TIP3    H128536   1.203   2.488   1.348
 9524TIP3    H228537   1.139   2.583   1.248
 9525TIP3   OH228538   3.932   4.536   2.644
 9525TIP3    H128539   3.878   4.557   2.720
 9525TIP3    H228540   3.946   4.621   2.601
 9526TIP3   OH228541   1.308   0.321   2.476
 9526TIP3    H128542   1.271   0.409   2.470
 9526TIP3    H228543   1.387   0.331   2.529
 9527TIP3   OH228544   2.959   0.755   2.728
 9527TIP3    H128545   3.017   0.819   2.686
 9527TIP3    H228546   2.873   0.771   2.689
 9528TIP3   OH228547   5.181   6.575   3.717
 9528TIP3    H128548   5.220   6.499   3.759
 9528TIP3    H228549   5.172   6.640   3.787
 9529TIP3   OH228550   0.389   0.185   0.435
 9529TIP3    H128551   0.300   0.150   0.424
 9529TIP3    H228552   0.417   0.151   0.520
 9530TIP3   OH228553   4.453   6.360   1.067
 9530TIP3    H128554   4.367   6.353   1.108
 9530TIP3    H228555   4.501   6.424   1.120
 9531TIP3   OH228556   4.932   5.322   4.027
 9531TIP3    H128557   4.882   5.353   4.103
 9531TIP3    H228558   4.985   5.397   4.001
 9532TIP3   OH228559   3.819   1.369   1.267
 9532TIP3    H128560   3.739   1.326   1.238
 9532TIP3    H228561   3.807   1.381   1.362
 9533TIP3   OH228562   1.413   5.093   4.227
 9533TIP3    H128563   1.413   5.003   4.260
 9533TIP3    H228564   1.336   5.133   4.269
 9534TIP3   OH228565   7.004   5.543   2.162
 9534TIP3    H128566   7.042   5.569   2.246
 9534TIP3    H228567   6.942   5.474   2.184
 9535TIP3   OH228568   3.376   4.780   1.092
 9535TIP3    H128569   3.408   4.870   1.093
 9535TIP3    H228570   3.316   4.775   1.167
 9536TIP3   OH228571   3.273   3.698   5.358
 9536TIP3    H128572   3.284   3.661   5.271
 9536TIP3    H228573   3.356   3.744   5.375
 9537TIP3   OH228574   2.288   1.995   0.419
 9537TIP3    H128575   2.282   1.912   0.373
 9537TIP3    H228576   2.282   1.972   0.512
 9538TIP3   OH228577   5.118   5.797   0.451
 9538TIP3    H128578   5.160   5.750   0.523
 9538TIP3    H228579   5.037   5.831   0.490
 9539TIP3   OH228580   0.600   4.228   3.120
 9539TIP3    H128581   0.671   4.285   3.150
 9539TIP3    H228582   0.529   4.289   3.099
 9540TIP3   OH228583   4.772   1.995   4.100
 9540TIP3    H128584   4.803   2.080   4.070
 9540TIP3    H228585   4.725   1.958   4.025
 9541TIP3   OH228586   4.448   5.744   2.047
 9541TIP3    H128587   4.461   5.653   2.019
 9541TIP3    H228588   4.490   5.749   2.133
 9542TIP3   OH228589   1.809   3.439   5.238
 9542TIP3    H128590   1.801   3.450   5.143
 9542TIP3    H228591   1.896   3.399   5.249
 9543TIP3   OH228592   0.094   6.172   3.538
 9543TIP3    H128593   0.138   6.216   3.610
 9543TIP3    H228594   0.009   6.216   3.531
 9544TIP3   OH228595   5.973   4.004   1.199
 9544TIP3    H128596   5.979   4.092   1.161
 9544TIP3    H228597   5.924   3.953   1.134
 9545TIP3   OH228598   3.338   2.898   1.315
 9545TIP3    H128599   3.398   2.965   1.346
 9545TIP3    H228600   3.253   2.943   1.310
 9546TIP3   OH228601   5.346   6.533   4.705
 9546TIP3    H128602   5.415   6.599   4.699
 9546TIP3    H228603   5.306   6.531   4.619
 9547TIP3   OH228604   3.381   3.063   4.078
 9547TIP3    H128605   3.354   3.073   3.987
 9547TIP3    H228606   3.302   3.079   4.129
 9548TIP3   OH228607   5.207   3.062   4.767
 9548TIP3    H128608   5.256   3.106   4.698
 9548TIP3    H228609   5.126   3.034   4.725
 9549TIP3   OH228610   1.499   2.920   0.759
 9549TIP3    H128611   1.450   2.859   0.704
 9549TIP3    H228612   1.558   2.965   0.699
 9550TIP3   OH228613   1.441   3.220   0.455
 9550TIP3    H128614   1.448   3.139   0.404
 9550TIP3    H228615   1.521   3.268   0.435
 9551TIP3   OH228616   0.522   2.203   0.659
 9551TIP3    H128617   0.588   2.167   0.599
 9551TIP3    H228618   0.570   2.269   0.710
 9552TIP3   OH228619   4.189   0.317   4.960
 9552TIP3    H128620   4.155   0.363   4.883
 9552TIP3    H228621   4.175   0.377   5.033
 9553TIP3   OH228622   5.590   6.586   4.913
 9553TIP3    H128623   5.525   6.600   4.981
 9553TIP3    H228624   5.567   6.501   4.875
 9554TIP3   OH228625   2.613   0.764   5.393
 9554TIP3    H128626   2.622   0.723   5.478
 9554TIP3    H228627   2.574   0.850   5.411
 9555TIP3   OH228628   6.807   0.952   2.018
 9555TIP3    H128629   6.716   0.981   2.009
 9555TIP3    H228630   6.825   0.957   2.112
 9556TIP3   OH228631   6.504   2.103   0.233
 9556TIP3    H128632   6.545   2.032   0.184
 9556TIP3    H228633   6.425   2.124   0.184
 9557TIP3   OH228634   2.071   6.266   3.289
 9557TIP3    H128635   2.129   6.206   3.241
 9557TIP3    H228636   1.985   6.224   3.285
 9558TIP3   OH228637   2.618   5.743   1.649
 9558TIP3    H128638   2.600   5.764   1.741
 9558TIP3    H228639   2.616   5.647   1.645
 9559TIP3   OH228640   6.511   4.691   0.041
 9559TIP3    H128641   6.538   4.759  -0.020
 9559TIP3    H228642   6.458   4.736   0.106
 9560TIP3   OH228643   6.673   5.222   1.076
 9560TIP3    H128644   6.756   5.185   1.048
 9560TIP3    H228645   6.612   5.203   1.005
 9561TIP3   OH228646   0.550   0.743   3.475
 9561TIP3    H128647   0.457   0.721   3.482
 9561TIP3    H228648   0.595   0.676   3.527
 9562TIP3   OH228649   5.787   0.400   5.706
 9562TIP3    H128650   5.761   0.385   5.615
 9562TIP3    H228651   5.704   0.408   5.754
 9563TIP3   OH228652   3.472   5.614   1.391
 9563TIP3    H128653   3.411   5.572   1.452
 9563TIP3    H228654   3.448   5.580   1.305
 9564TIP3   OH228655   5.615   1.475   5.935
 9564TIP3    H128656   5.535   1.521   5.910
 9564TIP3    H228657   5.660   1.458   5.852
 9565TIP3   OH228658   4.169   0.878   3.458
 9565TIP3    H128659   4.210   0.797   3.488
 9565TIP3    H228660   4.144   0.924   3.538
 9566TIP3   OH228661   0.128   3.785   5.485
 9566TIP3    H128662   0.047   3.796   5.435
 9566TIP3    H228663   0.152   3.693   5.473
 9567TIP3   OH228664   5.245   2.765   2.416
 9567TIP3    H128665   5.260   2.858   2.435
 9567TIP3    H228666   5.300   2.748   2.339
 9568TIP3   OH228667   0.801   0.796   1.962
 9568TIP3    H128668   0.756   0.752   1.889
 9568TIP3    H228669   0.893   0.772   1.952
 9569TIP3   OH228670   0.308   0.250   4.545
 9569TIP3    H128671   0.301   0.156   4.563
 9569TIP3    H228672   0.361   0.284   4.617
 9570TIP3   OH228673   1.678   3.250   5.517
 9570TIP3    H128674   1.643   3.338   5.500
 9570TIP3    H228675   1.618   3.213   5.582
 9571TIP3   OH228676   5.449   4.803   0.638
 9571TIP3    H128677   5.377   4.741   0.626
 9571TIP3    H228678   5.409   4.878   0.682
 9572TIP3   OH228679   6.519   3.380   2.575
 9572TIP3    H128680   6.590   3.443   2.588
 9572TIP3    H228681   6.526   3.356   2.482
 9573TIP3   OH228682   3.991   6.551   3.062
 9573TIP3    H128683   4.058   6.490   3.094
 9573TIP3    H228684   3.996   6.545   2.967
 9574TIP3   OH228685   0.711   5.306   3.616
 9574TIP3    H128686   0.631   5.350   3.642
 9574TIP3    H228687   0.714   5.315   3.521
 9575TIP3   OH228688   5.325   2.139   1.622
 9575TIP3    H128689   5.395   2.165   1.681
 9575TIP3    H228690   5.256   2.205   1.635
 9576TIP3   OH228691   6.717   6.182   0.946
 9576TIP3    H128692   6.799   6.154   0.906
 9576TIP3    H228693   6.652   6.173   0.877
 9577TIP3   OH228694   2.289   1.618   4.157
 9577TIP3    H128695   2.363   1.678   4.156
 9577TIP3    H228696   2.213   1.673   4.176
 9578TIP3   OH228697   4.742   0.625   0.565
 9578TIP3    H128698   4.801   0.551   0.575
 9578TIP3    H228699   4.736   0.639   0.470
 9579TIP3   OH228700   2.913   2.935   5.476
 9579TIP3    H128701   2.894   3.009   5.534
 9579TIP3    H228702   2.830   2.889   5.467
 9580TIP3   OH228703   0.269   4.322   5.018
 9580TIP3    H128704   0.320   4.307   4.939
 9580TIP3    H228705   0.220   4.403   5.000
 9581TIP3   OH228706   4.612   0.336   2.769
 9581TIP3    H128707   4.681   0.401   2.770
 9581TIP3    H228708   4.656   0.253   2.748
 9582TIP3   OH228709   7.013   1.281   4.600
 9582TIP3    H128710   6.991   1.195   4.637
 9582TIP3    H228711   7.105   1.273   4.575
 9583TIP3   OH228712   6.546   5.126   0.182
 9583TIP3    H128713   6.464   5.159   0.145
 9583TIP3    H228714   6.605   5.119   0.107
 9584TIP3   OH228715   6.251   6.206   3.619
 9584TIP3    H128716   6.255   6.250   3.704
 9584TIP3    H228717   6.341   6.209   3.586
 9585TIP3   OH228718   5.879   5.055   2.248
 9585TIP3    H128719   5.847   5.012   2.327
 9585TIP3    H228720   5.802   5.099   2.212
 9586TIP3   OH228721   3.317   3.010   0.036
 9586TIP3    H128722   3.237   2.959   0.046
 9586TIP3    H228723   3.307   3.083   0.096
 9587TIP3   OH228724   0.080   3.588   1.158
 9587TIP3    H128725   0.035   3.670   1.139
 9587TIP3    H228726   0.099   3.591   1.251
 9588TIP3   OH228727   2.476   1.827   0.912
 9588TIP3    H128728   2.544   1.770   0.877
 9588TIP3    H228729   2.413   1.836   0.840
 9589TIP3   OH228730   6.815   0.254   5.108
 9589TIP3    H128731   6.801   0.283   5.198
 9589TIP3    H228732   6.746   0.190   5.092
 9590TIP3   OH228733   3.395   3.775   3.095
 9590TIP3    H128734   3.413   3.682   3.080
 9590TIP3    H228735   3.340   3.801   3.021
 9591TIP3   OH228736   0.221   2.370   4.737
 9591TIP3    H128737   0.152   2.432   4.715
 9591TIP3    H228738   0.298   2.424   4.752
 9592TIP3   OH228739   6.814   0.124   0.576
 9592TIP3    H128740   6.892   0.070   0.588
 9592TIP3    H228741   6.746   0.062   0.552
 9593TIP3   OH228742   3.365   0.860   5.230
 9593TIP3    H128743   3.372   0.765   5.237
 9593TIP3    H228744   3.346   0.876   5.138
 9594TIP3   OH228745   3.530   4.719   5.539
 9594TIP3    H128746   3.552   4.730   5.631
 9594TIP3    H228747   3.446   4.764   5.529
 9595TIP3   OH228748   7.182   1.343   5.296
 9595TIP3    H128749   7.155   1.428   5.330
 9595TIP3    H228750   7.103   1.307   5.255
 9596TIP3   OH228751   6.707   2.478   0.630
 9596TIP3    H128752   6.673   2.451   0.715
 9596TIP3    H228753   6.632   2.514   0.584
 9597TIP3   OH228754   2.418   2.829   0.854
 9597TIP3    H128755   2.372   2.912   0.842
 9597TIP3    H228756   2.349   2.767   0.879
 9598TIP3   OH228757   6.718   3.013   1.624
 9598TIP3    H128758   6.768   3.094   1.638
 9598TIP3    H228759   6.632   3.032   1.662
 9599TIP3   OH228760   2.625   3.659   2.575
 9599TIP3    H128761   2.644   3.677   2.667
 9599TIP3    H228762   2.711   3.646   2.535
 9600TIP3   OH228763   0.687   6.242   4.983
 9600TIP3    H128764   0.710   6.304   5.052
 9600TIP3    H228765   0.703   6.289   4.901
 9601TIP3   OH228766   6.468   3.586   2.380
 9601TIP3    H128767   6.418   3.635   2.446
 9601TIP3    H228768   6.407   3.519   2.349
 9602TIP3   OH228769   2.697   1.631   5.245
 9602TIP3    H128770   2.716   1.711   5.196
 9602TIP3    H228771   2.602   1.630   5.254
 9603TIP3   OH228772   3.169   5.255   2.366
 9603TIP3    H128773   3.156   5.174   2.416
 9603TIP3    H228774   3.099   5.313   2.395
 9604TIP3   OH228775   1.722   4.320   0.597
 9604TIP3    H128776   1.634   4.335   0.629
 9604TIP3    H228777   1.778   4.368   0.658
 9605TIP3   OH228778   3.781   2.677   4.412
 9605TIP3    H128779   3.737   2.610   4.464
 9605TIP3    H228780   3.735   2.676   4.328
 9606TIP3   OH228781   6.765   6.705   4.602
 9606TIP3    H128782   6.788   6.793   4.572
 9606TIP3    H228783   6.688   6.682   4.550
 9607TIP3   OH228784   4.542   0.435   2.469
 9607TIP3    H128785   4.577   0.403   2.553
 9607TIP3    H228786   4.556   0.363   2.408
 9608TIP3   OH228787   2.332   5.452   4.273
 9608TIP3    H128788   2.253   5.479   4.321
 9608TIP3    H228789   2.328   5.501   4.191
 9609TIP3   OH228790   2.312   0.498   0.501
 9609TIP3    H128791   2.294   0.471   0.591
 9609TIP3    H228792   2.225   0.503   0.460
 9610TIP3   OH228793   7.062   6.367   3.919
 9610TIP3    H128794   7.001   6.310   3.873
 9610TIP3    H228795   7.010   6.408   3.988
 9611TIP3   OH228796   1.353   1.972   2.677
 9611TIP3    H128797   1.343   1.986   2.771
 9611TIP3    H228798   1.268   1.994   2.640
 9612TIP3   OH228799   1.744   0.309   0.623
 9612TIP3    H128800   1.663   0.290   0.670
 9612TIP3    H228801   1.738   0.401   0.600
 9613TIP3   OH228802   4.431   6.564   1.684
 9613TIP3    H128803   4.404   6.612   1.763
 9613TIP3    H228804   4.511   6.518   1.711
 9614TIP3   OH228805   2.901   5.339   2.263
 9614TIP3    H128806   2.912   5.267   2.201
 9614TIP3    H228807   2.851   5.302   2.336
 9615TIP3   OH228808   1.917   2.081   0.497
 9615TIP3    H128809   1.997   2.128   0.474
 9615TIP3    H228810   1.874   2.065   0.414
 9616TIP3   OH228811   4.504   3.453   3.263
 9616TIP3    H128812   4.595   3.482   3.256
 9616TIP3    H228813   4.454   3.522   3.220
 9617TIP3   OH228814   3.212   0.635   2.082
 9617TIP3    H128815   3.273   0.660   2.014
 9617TIP3    H228816   3.229   0.542   2.098
 9618TIP3   OH228817   1.552   5.646   2.041
 9618TIP3    H128818   1.608   5.704   1.989
 9618TIP3    H228819   1.523   5.578   1.980
 9619TIP3   OH228820   6.785   0.931   2.301
 9619TIP3    H128821   6.861   0.880   2.331
 9619TIP3    H228822   6.710   0.890   2.344
 9620TIP3   OH228823   2.472   1.234   1.509
 9620TIP3    H128824   2.533   1.283   1.564
 9620TIP3    H228825   2.406   1.200   1.569
 9621TIP3   OH228826   0.280   0.295   3.651
 9621TIP3    H128827   0.185   0.300   3.666
 9621TIP3    H228828   0.289   0.279   3.558
 9622TIP3   OH228829   0.283   5.188   4.019
 9622TIP3    H128830   0.274   5.094   4.033
 9622TIP3    H228831   0.344   5.217   4.087
 9623TIP3   OH228832   0.293   0.772   3.210
 9623TIP3    H128833   0.316   0.847   3.265
 9623TIP3    H228834   0.368   0.764   3.150
 9624TIP3   OH228835   0.906   3.380   5.304
 9624TIP3    H128836   0.893   3.456   5.247
 9624TIP3    H228837   0.881   3.410   5.391
 9625TIP3   OH228838   4.572   5.500   1.643
 9625TIP3    H128839   4.619   5.548   1.575
 9625TIP3    H228840   4.615   5.414   1.646
 9626TIP3   OH228841   3.893   6.149   3.678
 9626TIP3    H128842   3.886   6.217   3.610
 9626TIP3    H228843   3.804   6.138   3.709
 9627TIP3   OH228844   6.030   1.391   4.986
 9627TIP3    H128845   6.070   1.477   4.975
 9627TIP3    H228846   5.982   1.376   4.904
 9628TIP3   OH228847   0.176   5.525   4.681
 9628TIP3    H128848   0.248   5.585   4.702
 9628TIP3    H228849   0.101   5.582   4.667
 9629TIP3   OH228850   0.196   5.841   5.771
 9629TIP3    H128851   0.139   5.900   5.721
 9629TIP3    H228852   0.179   5.864   5.863
 9630TIP3   OH228853   5.680   4.634   1.836
 9630TIP3    H128854   5.671   4.556   1.891
 9630TIP3    H228855   5.591   4.668   1.828
 9631TIP3   OH228856   0.117   4.772   5.799
 9631TIP3    H128857   0.210   4.764   5.778
 9631TIP3    H228858   0.115   4.801   5.890
 9632TIP3   OH228859   3.134   6.267   2.829
 9632TIP3    H128860   3.227   6.247   2.813
 9632TIP3    H228861   3.130   6.287   2.923
 9633TIP3   OH228862   3.843   1.179  -0.008
 9633TIP3    H128863   3.815   1.159   0.082
 9633TIP3    H228864   3.801   1.262  -0.029
 9634TIP3   OH228865   1.980   1.622   2.079
 9634TIP3    H128866   1.952   1.531   2.065
 9634TIP3    H228867   1.903   1.665   2.114
 9635TIP3   OH228868   3.713   2.523   4.976
 9635TIP3    H128869   3.626   2.504   4.941
 9635TIP3    H228870   3.737   2.445   5.026
 9636TIP3   OH228871   3.602   1.591   3.890
 9636TIP3    H128872   3.592   1.661   3.825
 9636TIP3    H228873   3.514   1.556   3.901
 9637TIP3   OH228874   3.996   0.293   3.942
 9637TIP3    H128875   4.020   0.307   3.850
 9637TIP3    H228876   3.922   0.352   3.956
 9638TIP3   OH228877   6.290   3.323   1.862
 9638TIP3    H128878   6.245   3.253   1.815
 9638TIP3    H228879   6.365   3.345   1.807
 9639TIP3   OH228880   2.761   3.359   5.711
 9639TIP3    H128881   2.684   3.415   5.708
 9639TIP3    H228882   2.835   3.419   5.718
 9640TIP3   OH228883   1.538   2.875   5.431
 9640TIP3    H128884   1.543   2.919   5.516
 9640TIP3    H228885   1.581   2.934   5.370
 9641TIP3   OH228886   3.207   2.811   4.257
 9641TIP3    H128887   3.288   2.854   4.283
 9641TIP3    H228888   3.139   2.876   4.274
 9642TIP3   OH228889   0.242   2.193   2.234
 9642TIP3    H128890   0.273   2.145   2.311
 9642TIP3    H228891   0.258   2.285   2.255
 9643TIP3   OH228892   3.273   4.833   3.908
 9643TIP3    H128893   3.295   4.921   3.939
 9643TIP3    H228894   3.311   4.775   3.974
 9644TIP3   OH228895   4.839   1.723   1.714
 9644TIP3    H128896   4.770   1.782   1.743
 9644TIP3    H228897   4.851   1.743   1.621
 9645TIP3   OH228898   5.167   0.725   1.243
 9645TIP3    H128899   5.196   0.703   1.332
 9645TIP3    H228900   5.114   0.651   1.216
 9646TIP3   OH228901   4.269   0.102   3.602
 9646TIP3    H128902   4.231   0.059   3.526
 9646TIP3    H228903   4.284   0.192   3.573
 9647TIP3   OH228904   0.464   6.615   5.611
 9647TIP3    H128905   0.529   6.595   5.544
 9647TIP3    H228906   0.495   6.571   5.690
 9648TIP3   OH228907   2.466   3.812   4.909
 9648TIP3    H128908   2.426   3.804   4.996
 9648TIP3    H228909   2.559   3.828   4.927
 9649TIP3   OH228910   2.243   5.884   0.039
 9649TIP3    H128911   2.225   5.848  -0.048
 9649TIP3    H228912   2.208   5.820   0.100
 9650TIP3   OH228913   4.598   6.637   0.161
 9650TIP3    H128914   4.651   6.582   0.104
 9650TIP3    H228915   4.573   6.579   0.234
 9651TIP3   OH228916   6.235   0.237   0.133
 9651TIP3    H128917   6.258   0.283   0.213
 9651TIP3    H228918   6.157   0.283   0.100
 9652TIP3   OH228919   6.276   5.651   0.679
 9652TIP3    H128920   6.216   5.577   0.691
 9652TIP3    H228921   6.311   5.668   0.766
 9653TIP3   OH228922   2.360   5.118   1.770
 9653TIP3    H128923   2.443   5.165   1.765
 9653TIP3    H228924   2.298   5.182   1.805
 9654TIP3   OH228925   2.078   2.039   0.008
 9654TIP3    H128926   2.102   1.949  -0.010
 9654TIP3    H228927   1.982   2.040   0.005
 9655TIP3   OH228928   0.295   5.363   1.453
 9655TIP3    H128929   0.208   5.376   1.415
 9655TIP3    H228930   0.307   5.268   1.452
 9656TIP3   OH228931   6.710   4.881   0.887
 9656TIP3    H128932   6.668   4.903   0.804
 9656TIP3    H228933   6.656   4.924   0.953
 9657TIP3   OH228934   4.995   0.205   0.238
 9657TIP3    H128935   4.951   0.230   0.157
 9657TIP3    H228936   5.042   0.285   0.265
 9658TIP3   OH228937   5.576   5.365   2.827
 9658TIP3    H128938   5.508   5.379   2.761
 9658TIP3    H228939   5.548   5.287   2.875
 9659TIP3   OH228940   4.411   0.994   2.381
 9659TIP3    H128941   4.391   0.900   2.385
 9659TIP3    H228942   4.400   1.025   2.471
 9660TIP3   OH228943   3.965   0.353   4.549
 9660TIP3    H128944   3.964   0.316   4.460
 9660TIP3    H228945   4.008   0.287   4.602
 9661TIP3   OH228946   4.780   4.329   4.411
 9661TIP3    H128947   4.799   4.235   4.403
 9661TIP3    H228948   4.686   4.334   4.423
 9662TIP3   OH228949   5.127   1.982   3.919
 9662TIP3    H128950   5.073   1.945   3.989
 9662TIP3    H228951   5.067   1.990   3.844
 9663TIP3   OH228952   5.268   5.437   1.882
 9663TIP3    H128953   5.254   5.399   1.969
 9663TIP3    H228954   5.181   5.439   1.842
 9664TIP3   OH228955   5.345   2.080   4.638
 9664TIP3    H128956   5.276   2.064   4.575
 9664TIP3    H228957   5.402   2.144   4.596
 9665TIP3   OH228958   4.439   5.165   1.590
 9665TIP3    H128959   4.474   5.210   1.513
 9665TIP3    H228960   4.370   5.223   1.622
 9666TIP3   OH228961   6.436   1.120   1.066
 9666TIP3    H128962   6.522   1.162   1.060
 9666TIP3    H228963   6.402   1.147   1.151
 9667TIP3   OH228964   3.579   3.618   0.238
 9667TIP3    H128965   3.559   3.611   0.144
 9667TIP3    H228966   3.587   3.527   0.267
 9668TIP3   OH228967   6.034   6.477   2.306
 9668TIP3    H128968   6.065   6.410   2.369
 9668TIP3    H228969   6.055   6.441   2.220
 9669TIP3   OH228970   0.009   4.800   2.970
 9669TIP3    H128971  -0.007   4.825   3.061
 9669TIP3    H228972   0.046   4.878   2.930
 9670TIP3   OH228973   0.277   0.570   5.286
 9670TIP3    H128974   0.255   0.555   5.194
 9670TIP3    H228975   0.233   0.499   5.333
 9671TIP3   OH228976   3.518   0.001   4.972
 9671TIP3    H128977   3.424   0.017   4.975
 9671TIP3    H228978   3.538  -0.005   4.879
 9672TIP3   OH228979   2.196   3.340   2.279
 9672TIP3    H128980   2.255   3.410   2.304
 9672TIP3    H228981   2.109   3.372   2.303
 9673TIP3   OH228982   3.285   0.584   3.320
 9673TIP3    H128983   3.263   0.500   3.279
 9673TIP3    H228984   3.307   0.642   3.246
 9674TIP3   OH228985   3.778   2.236   3.563
 9674TIP3    H128986   3.712   2.306   3.568
 9674TIP3    H228987   3.845   2.271   3.505
 9675TIP3   OH228988   6.133   0.685   0.239
 9675TIP3    H128989   6.214   0.728   0.265
 9675TIP3    H228990   6.123   0.706   0.146
 9676TIP3   OH228991   4.605   3.465   2.072
 9676TIP3    H128992   4.669   3.404   2.111
 9676TIP3    H228993   4.537   3.474   2.139
 9677TIP3   OH228994   1.003   4.544   3.406
 9677TIP3    H128995   1.070   4.560   3.339
 9677TIP3    H228996   1.020   4.455   3.436
 9678TIP3   OH228997   2.725   3.614   4.580
 9678TIP3    H128998   2.764   3.634   4.665
 9678TIP3    H228999   2.759   3.526   4.559
 9679TIP3   OH229000   2.541   3.805   1.019
 9679TIP3    H129001   2.517   3.713   1.018
 9679TIP3    H229002   2.624   3.809   0.971
 9680TIP3   OH229003   5.304   3.535   0.718
 9680TIP3    H129004   5.210   3.516   0.719
 9680TIP3    H229005   5.345   3.451   0.698
 9681TIP3   OH229006   6.133   3.870   0.249
 9681TIP3    H129007   6.186   3.872   0.328
 9681TIP3    H229008   6.043   3.883   0.280
 9682TIP3   OH229009   4.971   1.129   3.413
 9682TIP3    H129010   4.973   1.056   3.351
 9682TIP3    H229011   4.987   1.207   3.360
 9683TIP3   OH229012   5.436   2.499   5.029
 9683TIP3    H129013   5.369   2.458   4.975
 9683TIP3    H229014   5.487   2.425   5.064
 9684TIP3   OH229015   7.217   4.949   4.550
 9684TIP3    H129016   7.228   4.855   4.567
 9684TIP3    H229017   7.270   4.991   4.618
 9685TIP3   OH229018   5.292   4.404   4.551
 9685TIP3    H129019   5.272   4.320   4.509
 9685TIP3    H229020   5.341   4.453   4.485
 9686TIP3   OH229021   6.329   0.976   1.697
 9686TIP3    H129022   6.249   0.934   1.666
 9686TIP3    H229023   6.335   0.951   1.789
 9687TIP3   OH229024   5.385   4.994   3.104
 9687TIP3    H129025   5.412   5.059   3.039
 9687TIP3    H229026   5.348   4.923   3.053
 9688TIP3   OH229027   4.024   4.108   3.005
 9688TIP3    H129028   4.027   4.179   3.068
 9688TIP3    H229029   4.083   4.041   3.041
 9689TIP3   OH229030   0.364   2.263   5.369
 9689TIP3    H129031   0.314   2.341   5.394
 9689TIP3    H229032   0.303   2.191   5.382
 9690TIP3   OH229033   6.601   5.670   4.827
 9690TIP3    H129034   6.668   5.663   4.894
 9690TIP3    H229035   6.518   5.657   4.874
 9691TIP3   OH229036   2.595   4.247   0.976
 9691TIP3    H129037   2.537   4.207   0.911
 9691TIP3    H229038   2.610   4.177   1.040
 9692TIP3   OH229039   6.639   4.712   5.694
 9692TIP3    H129040   6.668   4.643   5.754
 9692TIP3    H229041   6.546   4.694   5.678
 9693TIP3   OH229042   6.195   0.913   4.393
 9693TIP3    H129043   6.121   0.974   4.385
 9693TIP3    H229044   6.267   0.957   4.348
 9694TIP3   OH229045   0.469   1.559   2.149
 9694TIP3    H129046   0.485   1.518   2.064
 9694TIP3    H229047   0.378   1.538   2.170
 9695TIP3   OH229048   6.238   0.133   2.313
 9695TIP3    H129049   6.192   0.214   2.291
 9695TIP3    H229050   6.175   0.064   2.296
 9696TIP3   OH229051   6.348   0.479   4.895
 9696TIP3    H129052   6.284   0.418   4.858
 9696TIP3    H229053   6.368   0.443   4.982
 9697TIP3   OH229054   0.376   4.345   3.731
 9697TIP3    H129055   0.286   4.369   3.753
 9697TIP3    H229056   0.405   4.413   3.671
 9698TIP3   OH229057   0.114   0.490   5.032
 9698TIP3    H129058   0.059   0.564   5.005
 9698TIP3    H229059   0.140   0.448   4.950
 9699TIP3   OH229060   1.658   4.296   0.005
 9699TIP3    H129061   1.602   4.364  -0.032
 9699TIP3    H229062   1.747   4.330  -0.005
 9700TIP3   OH229063   3.486   0.520   0.795
 9700TIP3    H129064   3.445   0.434   0.790
 9700TIP3    H229065   3.543   0.516   0.871
 9701TIP3   OH229066   1.204   5.661   0.100
 9701TIP3    H129067   1.294   5.656   0.132
 9701TIP3    H229068   1.205   5.736   0.040
 9702TIP3   OH229069   5.845   1.470   5.747
 9702TIP3    H129070   5.844   1.552   5.698
 9702TIP3    H229071   5.908   1.484   5.818
 9703TIP3   OH229072   6.898   0.060   5.338
 9703TIP3    H129073   6.810   0.065   5.300
 9703TIP3    H229074   6.884   0.038   5.430
 9704TIP3   OH229075   3.534   3.269   4.697
 9704TIP3    H129076   3.549   3.198   4.634
 9704TIP3    H229077   3.509   3.224   4.778
 9705TIP3   OH229078   2.487   4.843   3.431
 9705TIP3    H129079   2.476   4.894   3.350
 9705TIP3    H229080   2.483   4.752   3.402
 9706TIP3   OH229081   0.263   3.039   0.621
 9706TIP3    H129082   0.213   3.044   0.703
 9706TIP3    H229083   0.353   3.059   0.646
 9707TIP3   OH229084   1.829   2.529   0.855
 9707TIP3    H129085   1.794   2.512   0.768
 9707TIP3    H229086   1.897   2.463   0.867
 9708TIP3   OH229087   6.844   4.937   1.218
 9708TIP3    H129088   6.759   4.942   1.263
 9708TIP3    H229089   6.905   4.909   1.286
 9709TIP3   OH229090   3.459   5.521   4.846
 9709TIP3    H129091   3.450   5.490   4.756
 9709TIP3    H229092   3.508   5.603   4.838
 9710TIP3   OH229093   1.497   1.788   0.432
 9710TIP3    H129094   1.565   1.828   0.486
 9710TIP3    H229095   1.418   1.794   0.485
 9711TIP3   OH229096   6.944   3.645   2.164
 9711TIP3    H129097   6.888   3.594   2.222
 9711TIP3    H229098   6.931   3.605   2.078
 9712TIP3   OH229099   0.553   4.558   3.465
 9712TIP3    H129100   0.493   4.611   3.517
 9712TIP3    H229101   0.639   4.597   3.480
 9713TIP3   OH229102   5.273   1.336   2.273
 9713TIP3    H129103   5.329   1.335   2.196
 9713TIP3    H229104   5.210   1.407   2.257
 9714TIP3   OH229105   1.446   6.695   0.749
 9714TIP3    H129106   1.408   6.689   0.837
 9714TIP3    H229107   1.457   6.789   0.735
 9715TIP3   OH229108   2.392   3.972   4.270
 9715TIP3    H129109   2.384   3.890   4.222
 9715TIP3    H229110   2.306   4.012   4.265
 9716TIP3   OH229111   0.998   6.592   1.579
 9716TIP3    H129112   1.069   6.555   1.632
 9716TIP3    H229113   0.927   6.608   1.642
 9717TIP3   OH229114   5.691   0.097   5.754
 9717TIP3    H129115   5.652   0.011   5.770
 9717TIP3    H229116   5.617   0.155   5.740
 9718TIP3   OH229117   3.661   2.173   5.568
 9718TIP3    H129118   3.716   2.203   5.495
 9718TIP3    H229119   3.689   2.225   5.643
 9719TIP3   OH229120   6.163   1.861   2.077
 9719TIP3    H129121   6.107   1.799   2.123
 9719TIP3    H229122   6.117   1.945   2.084
 9720TIP3   OH229123   0.480   4.595   1.857
 9720TIP3    H129124   0.548   4.552   1.909
 9720TIP3    H229125   0.507   4.581   1.766
 9721TIP3   OH229126   6.284   3.469   3.732
 9721TIP3    H129127   6.236   3.441   3.810
 9721TIP3    H229128   6.373   3.484   3.763
 9722TIP3   OH229129   3.198   2.563   2.048
 9722TIP3    H129130   3.188   2.536   2.140
 9722TIP3    H229131   3.257   2.639   2.052
 9723TIP3   OH229132   7.118   6.132   5.079
 9723TIP3    H129133   7.045   6.081   5.113
 9723TIP3    H229134   7.157   6.076   5.012
 9724TIP3   OH229135   3.833   1.466   3.207
 9724TIP3    H129136   3.829   1.418   3.124
 9724TIP3    H229137   3.799   1.404   3.272
 9725TIP3   OH229138   5.769   1.474   1.222
 9725TIP3    H129139   5.768   1.570   1.229
 9725TIP3    H229140   5.859   1.454   1.195
 9726TIP3   OH229141   3.060   5.529   3.591
 9726TIP3    H129142   3.114   5.529   3.670
 9726TIP3    H229143   3.103   5.466   3.533
 9727TIP3   OH229144   5.103   2.098   0.098
 9727TIP3    H129145   5.181   2.047   0.119
 9727TIP3    H229146   5.132   2.159   0.030
 9728TIP3   OH229147   1.818   6.130   2.726
 9728TIP3    H129148   1.758   6.171   2.788
 9728TIP3    H229149   1.815   6.037   2.749
 9729TIP3   OH229150   3.764   2.306   2.021
 9729TIP3    H129151   3.724   2.241   2.079
 9729TIP3    H229152   3.690   2.347   1.977
 9730TIP3   OH229153   0.292   5.795   4.680
 9730TIP3    H129154   0.350   5.827   4.748
 9730TIP3    H229155   0.231   5.867   4.664
 9731TIP3   OH229156   1.937   2.165   2.517
 9731TIP3    H129157   1.894   2.250   2.525
 9731TIP3    H229158   2.018   2.175   2.568
 9732TIP3   OH229159   1.810   6.385   3.744
 9732TIP3    H129160   1.827   6.480   3.743
 9732TIP3    H229161   1.772   6.368   3.830
 9733TIP3   OH229162   7.223   4.728   1.019
 9733TIP3    H129163   7.161   4.756   0.951
 9733TIP3    H229164   7.170   4.721   1.098
 9734TIP3   OH229165   1.436   0.708   2.259
 9734TIP3    H129166   1.349   0.693   2.296
 9734TIP3    H229167   1.460   0.796   2.288
 9735TIP3   OH229168   5.829   5.336   3.083
 9735TIP3    H129169   5.911   5.384   3.095
 9735TIP3    H229170   5.802   5.356   2.993
 9736TIP3   OH229171   5.762   3.115   5.434
 9736TIP3    H129172   5.804   3.033   5.460
 9736TIP3    H229173   5.691   3.089   5.376
 9737TIP3   OH229174   5.798   3.229   0.403
 9737TIP3    H129175   5.855   3.239   0.327
 9737TIP3    H229176   5.850   3.262   0.476
 9738TIP3   OH229177   5.948   3.215   1.158
 9738TIP3    H129178   5.909   3.174   1.236
 9738TIP3    H229179   6.013   3.152   1.128
 9739TIP3   OH229180   7.130   2.252   1.519
 9739TIP3    H129181   7.212   2.270   1.563
 9739TIP3    H229182   7.130   2.311   1.443
 9740TIP3   OH229183   6.828   5.061   2.266
 9740TIP3    H129184   6.775   5.007   2.325
 9740TIP3    H229185   6.765   5.113   2.217
 9741TIP3   OH229186   0.455   0.035   5.884
 9741TIP3    H129187   0.401   0.096   5.833
 9741TIP3    H229188   0.481   0.085   5.961
 9742TIP3   OH229189   3.063   4.512   5.541
 9742TIP3    H129190   2.973   4.544   5.530
 9742TIP3    H229191   3.086   4.474   5.457
 9743TIP3   OH229192   0.251   4.107   4.085
 9743TIP3    H129193   0.323   4.159   4.119
 9743TIP3    H229194   0.254   4.025   4.135
 9744TIP3   OH229195   2.618   3.467   0.945
 9744TIP3    H129196   2.540   3.472   1.000
 9744TIP3    H229197   2.690   3.495   1.001
 9745TIP3   OH229198   0.229   2.753   3.784
 9745TIP3    H129199   0.303   2.743   3.723
 9745TIP3    H229200   0.256   2.824   3.842
 9746TIP3   OH229201   0.139   3.628   4.666
 9746TIP3    H129202   0.105   3.628   4.577
 9746TIP3    H229203   0.212   3.689   4.665
 9747TIP3   OH229204   6.952   5.426   1.926
 9747TIP3    H129205   6.984   5.458   2.011
 9747TIP3    H229206   6.997   5.482   1.862
 9748TIP3   OH229207   4.282   5.095   4.926
 9748TIP3    H129208   4.282   5.123   4.834
 9748TIP3    H229209   4.373   5.108   4.954
 9749TIP3   OH229210   2.816   2.630   3.328
 9749TIP3    H129211   2.768   2.709   3.304
 9749TIP3    H229212   2.866   2.655   3.406
   7.20689   6.79473   5.88440   0.00000   0.00000  -2.40230   0.00000  -2.40230  -3.39736
